 vasp.6.5.0 16Dec24 (build Jan 20 2025 08:32:48) complex                         
 executed on        HPECrayEX_GCC date 2025.07.22  11:42:42
 running  128 mpi-ranks, with    1 threads/rank, on    1 nodes
 distrk:  each k-point on  128 cores,    1 groups
 distr:  one band on NCORE=  16 cores,    8 groups


--------------------------------------------------------------------------------------------------------


 INCAR:
   SYSTEM = a-Si SPC
   NCORE = 16
   ISTART = 1
   ICHARG = 1
   ISPIN = 1
   ISYM = 1
   EDIFF = 1E-6
   NELM = 150
   EDIFFG = -0.01
   NSW = 0
   ISIF = 2
   IBRION = -1
   PREC = Accurate
   ENCUT = 1200
   KSPACING = 0.23
   KGAMMA = .TRUE.
   METAGGA = SCAN
   LASPH = .TRUE.
   LDIAG = .FALSE.
   LMIXTAU = .TRUE.
   ADDGRID = .TRUE.
   ALGO = Normal
   ISMEAR = 0
   SIGMA = 0.1
   LORBIT = 11
   NEDOS = 2000
   LWAVE = .FALSE.
   LCHARG = .FALSE.

 POTCAR:    PAW_PBE H 15Jun2001                   
 POTCAR:    PAW_PBE Si 05Jan2001                  
 POTCAR:    PAW_PBE H 15Jun2001                   
   SHA256 =  030f79b5d3ab3cf0e668861823c8fb652ff669f3e15e46930bd03bfd63a607b6 H/POTCAR              
   COPYR  = (c) Copyright 15Jun2001 Georg Kresse                                                    
   COPYR  = This file is part of the software VASP. Any use, copying, and all other rights are regul
   COPYR  = If you do not have a valid VASP license, you may not use, copy or distribute this file. 
   VRHFIN =H: ultrasoft test                                                                        
   LEXCH  = PE                                                                                      
   EATOM  =    12.4884 eV,    0.9179 Ry                                                             
                                                                                                    
   TITEL  = PAW_PBE H 15Jun2001                                                                     
   LULTRA =        F    use ultrasoft PP ?                                                          
   IUNSCR =        0    unscreen: 0-lin 1-nonlin 2-no                                               
   RPACOR =    0.000    partial core radius                                                         
   POMASS =    1.000; ZVAL   =    1.000    mass and valenz                                          
   RCORE  =    1.100    outmost cutoff radius                                                       
   RWIGS  =    0.700; RWIGS  =    0.370    wigner-seitz radius (au A)                               
   ENMAX  =  250.000; ENMIN  =  200.000 eV                                                          
   RCLOC  =    0.701    cutoff for local pot                                                        
   LCOR   =        T    correct aug charges                                                         
   LPAW   =        T    paw PP                                                                      
   EAUG   =  400.000                                                                                
   RMAX   =    1.123    core radius for proj-oper                                                   
   RAUG   =    1.200    factor for augmentation sphere                                              
   RDEP   =    1.112    radius for radial grids                                                     
   RDEPT  =    0.926    core radius for aug-charge                                                  
                                                                                                    
   Atomic configuration                                                                             
    2 entries                                                                                       
     n  l   j            E        occ.                                                              
     1  0  0.50        -6.4927   1.0000                                                             
     2  1  0.50        -3.4015   0.0000                                                             
   Description                                                                                      
     l       E           TYP  RCUT    TYP  RCUT                                                     
     0     -6.4927494     23  1.100                                                                 
     0      6.8029130     23  1.100                                                                 
     1     -4.0817478     23  1.100                                                                 
  local pseudopotential read in
  atomic valenz-charges read in
  non local Contribution for L=           0  read in
    real space projection operators read in
  non local Contribution for L=           0  read in
    real space projection operators read in
  non local Contribution for L=           1  read in
    real space projection operators read in
    PAW grid and wavefunctions read in

   number of l-projection  operators is LMAX  =           3
   number of lm-projection operators is LMMAX =           5

 POTCAR:    PAW_PBE Si 05Jan2001                  
   SHA256 =  79d9987ad8750f624c4d6acb2a16d13abf6a777132adc04dc6c8399be72b42bb Si/POTCAR             
   COPYR  = (c) Copyright 05Jan2001 Georg Kresse                                                    
   COPYR  = This file is part of the software VASP. Any use, copying, and all other rights are regul
   COPYR  = If you do not have a valid VASP license, you may not use, copy or distribute this file. 
   VRHFIN =Si: s2p2                                                                                 
   LEXCH  = PE                                                                                      
   EATOM  =   103.0669 eV,    7.5752 Ry                                                             
                                                                                                    
   TITEL  = PAW_PBE Si 05Jan2001                                                                    
   LULTRA =        F    use ultrasoft PP ?                                                          
   IUNSCR =        1    unscreen: 0-lin 1-nonlin 2-no                                               
   RPACOR =    1.500    partial core radius                                                         
   POMASS =   28.085; ZVAL   =    4.000    mass and valenz                                          
   RCORE  =    1.900    outmost cutoff radius                                                       
   RWIGS  =    2.480; RWIGS  =    1.312    wigner-seitz radius (au A)                               
   ENMAX  =  245.345; ENMIN  =  184.009 eV                                                          
   ICORE  =        2    local potential                                                             
   LCOR   =        T    correct aug charges                                                         
   LPAW   =        T    paw PP                                                                      
   EAUG   =  322.069                                                                                
   DEXC   =    0.000                                                                                
   RMAX   =    1.950    core radius for proj-oper                                                   
   RAUG   =    1.300    factor for augmentation sphere                                              
   RDEP   =    1.993    radius for radial grids                                                     
   RDEPT  =    1.837    core radius for aug-charge                                                  
                                                                                                    
   Atomic configuration                                                                             
    6 entries                                                                                       
     n  l   j            E        occ.                                                              
     1  0  0.50     -1785.8828   2.0000                                                             
     2  0  0.50      -139.4969   2.0000                                                             
     2  1  1.50       -95.5546   6.0000                                                             
     3  0  0.50       -10.8127   2.0000                                                             
     3  1  0.50        -4.0811   2.0000                                                             
     3  2  1.50        -4.0817   0.0000                                                             
   Description                                                                                      
     l       E           TYP  RCUT    TYP  RCUT                                                     
     0    -10.8127223     23  1.900                                                                 
     0     -7.6451159     23  1.900                                                                 
     1     -4.0811372     23  1.900                                                                 
     1      2.4879257     23  1.900                                                                 
     2     -4.0817478      7  1.900                                                                 
  local pseudopotential read in
  partial core-charges read in
  partial kinetic energy density read in
  atomic valenz-charges read in
  non local Contribution for L=           0  read in
    real space projection operators read in
  non local Contribution for L=           0  read in
    real space projection operators read in
  non local Contribution for L=           1  read in
    real space projection operators read in
  non local Contribution for L=           1  read in
    real space projection operators read in
    PAW grid and wavefunctions read in

   number of l-projection  operators is LMAX  =           4
   number of lm-projection operators is LMMAX =           8

 -----------------------------------------------------------------------------
|                                                                             |
|               ----> ADVICE to this user running VASP <----                  |
|                                                                             |
|     You have a (more or less) 'large supercell' and for larger cells it     |
|     might be more efficient to use real-space projection operators.         |
|     Therefore, try LREAL= Auto in the INCAR file.                           |
|     Mind: For very accurate calculation, you might also keep the            |
|     reciprocal projection scheme (i.e. LREAL=.FALSE.).                      |
|                                                                             |
 -----------------------------------------------------------------------------

 -----------------------------------------------------------------------------
|                                                                             |
|               ----> ADVICE to this user running VASP <----                  |
|                                                                             |
|     You enforced a specific xc type in the INCAR file but a different       |
|     type was found in the POTCAR file.                                      |
|     I HOPE YOU KNOW WHAT YOU ARE DOING!                                     |
|                                                                             |
 -----------------------------------------------------------------------------

  PAW_PBE H 15Jun2001                   :
 energy of atom  1       EATOM=  -12.4884
 kinetic energy error for atom=    0.0000 (will be added to EATOM!!)
  PAW_PBE Si 05Jan2001                  :
 energy of atom  2       EATOM= -103.0669
 kinetic energy error for atom=    0.0001 (will be added to EATOM!!)


 POSCAR:  H Si
  positions in cartesian coordinates
  No initial velocities read in


 exchange-correlation table for SCAN
   RHO(1)=    0.500       N(1)  =     2000
   RHO(2)=  100.500       N(2)  =     4000



--------------------------------------------------------------------------------------------------------


 ion  position               nearest neighbor table
   1  0.128  0.551  0.225-  72 1.55
   2  0.024  0.451  0.439-  66 1.50
   3  0.717  0.565  0.012-  61 1.47
   4  0.187  0.540  0.019-  72 1.48
   5  0.999  0.625  0.949-  48 1.51
   6  0.827  0.702  0.842-  93 1.72
   7  0.887  0.414  0.009-  80 1.48
   8  0.948  0.849  0.054-  46 1.66  42 1.94
   9  0.955  0.767  0.261-  46 1.40
  10  0.090  0.375  0.139-  23 1.46
  11  0.882  0.735  0.418-  29 1.54
  12  0.097  0.302  0.327-  40 1.58
  13  0.804  0.548  0.268-  73 1.45
  14  0.479  0.417  0.943-  21 2.35  88 2.39  86 2.43  51 2.59
  15  0.115  0.632  0.594-  57 2.28  17 2.32  70 2.42  66 2.44
  16  0.421  0.277  0.618-  64 2.28  25 2.40  55 2.41  51 2.47
  17  0.241  0.693  0.492-  15 2.32  99 2.38  28 2.39  81 2.39
  18  0.573  0.866  0.011- 107 2.20  95 2.23  27 2.26
  19  0.208  0.763  0.865-  70 2.38  50 2.41  92 2.43 104 2.53
  20  0.540  0.643  0.099-  61 2.23  86 2.37 107 2.45  68 2.63
  21  0.595  0.490  0.830-  61 2.29  14 2.35  96 2.38  47 2.40
  22  0.325  0.330  0.251-  76 2.31  49 2.35  79 2.44  55 2.63
  23  0.098  0.302  0.047-  10 1.46 106 2.34  49 2.38  37 2.48
  24  0.925  0.978  0.325-  78 2.25  35 2.27  30 2.31  46 2.41
  25  0.465  0.126  0.554-  53 2.37  63 2.37  16 2.40 103 2.47
  26  0.990  0.480  0.732-  48 2.28  66 2.30  37 2.43 105 2.54
  27  0.552  0.904  0.212-  18 2.26 101 2.34  97 2.35  32 2.37
  28  0.347  0.691  0.660-  50 2.36  17 2.39  58 2.45  70 2.48
  29  0.883  0.777  0.548-  11 1.54  57 2.36  35 2.54  38 2.55
  30  0.948  0.134  0.313-  24 2.31  40 2.40  39 2.47 106 2.69
  31  0.619  0.818  0.531-  56 2.28  38 2.32 101 2.36  85 2.39
  32  0.565  0.063  0.170-  91 2.32  27 2.37  77 2.39  63 2.42
  33  0.769  0.100  0.955-  60 2.21  74 2.33  45 2.36  91 2.40
  34  0.138  0.859  0.223-  43 2.33  99 2.33  46 2.38 104 2.44
  35  0.943  0.940  0.526-  24 2.27  54 2.39  29 2.54  65 2.54
  36  0.214  0.121  0.231-  49 2.23  43 2.27  62 2.32  40 2.46
  37  0.089  0.374  0.841-  26 2.43  23 2.48 100 2.50  89 2.50
  38  0.726  0.715  0.607-  31 2.32  93 2.36 108 2.53  29 2.55
  39  0.818  0.208  0.418-  94 2.33  83 2.36  30 2.47 109 2.47
  40  0.096  0.196  0.360-  12 1.58  30 2.40  36 2.46  98 2.46
  41  0.396  0.063  0.930-  59 2.29  77 2.29 111 2.38  69 2.45
  42  0.980  0.917  0.905-   8 1.94  75 2.37  92 2.38  45 2.42
  43  0.175  0.995  0.122-  69 2.23  36 2.27  75 2.28  34 2.33  62 3.10
  44  0.156  0.112  0.839-  75 2.35  67 2.40 100 2.41  59 2.45
  45  0.825  0.966  0.857-  54 2.34  33 2.36  42 2.42  95 2.45
  46  0.976  0.850  0.202-   9 1.40   8 1.66  34 2.38  24 2.41
  47  0.581  0.498  0.609-  64 2.31  21 2.40 108 2.44  58 2.52
  48  0.958  0.617  0.822-   5 1.51  57 2.22  26 2.28
  49  0.242  0.241  0.109-  36 2.23  22 2.35  23 2.38  59 2.48
  50  0.363  0.804  0.815-  28 2.36 111 2.37 107 2.40  19 2.41
  51  0.357  0.328  0.817-  59 2.46  16 2.47  89 2.51  14 2.59
  52  0.333  0.925  0.439-  62 2.25  53 2.29  99 2.32  97 2.37
  53  0.359  0.011  0.613-  67 2.29  52 2.29  25 2.37 111 2.37
  54  0.864  0.037  0.670- 109 2.26  45 2.34  90 2.38  35 2.39
  55  0.289  0.297  0.485-  16 2.41  87 2.43  98 2.45  22 2.63
  56  0.531  0.714  0.429-  31 2.28  68 2.31  58 2.32  97 2.49
  57  0.999  0.716  0.677-  48 2.22  15 2.28  92 2.36  29 2.36
  58  0.453  0.599  0.536-  56 2.32  81 2.35  28 2.45  47 2.52
  59  0.298  0.185  0.907-  41 2.29  44 2.45  51 2.46  49 2.48
  60  0.882  0.200  0.941-  33 2.21 106 2.28  90 2.38  80 2.39
  61  0.641  0.612  0.949-   3 1.47  20 2.23  21 2.29  93 2.43
  62  0.339  0.036  0.294-  52 2.25  36 2.32  63 2.37  69 2.46  43 3.10
  63  0.472  0.125  0.335-  76 2.30  25 2.37  62 2.37  32 2.42
  64  0.560  0.342  0.580-  16 2.28  47 2.31  71 2.34  84 2.65
  65  0.113  0.923  0.573-  99 2.38  92 2.48  67 2.53  35 2.54
  66  0.077  0.472  0.555-   2 1.50  87 2.24  26 2.30  15 2.44
  67  0.210  0.057  0.644-  98 2.23  53 2.29  44 2.40  65 2.53
  68  0.642  0.710  0.278-  56 2.31 101 2.38  73 2.42  20 2.63
  69  0.323  0.967  0.088-  43 2.23  41 2.45  62 2.46  82 2.46
  70  0.217  0.617  0.769-  19 2.38  15 2.42  28 2.48  89 2.53
  71  0.596  0.325  0.371- 102 2.28  76 2.31  64 2.34  83 2.42
  72  0.210  0.577  0.142-   4 1.48   1 1.55  79 2.29 104 2.43
  73  0.713  0.563  0.318-  13 1.45 102 2.34 108 2.35  68 2.42
  74  0.648  0.136  0.824-  33 2.33 103 2.40  84 2.42  77 2.47
  75  0.063  0.042  0.989-  43 2.28  44 2.35  42 2.37 106 2.44
  76  0.472  0.272  0.259-  63 2.30  71 2.31  22 2.31  88 2.37
  77  0.527  0.140  0.983-  88 2.28  41 2.29  32 2.39  74 2.47
  78  0.772  0.994  0.324-  91 2.24  24 2.25 101 2.36 109 2.43
  79  0.326  0.496  0.233-  72 2.29  86 2.34  81 2.34  22 2.44
  80  0.816  0.349  0.969-   7 1.48  96 2.21 110 2.35  60 2.39
  81  0.317  0.554  0.435-  79 2.34  58 2.35  17 2.39  87 2.40
  82  0.346  0.803  0.129- 104 2.21 107 2.37  69 2.46  97 2.52
  83  0.700  0.222  0.269- 110 2.35  91 2.36  39 2.36  71 2.42
  84  0.693  0.277  0.723-  96 2.21  94 2.31  74 2.42  64 2.65
  85  0.577  0.914  0.701- 111 2.31 103 2.35  31 2.39  95 2.44
  86  0.469  0.500  0.137-  79 2.34  20 2.37  14 2.43 102 2.60
  87  0.228  0.445  0.548-  66 2.24  89 2.39  81 2.40  55 2.43
  88  0.532  0.287  0.057-  77 2.28  76 2.37  14 2.39 110 2.49
  89  0.236  0.445  0.768-  87 2.39  37 2.50  51 2.51  70 2.53
  90  0.918  0.184  0.727- 100 2.29  54 2.38  60 2.38  94 2.42
  91  0.723  0.081  0.166-  78 2.24  32 2.32  83 2.36  33 2.40
  92  0.080  0.839  0.766-  57 2.36  42 2.38  19 2.43  65 2.48
  93  0.713  0.729  0.824-   6 1.72  95 2.27  38 2.36  61 2.43
  94  0.824  0.287  0.605-  84 2.31  39 2.33  90 2.42 105 2.47  96 3.14
  95  0.682  0.878  0.869-  18 2.23  93 2.27  85 2.44  45 2.45
  96  0.735  0.405  0.815-  84 2.21  80 2.21 105 2.34  21 2.38  94 3.14
  97  0.435  0.832  0.325-  27 2.35  52 2.37  56 2.49  82 2.52
  98  0.171  0.192  0.564-  67 2.23 100 2.37  55 2.45  40 2.46
  99  0.198  0.842  0.421-  52 2.32  34 2.33  65 2.38  17 2.38
 100  0.069  0.226  0.727-  90 2.29  98 2.37  44 2.41  37 2.50
 101  0.676  0.863  0.336-  27 2.34  31 2.36  78 2.36  68 2.38
 102  0.621  0.445  0.240-  71 2.28  73 2.34 110 2.47  86 2.60
 103  0.611  0.064  0.631-  85 2.35  74 2.40 109 2.46  25 2.47
 104  0.210  0.741  0.097-  82 2.21  72 2.43  34 2.44  19 2.53
 105  0.829  0.453  0.652-  96 2.34 108 2.40  94 2.47  26 2.54
 106  0.997  0.180  0.081-  60 2.28  23 2.34  75 2.44  30 2.69
 107  0.462  0.766  0.984-  18 2.20  82 2.37  50 2.40  20 2.45
 108  0.730  0.550  0.533-  73 2.35 105 2.40  47 2.44  38 2.53
 109  0.759  0.070  0.523-  54 2.26  78 2.43 103 2.46  39 2.47
 110  0.693  0.329  0.107-  83 2.35  80 2.35 102 2.47  88 2.49
 111  0.435  0.947  0.785-  85 2.31  50 2.37  53 2.37  41 2.38

  LATTYP: Found a simple tetragonal cell.
 ALAT       =    14.5906239619
 C/A-ratio  =     0.7424321458
  
  Lattice vectors:
  
 A1 = (  14.5906239619,   0.0000000000,   0.0000000000)
 A2 = (   0.0000000000,  14.5906239619,   0.0000000000)
 A3 = (   0.0000000000,   0.0000000000,  10.8325482571)


Analysis of symmetry for initial positions (statically):
=====================================================================
 Subroutine PRICEL returns:
 Original cell was already a primitive cell.
 

 Routine SETGRP: Setting up the symmetry group for a 
 simple tetragonal supercell.


 Subroutine GETGRP returns: Found  1 space group operations
 (whereof  1 operations were pure point group operations)
 out of a pool of 16 trial point group operations.


The static configuration has the point symmetry C_1 .


Analysis of symmetry for dynamics (positions and initial velocities):
=====================================================================
 Subroutine PRICEL returns:
 Original cell was already a primitive cell.
 

 Routine SETGRP: Setting up the symmetry group for a 
 simple tetragonal supercell.


 Subroutine GETGRP returns: Found  1 space group operations
 (whereof  1 operations were pure point group operations)
 out of a pool of 16 trial point group operations.


The dynamic configuration has the point symmetry C_1 .


 Subroutine INISYM returns: Found  1 space group operations
 (whereof  1 operations are pure point group operations),
 and found     1 'primitive' translations


----------------------------------------------------------------------------------------

                                     Primitive cell                                     

  volume of cell :    2306.1012

  direct lattice vectors                    reciprocal lattice vectors
    14.590623962  0.000000000  0.000000000     0.068537165  0.000000000  0.000000000
     0.000000000 14.590623962  0.000000000     0.000000000  0.068537165  0.000000000
     0.000000000  0.000000000 10.832548257     0.000000000  0.000000000  0.092314382

  length of vectors
    14.590623962 14.590623962 10.832548257     0.068537165  0.068537165  0.092314382

  position of ions in fractional coordinates (direct lattice)
     0.127560001  0.550519979  0.225051386
     0.023994450  0.450799090  0.438949348
     0.716905598  0.565176652  0.012047765
     0.187454629  0.539929616  0.018851612
     0.999189466  0.625060314  0.949305718
     0.826619892  0.701847983  0.842362276
     0.887090232  0.413882917  0.009143915
     0.948204822  0.849127497  0.053619886
     0.955147637  0.767095364  0.260894291
     0.089593153  0.375169014  0.138566657
     0.882100727  0.734697846  0.418036448
     0.097002020  0.302104284  0.327452961
     0.804482387  0.548289094  0.267776328
     0.479167308  0.416622347  0.942899100
     0.115313780  0.632102508  0.594093822
     0.420770216  0.277111521  0.617574909
     0.240949257  0.693191739  0.492012579
     0.573028955  0.866097299  0.011396580
     0.207562062  0.762839206  0.865460257
     0.540083825  0.643028703  0.098714538
     0.595385093  0.489893374  0.829689357
     0.324576935  0.329731615  0.251233591
     0.098203477  0.301551189  0.047495011
     0.925395654  0.977895122  0.324717686
     0.464544903  0.126022027  0.553568732
     0.989717783  0.479831433  0.731669023
     0.552251228  0.904121718  0.211816273
     0.346884411  0.690964281  0.660248155
     0.883224736  0.777115498  0.548334506
     0.948122578  0.134149164  0.312573729
     0.618767917  0.817956794  0.530856624
     0.565294536  0.062950495  0.170425274
     0.769267992  0.099557086  0.955213838
     0.138059894  0.859127069  0.223353725
     0.942694434  0.939582847  0.526458767
     0.213504235  0.121343680  0.231336149
     0.089267601  0.373615961  0.840741235
     0.726034749  0.714732970  0.606923675
     0.817963648  0.208333791  0.417796431
     0.096462633  0.196212993  0.360045477
     0.395693153  0.062847141  0.929587366
     0.979670235  0.916732556  0.905449001
     0.174832139  0.994755265  0.121648200
     0.155846659  0.112379018  0.839447911
     0.825317686  0.966209535  0.856777166
     0.975763616  0.849867698  0.202200807
     0.581109487  0.497664803  0.609364467
     0.958039905  0.617180596  0.822333747
     0.242053391  0.240579841  0.109054672
     0.363100304  0.803502306  0.815148919
     0.356843546  0.328189529  0.817101368
     0.332678028  0.925436776  0.438781336
     0.358530246  0.011274432  0.612644397
     0.864102867  0.036720979  0.669627296
     0.288979417  0.296621310  0.485407484
     0.530607191  0.713608961  0.429460353
     0.998972052  0.715918663  0.676976444
     0.452568034  0.599362990  0.535741901
     0.298425209  0.184791275  0.906977727
     0.882066458  0.200360862  0.940600472
     0.640655261  0.611649647  0.949028775
     0.338860765  0.035902234  0.294487495
     0.471615883  0.125169424  0.334870421
     0.559963030  0.342130673  0.580224510
     0.112534598  0.923373807  0.572895671
     0.076505296  0.472275896  0.554663580
     0.210045849  0.056673587  0.644045135
     0.641782697  0.709654366  0.277956759
     0.323364512  0.967148495  0.088319754
     0.217164804  0.616922211  0.769142200
     0.595744227  0.325395954  0.370741944
     0.209693568  0.577118568  0.142013676
     0.713327958  0.562864208  0.317675021
     0.647885246  0.136187459  0.824032332
     0.062739743  0.041928844  0.988899356
     0.471940064  0.272185755  0.259048927
     0.526814345  0.140079684  0.983120476
     0.771735330  0.993507888  0.323810235
     0.325908612  0.496096673  0.233466765
     0.815564847  0.348510113  0.968737895
     0.317107069  0.554240177  0.434899517
     0.346425897  0.802748397  0.128974270
     0.700415556  0.221808883  0.268777939
     0.692664003  0.277212271  0.722709912
     0.577425614  0.914347463  0.700729858
     0.469352786  0.499777118  0.136583744
     0.227506377  0.444614981  0.547951402
     0.531986159  0.286666287  0.056666537
     0.235875450  0.444506007  0.768080585
     0.917767467  0.184430084  0.726903755
     0.723142480  0.080668928  0.166311745
     0.079516819  0.839134778  0.766297071
     0.712663148  0.729022969  0.823535680
     0.824049748  0.287051466  0.605246323
     0.682316947  0.878063888  0.868671874
     0.734643016  0.405466553  0.814567338
     0.434925197  0.831849277  0.324833079
     0.171185277  0.191873220  0.563786088
     0.197796202  0.841800874  0.421392076
     0.069122472  0.225510575  0.727394867
     0.676474154  0.862930882  0.336349298
     0.620926153  0.445463471  0.239894616
     0.610983466  0.063505646  0.631114659
     0.210288471  0.740612604  0.096945795
     0.828559494  0.452730467  0.651871548
     0.996756550  0.179799028  0.081143696
     0.462366107  0.765608108  0.984246712
     0.729557559  0.550027882  0.532823844
     0.759117638  0.070303368  0.522530790
     0.693267130  0.328530844  0.106930518
     0.435380284  0.946998568  0.784894726

  ion indices of the primitive-cell ions
   primitive index   ion index
                 1           1
                 2           2
                 3           3
                 4           4
                 5           5
                 6           6
                 7           7
                 8           8
                 9           9
                10          10
                11          11
                12          12
                13          13
                14          14
                15          15
                16          16
                17          17
                18          18
                19          19
                20          20
                21          21
                22          22
                23          23
                24          24
                25          25
                26          26
                27          27
                28          28
                29          29
                30          30
                31          31
                32          32
                33          33
                34          34
                35          35
                36          36
                37          37
                38          38
                39          39
                40          40
                41          41
                42          42
                43          43
                44          44
                45          45
                46          46
                47          47
                48          48
                49          49
                50          50
                51          51
                52          52
                53          53
                54          54
                55          55
                56          56
                57          57
                58          58
                59          59
                60          60
                61          61
                62          62
                63          63
                64          64
                65          65
                66          66
                67          67
                68          68
                69          69
                70          70
                71          71
                72          72
                73          73
                74          74
                75          75
                76          76
                77          77
                78          78
                79          79
                80          80
                81          81
                82          82
                83          83
                84          84
                85          85
                86          86
                87          87
                88          88
                89          89
                90          90
                91          91
                92          92
                93          93
                94          94
                95          95
                96          96
                97          97
                98          98
                99          99
               100         100
               101         101
               102         102
               103         103
               104         104
               105         105
               106         106
               107         107
               108         108
               109         109
               110         110
               111         111

----------------------------------------------------------------------------------------


 -----------------------------------------------------------------------------
|                                                                             |
|           W    W    AA    RRRRR   N    N  II  N    N   GGGG   !!!           |
|           W    W   A  A   R    R  NN   N  II  NN   N  G    G  !!!           |
|           W    W  A    A  R    R  N N  N  II  N N  N  G       !!!           |
|           W WW W  AAAAAA  RRRRR   N  N N  II  N  N N  G  GGG   !            |
|           WW  WW  A    A  R   R   N   NN  II  N   NN  G    G                |
|           W    W  A    A  R    R  N    N  II  N    N   GGGG   !!!           |
|                                                                             |
|     The requested file  could not be found or opened for reading            |
|     k-point information. Automatic k-point generation is used as a          |
|     fallback, which may lead to unwanted results.                           |
|                                                                             |
 -----------------------------------------------------------------------------



Automatic generation of k-mesh.
 Grid dimensions derived from KSPACING:
 generate k-points for:    2    2    3

 Generating k-lattice:

  Cartesian coordinates                     Fractional coordinates (reciprocal lattice)
     0.034268582  0.000000000  0.000000000     0.500000000  0.000000000  0.000000000
     0.000000000  0.034268582  0.000000000     0.000000000  0.500000000  0.000000000
     0.000000000  0.000000000  0.030771461     0.000000000  0.000000000  0.333333333

  Length of vectors
     0.034268582  0.034268582  0.030771461

  Shift w.r.t. Gamma in fractional coordinates (k-lattice)
     0.000000000  0.000000000  0.000000000

 
 Subroutine IBZKPT returns following result:
 ===========================================
 
 Found      8 irreducible k-points:
 
 Following reciprocal coordinates:
            Coordinates               Weight
  0.000000  0.000000  0.000000      1.000000
  0.500000  0.000000  0.000000      1.000000
  0.000000  0.500000  0.000000      1.000000
  0.500000  0.500000  0.000000      1.000000
  0.000000  0.000000  0.333333      2.000000
  0.500000  0.000000  0.333333      2.000000
  0.000000  0.500000  0.333333      2.000000
  0.500000  0.500000  0.333333      2.000000
 
 Following cartesian coordinates:
            Coordinates               Weight
  0.000000  0.000000  0.000000      1.000000
  0.034269  0.000000  0.000000      1.000000
  0.000000  0.034269  0.000000      1.000000
  0.034269  0.034269  0.000000      1.000000
  0.000000  0.000000  0.030771      2.000000
  0.034269  0.000000  0.030771      2.000000
  0.000000  0.034269  0.030771      2.000000
  0.034269  0.034269  0.030771      2.000000
 


--------------------------------------------------------------------------------------------------------




 Dimension of arrays:
   k-points           NKPTS =      8   k-points in BZ     NKDIM =      8   number of bands    NBANDS=    264
   number of dos      NEDOS =   2000   number of ions     NIONS =    111
   non local maximal  LDIM  =      4   non local SUM 2l+1 LMDIM =      8
   total plane-waves  NPLWV = ******
   max r-space proj   IRMAX =      1   max aug-charges    IRDMAX= 412630
   dimension x,y,z NGX =   168 NGY =  168 NGZ =  126
   dimension x,y,z NGXF=   336 NGYF=  336 NGZF=  252
   support grid    NGXF=   672 NGYF=  672 NGZF=  504
   ions per type =              13  98
   NGX,Y,Z   is equivalent  to a cutoff of  19.14, 19.14, 19.34 a.u.
   NGXF,Y,Z  is equivalent  to a cutoff of  38.28, 38.28, 38.67 a.u.

 SYSTEM =  a-Si SPC                                
 POSCAR =   H Si                                   

 Startparameter for this run:
   NWRITE =      2    write-flag & timer
   PREC   = accura    normal or accurate (medium, high low for compatibility)
   ISTART =      1    job   : 0-new  1-cont  2-samecut
   ICHARG =      1    charge: 1-file 2-atom 10-const
   ISPIN  =      1    spin polarized calculation?
   LNONCOLLINEAR =      F non collinear calculations
   LSORBIT =      F    spin-orbit coupling
   INIWAV =      1    electr: 0-lowe 1-rand  2-diag
   LASPH  =      T    aspherical Exc in radial PAW
 Electronic Relaxation 1
   ENCUT  = 1200.0 eV  88.20 Ry    9.39 a.u.  41.21 41.21 30.60*2*pi/ulx,y,z
   ENINI  = 1200.0     initial cutoff
   ENAUG  =  400.0 eV  augmentation charge cutoff
   NELM   =    150;   NELMIN=  2; NELMDL=  0     # of ELM steps 
   EDIFF  = 0.1E-05   stopping-criterion for ELM
   LREAL  =      F    real-space projection
   NLSPLINE    = F    spline interpolate recip. space projectors
   LCOMPAT=      F    compatible to vasp.4.4
   GGA_COMPAT  = T    GGA compatible to vasp.4.4-vasp.4.6
   LMAXPAW     = -100 max onsite density
   LMAXMIX     =    2 max onsite mixed and CHGCAR
   VOSKOWN=      0    Vosko Wilk Nusair interpolation
   ROPT   =    0.00000   0.00000
 Ionic relaxation
   EDIFFG = -.1E-01   stopping-criterion for IOM
   NSW    =      0    number of steps for IOM
   NBLOCK =      1;   KBLOCK =      1    inner block; outer block 
   IBRION =     -1    ionic relax: 0-MD 1-quasi-New 2-CG
   NFREE  =      0    steps in history (QN), initial steepest desc. (CG)
   ISIF   =      2    stress and relaxation
   IWAVPR =     10    prediction:  0-non 1-charg 2-wave 3-comb
   ISYM   =      1    0-nonsym 1-usesym 2-fastsym
   LCORR  =      T    Harris-Foulkes like correction to forces

   POTIM  = 0.5000    time-step for ionic-motion
   TEIN   =    0.0    initial temperature
   TEBEG  =    0.0;   TEEND  =   0.0 temperature during run
   SMASS  =  -3.00    Nose mass-parameter (am)
   estimated Nose-frequenzy (Omega)   =  0.10E-29 period in steps = 0.13E+47 mass=  -0.487E-26a.u.
   SCALEE = 1.0000    scale energy and forces
   NPACO  =    256;   APACO  = 10.0  distance and # of slots for P.C.
   PSTRESS=    0.0 pullay stress

  Mass of Ions in am
   POMASS =   1.00 28.09
  Ionic Valenz
   ZVAL   =   1.00  4.00
  Atomic Wigner-Seitz radii
   RWIGS  =  -1.00 -1.00
  virtual crystal weights 
   VCA    =   1.00  1.00
   NELECT =     405.0000    total number of electrons
   NUPDOWN=      -1.0000    fix difference up-down

 DOS related values:
   EMIN   =  10.00;   EMAX   =-10.00  energy-range for DOS
   EFERMI =   0.00;   METHOD = LEGACY      
   ISMEAR =     0;   SIGMA  =   0.10  broadening in eV -4-tet -1-fermi 0-gaus
   EFERMI_NEDOS =   21; number of points for ismear=-14 and -15

 Electronic relaxation 2 (details)
   IALGO  =     38    algorithm
   LDIAG  =      F    sub-space diagonalisation (order eigenvalues)
   LSUBROT=      F    optimize rotation matrix (better conditioning)
   TURBO    =      0    0=normal 1=particle mesh
   IRESTART =      0    0=no restart 2=restart with 2 vectors
   NREBOOT  =      0    no. of reboots
   NMIN     =      0    reboot dimension
   EREF     =   0.00    reference energy to select bands
   IMIX   =      4    mixing-type and parameters
     AMIX     =   0.40;   BMIX     =  1.00
     AMIX_MAG =   1.60;   BMIX_MAG =  1.00
     AMIN     =   0.10
     WC   =   100.;   INIMIX=   1;  MIXPRE=   1;  MAXMIX= -45

 Intra band minimization:
   WEIMIN = 0.0000     energy-eigenvalue tresh-hold
   EBREAK =  0.95E-09  absolut break condition
   DEPER  =   0.30     relativ break condition  

   TIME   =   0.40     timestep for ELM

  volume/ion in A,a.u.               =      20.78       140.20
  Fermi-wavevector in a.u.,A,eV,Ry     =   0.916784  1.732471 11.435602  0.840493
  Thomas-Fermi vector in A             =   2.041679

 Write flags
   LWAVE        =      F    write WAVECAR
   LDOWNSAMPLE  =      F    k-point downsampling of WAVECAR
   LCHARG       =      F    write CHGCAR
   LVTOT        =      F    write LOCPOT, total local potential
   LVHAR        =      F    write LOCPOT, Hartree potential only
   WRT_POTENTIAL= false  ! write potential to hdf5 file
   LELF         =      F    write electronic localiz. function (ELF)
   LORBIT       =     11    0 simple, 1 ext, 2 COOP (PROOUT), +10 PAW based schemes


 Python interface
   PLUGINS active      =      F    recompile with -DPLUGINS to activate

 Dipole corrections
   LMONO      =      F    monopole corrections only (constant potential shift)
   LDIPOL     =      F    correct potential (dipole corrections)
   IDIPOL     =      0    1-x, 2-y, 3-z, 4-all directions 
   EPSILON    =  1.0000000 bulk dielectric constant
   LVACPOTAV  =      F  vacuum potentials using an averaging scheme for the charge density
   VACPOTFLAT =  0.1000000 required flatness to determine vacuum potential

Coulomb truncation method
  LTRUNCATE          =      F  Coulomb kernel truncation to be used
  IDIMENSIONALITY    =      3  Dimensionality of cutoff (0 molecules / 2 surfaces)
  ISURFACE           =     -1  Direction of surface normal
  LCOARSEN           =      F  Coarsen the charge grid before padding, preferred


 Exchange correlation treatment:
   METAGGA = SCAN    functional components
   XC_C    = 1    coefficients multiplying the functional components
   LIBXC   =     F    Libxc                    
   VOSKOWN =     0    Vosko Wilk Nusair interpolation
   LHFCALC =     F    Hartree Fock is set to
   LHFONE  =     F    Hartree Fock one center treatment
   AEXX    =    0.0000 exact exchange contribution

 Parameters of functionals:
   SCAN:
     P1 =  0.000000E+00
     P2 =  0.000000E+00
     P3 =  0.000000E+00

 Accuracy and mixing parameters for tau-dependent meta-GGA functionals:
   LMAXTAU = 6
   LMIXTAU = T

 Van der Waals corrections
   IVDW    =     0    specifies the selected vdW correction

 Linear response parameters
   LEPSILON=     F    determine dielectric tensor
   LRPA    =     F    only Hartree local field effects (RPA)
   LNABLA  =     F    use nabla operator in PAW spheres
   LVEL    =     F    velocity operator in full k-point grid
   CSHIFT  =0.1000    complex shift for real part using Kramers Kronig
   OMEGAMAX=  -1.0    maximum frequency
   DEG_THRESHOLD= 0.2000000E-02 threshold for treating states as degnerate
   RTIME   =   -0.100 relaxation time in fs
  (WPLASMAI=    0.000 imaginary part of plasma frequency in eV, 0.658/RTIME)
   DFIELD  = 0.0000000 0.0000000 0.0000000 field for delta impulse in time

  Optional k-point grid parameters
   LKPOINTS_OPT  =     F    use optional k-point grid
   KPOINTS_OPT_MODE=     1    mode for optional k-point grid

 Orbital magnetization related:
   ORBITALMAG=     F  switch on orbital magnetization
   LCHIMAG   =     F  perturbation theory with respect to B field
   DQ        =  0.001000  dq finite difference perturbation B field
   LLRAUG    =     F  two centre corrections for induced B field
   LBONE     =     F  B-component reconstruction in AE one-centre
   LVGVCALC  =     T  calculate vGv susceptibility
   LVGVAPPL  =     F  apply vGv susceptibility instead of pGv for G=0

 Random number generation:
   RANDOM_GENERATOR = DEFAULT
   PCG_SEED         = not used


--------------------------------------------------------------------------------------------------------


 Static calculation
 charge density and potential will be updated during run
 non-spin polarized calculation
 Variant of blocked Davidson
 perform Loewdin sub-space diagonalisation
    ordering is kept fixed
    before iterative eigenvector-optimisation
 modified Broyden-mixing scheme, WC =      100.0
 initial mixing is a Kerker type mixing with AMIX =  0.4000 and BMIX =      1.0000
 Hartree-type preconditioning will be used
 using additional bands           61
 reciprocal scheme for non local part
 use partial core corrections
 calculate Harris-corrections to forces   (improved forces if not selfconsistent)
 use gradient corrections 
 use of overlap-Matrix (Vanderbilt PP)
 Gauss-broadening in eV      SIGMA  =   0.10


--------------------------------------------------------------------------------------------------------


  energy-cutoff  :     1200.00
  volume of cell :     2306.10
      direct lattice vectors                 reciprocal lattice vectors
    14.590623962  0.000000000  0.000000000     0.068537165  0.000000000  0.000000000
     0.000000000 14.590623962  0.000000000     0.000000000  0.068537165  0.000000000
     0.000000000  0.000000000 10.832548257     0.000000000  0.000000000  0.092314382

  length of vectors
    14.590623962 14.590623962 10.832548257     0.068537165  0.068537165  0.092314382



 old parameters found on file WAVECAR:
  energy-cutoff  :     1200.00
  volume of cell :     2306.10
      direct lattice vectors                 reciprocal lattice vectors
    14.590623962  0.000000000  0.000000000     0.068537165  0.000000000  0.000000000
     0.000000000 14.590623962  0.000000000     0.000000000  0.068537165  0.000000000
     0.000000000  0.000000000 10.832548257     0.000000000  0.000000000  0.092314382

  length of vectors


 k-points in units of 2pi/SCALE and weight: read from INCAR                         
   0.00000000  0.00000000  0.00000000       0.083
   0.03426858  0.00000000  0.00000000       0.083
   0.00000000  0.03426858  0.00000000       0.083
   0.03426858  0.03426858  0.00000000       0.083
   0.00000000  0.00000000  0.03077146       0.167
   0.03426858  0.00000000  0.03077146       0.167
   0.00000000  0.03426858  0.03077146       0.167
   0.03426858  0.03426858  0.03077146       0.167

 k-points in reciprocal lattice and weights: read from INCAR                         
   0.00000000  0.00000000  0.00000000       0.083
   0.50000000  0.00000000  0.00000000       0.083
   0.00000000  0.50000000  0.00000000       0.083
   0.50000000  0.50000000  0.00000000       0.083
   0.00000000  0.00000000  0.33333333       0.167
   0.50000000  0.00000000  0.33333333       0.167
   0.00000000  0.50000000  0.33333333       0.167
   0.50000000  0.50000000  0.33333333       0.167

 position of ions in fractional coordinates (direct lattice) 
   0.12756000  0.55051998  0.22505139
   0.02399445  0.45079909  0.43894935
   0.71690560  0.56517665  0.01204777
   0.18745463  0.53992962  0.01885161
   0.99918947  0.62506031  0.94930572
   0.82661989  0.70184798  0.84236228
   0.88709023  0.41388292  0.00914391
   0.94820482  0.84912750  0.05361989
   0.95514764  0.76709536  0.26089429
   0.08959315  0.37516901  0.13856666
   0.88210073  0.73469785  0.41803645
   0.09700202  0.30210428  0.32745296
   0.80448239  0.54828909  0.26777633
   0.47916731  0.41662235  0.94289910
   0.11531378  0.63210251  0.59409382
   0.42077022  0.27711152  0.61757491
   0.24094926  0.69319174  0.49201258
   0.57302895  0.86609730  0.01139658
   0.20756206  0.76283921  0.86546026
   0.54008383  0.64302870  0.09871454
   0.59538509  0.48989337  0.82968936
   0.32457693  0.32973161  0.25123359
   0.09820348  0.30155119  0.04749501
   0.92539565  0.97789512  0.32471769
   0.46454490  0.12602203  0.55356873
   0.98971778  0.47983143  0.73166902
   0.55225123  0.90412172  0.21181627
   0.34688441  0.69096428  0.66024815
   0.88322474  0.77711550  0.54833451
   0.94812258  0.13414916  0.31257373
   0.61876792  0.81795679  0.53085662
   0.56529454  0.06295049  0.17042527
   0.76926799  0.09955709  0.95521384
   0.13805989  0.85912707  0.22335372
   0.94269443  0.93958285  0.52645877
   0.21350423  0.12134368  0.23133615
   0.08926760  0.37361596  0.84074124
   0.72603475  0.71473297  0.60692368
   0.81796365  0.20833379  0.41779643
   0.09646263  0.19621299  0.36004548
   0.39569315  0.06284714  0.92958737
   0.97967023  0.91673256  0.90544900
   0.17483214  0.99475526  0.12164820
   0.15584666  0.11237902  0.83944791
   0.82531769  0.96620954  0.85677717
   0.97576362  0.84986770  0.20220081
   0.58110949  0.49766480  0.60936447
   0.95803991  0.61718060  0.82233375
   0.24205339  0.24057984  0.10905467
   0.36310030  0.80350231  0.81514892
   0.35684355  0.32818953  0.81710137
   0.33267803  0.92543678  0.43878134
   0.35853025  0.01127443  0.61264440
   0.86410287  0.03672098  0.66962730
   0.28897942  0.29662131  0.48540748
   0.53060719  0.71360896  0.42946035
   0.99897205  0.71591866  0.67697644
   0.45256803  0.59936299  0.53574190
   0.29842521  0.18479127  0.90697773
   0.88206646  0.20036086  0.94060047
   0.64065526  0.61164965  0.94902877
   0.33886077  0.03590223  0.29448749
   0.47161588  0.12516942  0.33487042
   0.55996303  0.34213067  0.58022451
   0.11253460  0.92337381  0.57289567
   0.07650530  0.47227590  0.55466358
   0.21004585  0.05667359  0.64404513
   0.64178270  0.70965437  0.27795676
   0.32336451  0.96714849  0.08831975
   0.21716480  0.61692221  0.76914220
   0.59574423  0.32539595  0.37074194
   0.20969357  0.57711857  0.14201368
   0.71332796  0.56286421  0.31767502
   0.64788525  0.13618746  0.82403233
   0.06273974  0.04192884  0.98889936
   0.47194006  0.27218576  0.25904893
   0.52681434  0.14007968  0.98312048
   0.77173533  0.99350789  0.32381024
   0.32590861  0.49609667  0.23346677
   0.81556485  0.34851011  0.96873790
   0.31710707  0.55424018  0.43489952
   0.34642590  0.80274840  0.12897427
   0.70041556  0.22180888  0.26877794
   0.69266400  0.27721227  0.72270991
   0.57742561  0.91434746  0.70072986
   0.46935279  0.49977712  0.13658374
   0.22750638  0.44461498  0.54795140
   0.53198616  0.28666629  0.05666654
   0.23587545  0.44450601  0.76808058
   0.91776747  0.18443008  0.72690375
   0.72314248  0.08066893  0.16631174
   0.07951682  0.83913478  0.76629707
   0.71266315  0.72902297  0.82353568
   0.82404975  0.28705147  0.60524632
   0.68231695  0.87806389  0.86867187
   0.73464302  0.40546655  0.81456734
   0.43492520  0.83184928  0.32483308
   0.17118528  0.19187322  0.56378609
   0.19779620  0.84180087  0.42139208
   0.06912247  0.22551058  0.72739487
   0.67647415  0.86293088  0.33634930
   0.62092615  0.44546347  0.23989462
   0.61098347  0.06350565  0.63111466
   0.21028847  0.74061260  0.09694579
   0.82855949  0.45273047  0.65187155
   0.99675655  0.17979903  0.08114370
   0.46236611  0.76560811  0.98424671
   0.72955756  0.55002788  0.53282384
   0.75911764  0.07030337  0.52253079
   0.69326713  0.32853084  0.10693052
   0.43538028  0.94699857  0.78489473

 position of ions in cartesian coordinates  (Angst):
   1.86118000  8.03243000  2.43788000
   0.35009400  6.57744000  4.75494000
  10.46010000  8.24628000  0.13050800
   2.73508000  7.87791000  0.20421100
  14.57879776  9.12002000 10.28340000
  12.06090000 10.24040000  9.12493000
  12.94320000  6.03881000  0.09905190
  13.83490000 12.38930000  0.58084000
  13.93620000 11.19240000  2.82615000
   1.30722000  5.47395000  1.50103000
  12.87040000 10.71970000  4.52840000
   1.41532000  4.40789000  3.54715000
  11.73790000  7.99988000  2.90070000
   6.99135000  6.07878000 10.21400000
   1.68250000  9.22277000  6.43555000
   6.13930000  4.04323000  6.68991000
   3.51560000 10.11410000  5.32975000
   8.36085000 12.63690000  0.12345400
   3.02846000 11.13030000  9.37514000
   7.88016000  9.38219000  1.06933000
   8.68704000  7.14785000  8.98765000
   4.73578000  4.81099000  2.72150000
   1.43285000  4.39982000  0.51449200
  13.50210000 14.26810000  3.51752000
   6.77800000  1.83874000  5.99656000
  14.44060000  7.00104000  7.92584000
   8.05769000 13.19170000  2.29451000
   5.06126000 10.08160000  7.15217000
  12.88680000 11.33860000  5.93986000
  13.83370000  1.95732000  3.38597000
   9.02821000 11.93450000  5.75053000
   8.24800000  0.91848700  1.84614000
  11.22410000  1.45260000 10.34740000
   2.01438000 12.53520000  2.41949000
  13.75450000 13.70910000  5.70289000
   3.11516000  1.77048000  2.50596000
   1.30247000  5.45129000  9.10737000
  10.59330000 10.42840000  6.57453000
  11.93460000  3.03972000  4.52580000
   1.40745000  2.86287000  3.90021000
   5.77341000  0.91697900 10.06980000
  14.29400000 13.37570000  9.80832000
   2.55091000 14.51410000  1.31776000
   2.27390000  1.63968000  9.09336000
  12.04190000 14.09760000  9.28108000
  14.23700000 12.40010000  2.19035000
   8.47875000  7.26124000  6.60097000
  13.97840000  9.00505000  8.90797000
   3.53171000  3.51021000  1.18134000
   5.29786000 11.72360000  8.83014000
   5.20657000  4.78849000  8.85129000
   4.85398000 13.50270000  4.75312000
   5.23118000  0.16450100  6.63650000
  12.60780000  0.53578200  7.25377000
   4.21639000  4.32789000  5.25820000
   7.74189000 10.41200000  4.65215000
  14.57562556 10.44570000  7.33338000
   6.60325000  8.74508000  5.80345000
   4.35421000  2.69622000  9.82488000
  12.86990000  2.92339000 10.18910000
   9.34756000  8.92435000 10.28040000
   4.94419000  0.52383600  3.19005000
   6.88117000  1.82630000  3.62750000
   8.17021000  4.99190000  6.28531000
   1.64195000 13.47260000  6.20592000
   1.11626000  6.89080000  6.00842000
   3.06470000  0.82690300  6.97665000
   9.36401000 10.35430000  3.01098000
   4.71809000 14.11130000  0.95672800
   3.16857000  9.00128000  8.33177000
   8.69228000  4.74773000  4.01608000
   3.05956000  8.42052000  1.53837000
  10.40790000  8.21254000  3.44123000
   9.45305000  1.98706000  8.92637000
   0.91541200  0.61176800 10.71230000
   6.88590000  3.97136000  2.80616000
   7.68655000  2.04385000 10.64970000
  11.26010000 14.49590000  3.50769000
   4.75521000  7.23836000  2.52904000
  11.89960000  5.08498000 10.49390000
   4.62679000  8.08671000  4.71107000
   5.05457000 11.71260000  1.39712000
  10.21950000  3.23633000  2.91155000
  10.10640000  4.04470000  7.82879000
   8.42500000 13.34090000  7.59069000
   6.84815000  7.29206000  1.47955000
   3.31946000  6.48721000  5.93571000
   7.76201000  4.18264000  0.61384300
   3.44157000  6.48562000  8.32027000
  13.39080000  2.69095000  7.87422000
  10.55110000  1.17701000  1.80158000
   1.16020000 12.24350000  8.30095000
  10.39820000 10.63690000  8.92099000
  12.02340000  4.18826000  6.55636000
   9.95543000 12.81150000  9.40993000
  10.71890000  5.91601000  8.82384000
   6.34583000 12.13720000  3.51877000
   2.49770000  2.79955000  6.10724000
   2.88597000 12.28240000  4.56475000
   1.00854000  3.29034000  7.87954000
   9.87018000 12.59070000  3.64352000
   9.05970000  6.49959000  2.59867000
   8.91463000  0.92658700  6.83658000
   3.06824000 10.80600000  1.05017000
  12.08920000  6.60562000  7.06143000
  14.54330000  2.62338000  0.87899300
   6.74621000 11.17070000 10.66190000
  10.64470000  8.02525000  5.77184000
  11.07600000  1.02577000  5.66034000
  10.11520000  4.79347000  1.15833000
   6.35247000 13.81730000  8.50241000



--------------------------------------------------------------------------------------------------------


 k-point     1 :   0.0000 0.0000 0.0000  plane waves:  217725
 k-point     2 :   0.5000 0.0000 0.0000  plane waves:  217770
 k-point     3 :   0.0000 0.5000 0.0000  plane waves:  217770
 k-point     4 :   0.5000 0.5000 0.0000  plane waves:  217780
 k-point     5 :   0.0000 0.0000 0.3333  plane waves:  217677
 k-point     6 :   0.5000 0.0000 0.3333  plane waves:  217648
 k-point     7 :   0.0000 0.5000 0.3333  plane waves:  217648
 k-point     8 :   0.5000 0.5000 0.3333  plane waves:  217720

 maximum and minimum number of plane-waves per node :     13666    13553

 maximum number of plane-waves:    217780
 maximum index in each direction: 
   IXMAX=   41   IYMAX=   41   IZMAX=   30
   IXMIN=  -41   IYMIN=  -41   IZMIN=  -30


 parallel 3D FFT for wavefunctions:
    minimum data exchange during FFTs selected (reduces bandwidth)
 parallel 3D FFT for charge:
    minimum data exchange during FFTs selected (reduces bandwidth)


 total amount of memory used by VASP MPI-rank0   202081. kBytes
=======================================================================

   base                                    :      30000. kBytes
   nonl-proj                               :      38147. kBytes
   fftplans                                :      42981. kBytes
   grid                                    :      33148. kBytes
   one-center                              :         21. kBytes
   wavefun                                 :      57784. kBytes

     INWAV:  cpu time     10.4969: real time     10.5027
 Broyden mixing: mesh for mixing (old mesh)
   NGX = 83   NGY = 83   NGZ = 61
  (NGX  =336   NGY  =336   NGZ  =252)
  gives a total of 420229 points

 initial charge density was supplied:
 number of electron     404.9999999 magnetization 
 keeping initial charge density in first step


--------------------------------------------------------------------------------------------------------


 Maximum index for augmentation-charges        11547 (set IRDMAX)


--------------------------------------------------------------------------------------------------------


 First call to EWALD:  gamma=   0.134
 Maximum number of real-space cells   3x   3x   3
 Maximum number of reciprocal cells   3x   3x   2

    FEWALD:  cpu time      0.0223: real time      0.0223


--------------------------------------- Ionic step        1  -------------------------------------------




--------------------------------------- Iteration      1(   1)  ---------------------------------------


    POTLOK:  cpu time      0.7671: real time      0.7677
    SETDIJ:  cpu time      1.4573: real time      1.4586
    EDDIAG:  cpu time     24.2636: real time     24.2833
     EDDAV:  cpu time    114.1889: real time    114.2882
       DOS:  cpu time      0.0096: real time      0.0098
    CHARGE:  cpu time     10.8299: real time     10.8390
    MIXING:  cpu time      0.0253: real time      0.0254
    --------------------------------------------
      LOOP:  cpu time    151.5418: real time    151.6722

 eigenvalue-minimisations  :  4248
 total energy-change (2. order) :-0.1063454E+04  (-0.1162219E+01)
 number of electron     404.9999999 magnetization 
 augmentation part      -21.5962675 magnetization 

 Broyden mixing:
  rms(total) = 0.12884E+01    rms(broyden)= 0.50485E+02
  rms(prec ) = 0.13893E+01
  weight for this iteration     100.00
  WARNING: grid for Broyden might be to small

 Free energy of the ion-electron system (eV)
  ---------------------------------------------------
  alpha Z        PSCENC =       150.40486393
  Ewald energy   TEWEN  =     -9318.37564416
  -Hartree energ DENC   =     -2264.00290370
  -exchange      EXHF   =         0.00000000
  -V(xc)+E(xc)   XCENC  =      -434.63887487
  PAW double counting   =     38477.88355170   -37501.47319474
  entropy T*S    EENTRO =        -0.07211986
  eigenvalues    EBANDS =      -436.07855046
  atomic energy  EATOM  =     10262.89861323
  Solvation  Ediel_sol  =         0.00000000
  ---------------------------------------------------
  free energy    TOTEN  =     -1063.45425892 eV

  energy without entropy =    -1063.38213906  energy(sigma->0) =    -1063.41819899


--------------------------------------------------------------------------------------------------------




--------------------------------------- Iteration      1(   2)  ---------------------------------------


    POTLOK:  cpu time      0.7610: real time      0.7628
    SETDIJ:  cpu time      1.4428: real time      1.4436
    EDDIAG:  cpu time     24.3747: real time     24.3949
     EDDAV:  cpu time    114.1099: real time    114.2132
       DOS:  cpu time      0.0038: real time      0.0038
    CHARGE:  cpu time     10.7337: real time     10.7444
    MIXING:  cpu time      0.0174: real time      0.0174
    --------------------------------------------
      LOOP:  cpu time    151.4433: real time    151.5801

 eigenvalue-minimisations  :  4224
 total energy-change (2. order) : 0.7232144E+02  (-0.1103218E+01)
 number of electron     404.9999999 magnetization 
 augmentation part      -21.5113857 magnetization 

 Broyden mixing:
  rms(total) = 0.85552E+00    rms(broyden)= 0.29065E+02
  rms(prec ) = 0.90849E+00
  weight for this iteration     100.00
  WARNING: grid for Broyden might be to small

 eigenvalues of (default mixing * dielectric matrix)
  average eigenvalue GAMMA=   0.6347
  0.6347

 Free energy of the ion-electron system (eV)
  ---------------------------------------------------
  alpha Z        PSCENC =       150.40486393
  Ewald energy   TEWEN  =     -9318.37564416
  -Hartree energ DENC   =     -2253.90126018
  -exchange      EXHF   =         0.00000000
  -V(xc)+E(xc)   XCENC  =      -424.91465676
  PAW double counting   =     46196.21681630   -45219.51704818
  entropy T*S    EENTRO =        -0.07235447
  eigenvalues    EBANDS =      -383.87214538
  atomic energy  EATOM  =     10262.89861323
  Solvation  Ediel_sol  =         0.00000000
  ---------------------------------------------------
  free energy    TOTEN  =      -991.13281566 eV

  energy without entropy =     -991.06046120  energy(sigma->0) =     -991.09663843


--------------------------------------------------------------------------------------------------------




--------------------------------------- Iteration      1(   3)  ---------------------------------------


    POTLOK:  cpu time      0.7447: real time      0.7659
    SETDIJ:  cpu time      1.4458: real time      1.4463
    EDDIAG:  cpu time     24.4236: real time     24.4439
     EDDAV:  cpu time    114.0195: real time    114.1180
       DOS:  cpu time      0.0038: real time      0.0038
    CHARGE:  cpu time     10.5386: real time     10.5469
    MIXING:  cpu time      0.0155: real time      0.0155
    --------------------------------------------
      LOOP:  cpu time    151.1916: real time    151.3404

 eigenvalue-minimisations  :  4224
 total energy-change (2. order) :-0.3627446E+01  (-0.8516080E+00)
 number of electron     404.9999999 magnetization 
 augmentation part      -21.4497671 magnetization 

 Broyden mixing:
  rms(total) = 0.49431E+00    rms(broyden)= 0.22853E+02
  rms(prec ) = 0.55495E+00
  weight for this iteration     100.00
  WARNING: grid for Broyden might be to small

 eigenvalues of (default mixing * dielectric matrix)
  average eigenvalue GAMMA=   0.6910
  0.7601  0.6219

 Free energy of the ion-electron system (eV)
  ---------------------------------------------------
  alpha Z        PSCENC =       150.40486393
  Ewald energy   TEWEN  =     -9318.37564416
  -Hartree energ DENC   =     -2258.79235666
  -exchange      EXHF   =         0.00000000
  -V(xc)+E(xc)   XCENC  =      -430.19414454
  PAW double counting   =     52582.21244025   -51605.60401385
  entropy T*S    EENTRO =        -0.06536657
  eigenvalues    EBANDS =      -377.24465345
  atomic energy  EATOM  =     10262.89861323
  Solvation  Ediel_sol  =         0.00000000
  ---------------------------------------------------
  free energy    TOTEN  =      -994.76026183 eV

  energy without entropy =     -994.69489525  energy(sigma->0) =     -994.72757854


--------------------------------------------------------------------------------------------------------




--------------------------------------- Iteration      1(   4)  ---------------------------------------


    POTLOK:  cpu time      0.7448: real time      0.7653
    SETDIJ:  cpu time      1.4451: real time      1.4457
    EDDIAG:  cpu time     24.4668: real time     24.4874
     EDDAV:  cpu time    119.3296: real time    119.4382
       DOS:  cpu time      0.0037: real time      0.0037
    CHARGE:  cpu time     10.5462: real time     10.5561
    MIXING:  cpu time      0.0154: real time      0.0154
    --------------------------------------------
      LOOP:  cpu time    156.5516: real time    156.7118

 eigenvalue-minimisations  :  4560
 total energy-change (2. order) :-0.3851853E+00  (-0.1094732E+00)
 number of electron     404.9999999 magnetization 
 augmentation part      -21.4354959 magnetization 

 Broyden mixing:
  rms(total) = 0.82693E-01    rms(broyden)= 0.11929E+01
  rms(prec ) = 0.15362E+00
  weight for this iteration     100.00
  WARNING: grid for Broyden might be to small

 eigenvalues of (default mixing * dielectric matrix)
  average eigenvalue GAMMA=   1.0060
  1.7127  0.6842  0.6210

 Free energy of the ion-electron system (eV)
  ---------------------------------------------------
  alpha Z        PSCENC =       150.40486393
  Ewald energy   TEWEN  =     -9318.37564416
  -Hartree energ DENC   =     -2265.03968011
  -exchange      EXHF   =         0.00000000
  -V(xc)+E(xc)   XCENC  =      -430.57530450
  PAW double counting   =     61537.43615949   -60560.89027634
  entropy T*S    EENTRO =        -0.07095719
  eigenvalues    EBANDS =      -370.93322147
  atomic energy  EATOM  =     10262.89861323
  Solvation  Ediel_sol  =         0.00000000
  ---------------------------------------------------
  free energy    TOTEN  =      -995.14544712 eV

  energy without entropy =     -995.07448993  energy(sigma->0) =     -995.10996852


--------------------------------------------------------------------------------------------------------




--------------------------------------- Iteration      1(   5)  ---------------------------------------


    POTLOK:  cpu time      0.7472: real time      0.7624
    SETDIJ:  cpu time      1.4444: real time      1.4449
    EDDIAG:  cpu time     24.4543: real time     24.4761
     EDDAV:  cpu time    125.9909: real time    126.1068
       DOS:  cpu time      0.0051: real time      0.0051
    CHARGE:  cpu time     10.6488: real time     10.6570
    MIXING:  cpu time      0.0156: real time      0.0156
    --------------------------------------------
      LOOP:  cpu time    163.3063: real time    163.4679

 eigenvalue-minimisations  :  4984
 total energy-change (2. order) :-0.2662390E-01  (-0.2540405E-01)
 number of electron     404.9999999 magnetization 
 augmentation part      -21.4380193 magnetization 

 Broyden mixing:
  rms(total) = 0.57153E-01    rms(broyden)= 0.15344E+01
  rms(prec ) = 0.99420E-01
  weight for this iteration     100.00
  WARNING: grid for Broyden might be to small

 eigenvalues of (default mixing * dielectric matrix)
  average eigenvalue GAMMA=   1.0699
  2.3140  0.7889  0.6139  0.5626

 Free energy of the ion-electron system (eV)
  ---------------------------------------------------
  alpha Z        PSCENC =       150.40486393
  Ewald energy   TEWEN  =     -9318.37564416
  -Hartree energ DENC   =     -2266.35384897
  -exchange      EXHF   =         0.00000000
  -V(xc)+E(xc)   XCENC  =      -431.76120812
  PAW double counting   =     61585.37307763   -60608.80555179
  entropy T*S    EENTRO =        -0.06771382
  eigenvalues    EBANDS =      -368.48465894
  atomic energy  EATOM  =     10262.89861323
  Solvation  Ediel_sol  =         0.00000000
  ---------------------------------------------------
  free energy    TOTEN  =      -995.17207101 eV

  energy without entropy =     -995.10435719  energy(sigma->0) =     -995.13821410


--------------------------------------------------------------------------------------------------------




--------------------------------------- Iteration      1(   6)  ---------------------------------------


    POTLOK:  cpu time      0.7458: real time      0.7642
    SETDIJ:  cpu time      1.4456: real time      1.4464
    EDDIAG:  cpu time     24.5078: real time     24.5289
     EDDAV:  cpu time    120.7896: real time    120.8972
       DOS:  cpu time      0.0051: real time      0.0051
    CHARGE:  cpu time     10.4816: real time     10.4910
    MIXING:  cpu time      0.0160: real time      0.0161
    --------------------------------------------
      LOOP:  cpu time    157.9915: real time    158.1489

 eigenvalue-minimisations  :  4656
 total energy-change (2. order) : 0.2183613E-02  (-0.5297237E-02)
 number of electron     404.9999999 magnetization 
 augmentation part      -21.4381380 magnetization 

 Broyden mixing:
  rms(total) = 0.22634E-01    rms(broyden)= 0.25247E+00
  rms(prec ) = 0.26048E-01
  weight for this iteration     100.00
  WARNING: grid for Broyden might be to small

 eigenvalues of (default mixing * dielectric matrix)
  average eigenvalue GAMMA=   1.0483
  2.5942  0.9357  0.6522  0.6308  0.4287

 Free energy of the ion-electron system (eV)
  ---------------------------------------------------
  alpha Z        PSCENC =       150.40486393
  Ewald energy   TEWEN  =     -9318.37564416
  -Hartree energ DENC   =     -2266.32535345
  -exchange      EXHF   =         0.00000000
  -V(xc)+E(xc)   XCENC  =      -432.06468147
  PAW double counting   =     61328.30872655   -60351.72062611
  entropy T*S    EENTRO =        -0.07100493
  eigenvalues    EBANDS =      -368.22478100
  atomic energy  EATOM  =     10262.89861323
  Solvation  Ediel_sol  =         0.00000000
  ---------------------------------------------------
  free energy    TOTEN  =      -995.16988740 eV

  energy without entropy =     -995.09888248  energy(sigma->0) =     -995.13438494


--------------------------------------------------------------------------------------------------------




--------------------------------------- Iteration      1(   7)  ---------------------------------------


    POTLOK:  cpu time      0.7443: real time      0.7636
    SETDIJ:  cpu time      1.4449: real time      1.4463
    EDDIAG:  cpu time     24.3406: real time     24.3618
     EDDAV:  cpu time    120.2789: real time    120.3868
       DOS:  cpu time      0.0046: real time      0.0046
    CHARGE:  cpu time     10.5755: real time     10.5843
    MIXING:  cpu time      0.0161: real time      0.0161
    --------------------------------------------
      LOOP:  cpu time    157.4047: real time    157.5635

 eigenvalue-minimisations  :  4632
 total energy-change (2. order) :-0.1115308E-02  (-0.1158488E-02)
 number of electron     404.9999999 magnetization 
 augmentation part      -21.4358193 magnetization 

 Broyden mixing:
  rms(total) = 0.11667E-01    rms(broyden)= 0.21940E+00
  rms(prec ) = 0.15557E-01
  weight for this iteration     100.00
  WARNING: grid for Broyden might be to small

 eigenvalues of (default mixing * dielectric matrix)
  average eigenvalue GAMMA=   1.0397
  2.5606  1.1712  0.8135  0.4192  0.6409  0.6326

 Free energy of the ion-electron system (eV)
  ---------------------------------------------------
  alpha Z        PSCENC =       150.40486393
  Ewald energy   TEWEN  =     -9318.37564416
  -Hartree energ DENC   =     -2267.02583533
  -exchange      EXHF   =         0.00000000
  -V(xc)+E(xc)   XCENC  =      -431.94214676
  PAW double counting   =     61275.35264962   -60298.74208657
  entropy T*S    EENTRO =        -0.07172786
  eigenvalues    EBANDS =      -367.66968881
  atomic energy  EATOM  =     10262.89861323
  Solvation  Ediel_sol  =         0.00000000
  ---------------------------------------------------
  free energy    TOTEN  =      -995.17100271 eV

  energy without entropy =     -995.09927485  energy(sigma->0) =     -995.13513878


--------------------------------------------------------------------------------------------------------




--------------------------------------- Iteration      1(   8)  ---------------------------------------


    POTLOK:  cpu time      0.7432: real time      0.7626
    SETDIJ:  cpu time      1.4437: real time      1.4443
    EDDIAG:  cpu time     24.3993: real time     24.4198
     EDDAV:  cpu time    128.7567: real time    128.8757
       DOS:  cpu time      0.0039: real time      0.0039
    CHARGE:  cpu time     10.7868: real time     10.7953
    MIXING:  cpu time      0.0162: real time      0.0162
    --------------------------------------------
      LOOP:  cpu time    166.1498: real time    166.3178

 eigenvalue-minimisations  :  5160
 total energy-change (2. order) :-0.5257072E-03  (-0.1847443E-03)
 number of electron     404.9999999 magnetization 
 augmentation part      -21.4350061 magnetization 

 Broyden mixing:
  rms(total) = 0.42828E-02    rms(broyden)= 0.69615E-01
  rms(prec ) = 0.62817E-02
  weight for this iteration     100.00
  WARNING: grid for Broyden might be to small

 eigenvalues of (default mixing * dielectric matrix)
  average eigenvalue GAMMA=   1.0883
  2.5437  1.7649  0.9584  0.4164  0.6693  0.6525  0.6131

 Free energy of the ion-electron system (eV)
  ---------------------------------------------------
  alpha Z        PSCENC =       150.40486393
  Ewald energy   TEWEN  =     -9318.37564416
  -Hartree energ DENC   =     -2267.45580103
  -exchange      EXHF   =         0.00000000
  -V(xc)+E(xc)   XCENC  =      -431.86191041
  PAW double counting   =     61300.02565241   -60323.40165684
  entropy T*S    EENTRO =        -0.07102097
  eigenvalues    EBANDS =      -367.33462457
  atomic energy  EATOM  =     10262.89861323
  Solvation  Ediel_sol  =         0.00000000
  ---------------------------------------------------
  free energy    TOTEN  =      -995.17152842 eV

  energy without entropy =     -995.10050744  energy(sigma->0) =     -995.13601793


--------------------------------------------------------------------------------------------------------




--------------------------------------- Iteration      1(   9)  ---------------------------------------


    POTLOK:  cpu time      0.7486: real time      0.7654
    SETDIJ:  cpu time      1.4452: real time      1.4461
    EDDIAG:  cpu time     24.3900: real time     24.4125
     EDDAV:  cpu time    123.7846: real time    123.8948
       DOS:  cpu time      0.0058: real time      0.0058
    CHARGE:  cpu time     10.5745: real time     10.5839
    MIXING:  cpu time      0.0160: real time      0.0160
    --------------------------------------------
      LOOP:  cpu time    160.9648: real time    161.1246

 eigenvalue-minimisations  :  4856
 total energy-change (2. order) :-0.2445935E-04  (-0.3316117E-04)
 number of electron     404.9999999 magnetization 
 augmentation part      -21.4351760 magnetization 

 Broyden mixing:
  rms(total) = 0.21437E-02    rms(broyden)= 0.85043E-01
  rms(prec ) = 0.26214E-02
  weight for this iteration     100.00
  WARNING: grid for Broyden might be to small

 eigenvalues of (default mixing * dielectric matrix)
  average eigenvalue GAMMA=   1.1030
  2.5565  2.3228  0.9975  0.7868  0.6459  0.6310  0.4130  0.4704

 Free energy of the ion-electron system (eV)
  ---------------------------------------------------
  alpha Z        PSCENC =       150.40486393
  Ewald energy   TEWEN  =     -9318.37564416
  -Hartree energ DENC   =     -2267.47285655
  -exchange      EXHF   =         0.00000000
  -V(xc)+E(xc)   XCENC  =      -431.89713180
  PAW double counting   =     61320.86053646   -60344.23411533
  entropy T*S    EENTRO =        -0.07126164
  eigenvalues    EBANDS =      -367.28455701
  atomic energy  EATOM  =     10262.89861323
  Solvation  Ediel_sol  =         0.00000000
  ---------------------------------------------------
  free energy    TOTEN  =      -995.17155288 eV

  energy without entropy =     -995.10029123  energy(sigma->0) =     -995.13592205


--------------------------------------------------------------------------------------------------------




--------------------------------------- Iteration      1(  10)  ---------------------------------------


    POTLOK:  cpu time      0.7485: real time      0.7643
    SETDIJ:  cpu time      1.4478: real time      1.4492
    EDDIAG:  cpu time     24.4036: real time     24.4248
     EDDAV:  cpu time    123.0016: real time    123.1128
       DOS:  cpu time      0.0050: real time      0.0050
    CHARGE:  cpu time     10.5132: real time     10.5233
    MIXING:  cpu time      0.0167: real time      0.0167
    --------------------------------------------
      LOOP:  cpu time    160.1364: real time    160.2960

 eigenvalue-minimisations  :  4800
 total energy-change (2. order) :-0.3533634E-04  (-0.1214093E-04)
 number of electron     404.9999999 magnetization 
 augmentation part      -21.4352028 magnetization 

 Broyden mixing:
  rms(total) = 0.95916E-03    rms(broyden)= 0.47869E-01
  rms(prec ) = 0.12156E-02
  weight for this iteration     100.00
  WARNING: grid for Broyden might be to small

 eigenvalues of (default mixing * dielectric matrix)
  average eigenvalue GAMMA=   1.1350
  2.6447  2.6447  1.0310  1.0310  0.7267  0.6340  0.6321  0.4158  0.4551

 Free energy of the ion-electron system (eV)
  ---------------------------------------------------
  alpha Z        PSCENC =       150.40486393
  Ewald energy   TEWEN  =     -9318.37564416
  -Hartree energ DENC   =     -2267.48870512
  -exchange      EXHF   =         0.00000000
  -V(xc)+E(xc)   XCENC  =      -431.90123688
  PAW double counting   =     61316.47538170   -60339.84612615
  entropy T*S    EENTRO =        -0.07124503
  eigenvalues    EBANDS =      -367.26748974
  atomic energy  EATOM  =     10262.89861323
  Solvation  Ediel_sol  =         0.00000000
  ---------------------------------------------------
  free energy    TOTEN  =      -995.17158821 eV

  energy without entropy =     -995.10034318  energy(sigma->0) =     -995.13596570


--------------------------------------------------------------------------------------------------------




--------------------------------------- Iteration      1(  11)  ---------------------------------------


    POTLOK:  cpu time      0.7465: real time      0.7611
    SETDIJ:  cpu time      1.4438: real time      1.4444
    EDDIAG:  cpu time     24.4148: real time     24.4371
     EDDAV:  cpu time    121.8325: real time    121.9397
       DOS:  cpu time      0.0041: real time      0.0041
    CHARGE:  cpu time     10.6246: real time     10.6346
    MIXING:  cpu time      0.0182: real time      0.0182
    --------------------------------------------
      LOOP:  cpu time    159.0844: real time    159.2392

 eigenvalue-minimisations  :  4720
 total energy-change (2. order) :-0.1108385E-04  (-0.2390448E-05)
 number of electron     404.9999999 magnetization 
 augmentation part      -21.4352171 magnetization 

 Broyden mixing:
  rms(total) = 0.44879E-03    rms(broyden)= 0.11739E-01
  rms(prec ) = 0.54670E-03
  weight for this iteration     100.00
  WARNING: grid for Broyden might be to small

 eigenvalues of (default mixing * dielectric matrix)
  average eigenvalue GAMMA=   1.1921
  3.1009  2.6256  1.5061  1.0341  0.8706  0.4143  0.4476  0.6804  0.6319  0.6098

 Free energy of the ion-electron system (eV)
  ---------------------------------------------------
  alpha Z        PSCENC =       150.40486393
  Ewald energy   TEWEN  =     -9318.37564416
  -Hartree energ DENC   =     -2267.49333417
  -exchange      EXHF   =         0.00000000
  -V(xc)+E(xc)   XCENC  =      -431.90416518
  PAW double counting   =     61312.49612268   -60335.86546707
  entropy T*S    EENTRO =        -0.07122786
  eigenvalues    EBANDS =      -367.26136070
  atomic energy  EATOM  =     10262.89861323
  Solvation  Ediel_sol  =         0.00000000
  ---------------------------------------------------
  free energy    TOTEN  =      -995.17159930 eV

  energy without entropy =     -995.10037143  energy(sigma->0) =     -995.13598536


--------------------------------------------------------------------------------------------------------




--------------------------------------- Iteration      1(  12)  ---------------------------------------


    POTLOK:  cpu time      0.7457: real time      0.7621
    SETDIJ:  cpu time      1.4448: real time      1.4453
    EDDIAG:  cpu time     24.4588: real time     24.4808
     EDDAV:  cpu time    121.5493: real time    121.6639
       DOS:  cpu time      0.0052: real time      0.0052
    CHARGE:  cpu time     10.6006: real time     10.6106
    MIXING:  cpu time      0.0169: real time      0.0169
    --------------------------------------------
      LOOP:  cpu time    158.8212: real time    158.9848

 eigenvalue-minimisations  :  4696
 total energy-change (2. order) :-0.2755260E-05  (-0.6842227E-06)
 number of electron     404.9999999 magnetization 
 augmentation part      -21.4352774 magnetization 

 Broyden mixing:
  rms(total) = 0.17512E-03    rms(broyden)= 0.79656E-02
  rms(prec ) = 0.21917E-03
  weight for this iteration     100.00
  WARNING: grid for Broyden might be to small

 eigenvalues of (default mixing * dielectric matrix)
  average eigenvalue GAMMA=   1.1873
  3.2894  2.6147  1.5335  1.0415  1.0415  0.7718  0.4138  0.4465  0.6624  0.6262
  0.6189

 Free energy of the ion-electron system (eV)
  ---------------------------------------------------
  alpha Z        PSCENC =       150.40486393
  Ewald energy   TEWEN  =     -9318.37564416
  -Hartree energ DENC   =     -2267.47630263
  -exchange      EXHF   =         0.00000000
  -V(xc)+E(xc)   XCENC  =      -431.91205610
  PAW double counting   =     61311.53456903   -60334.90371964
  entropy T*S    EENTRO =        -0.07123220
  eigenvalues    EBANDS =      -367.27069352
  atomic energy  EATOM  =     10262.89861323
  Solvation  Ediel_sol  =         0.00000000
  ---------------------------------------------------
  free energy    TOTEN  =      -995.17160205 eV

  energy without entropy =     -995.10036985  energy(sigma->0) =     -995.13598595


--------------------------------------------------------------------------------------------------------




--------------------------------------- Iteration      1(  13)  ---------------------------------------


    POTLOK:  cpu time      0.7429: real time      0.7619
    SETDIJ:  cpu time      1.4450: real time      1.4456
    EDDIAG:  cpu time     24.4695: real time     24.4905
     EDDAV:  cpu time     93.1179: real time     93.2045
       DOS:  cpu time      0.0036: real time      0.0036
    --------------------------------------------
      LOOP:  cpu time    119.7794: real time    119.9066

 eigenvalue-minimisations  :  2872
 total energy-change (2. order) :-0.3968307E-07  (-0.1613192E-06)
 number of electron     404.9999999 magnetization 
 augmentation part      -21.4352774 magnetization 

 Free energy of the ion-electron system (eV)
  ---------------------------------------------------
  alpha Z        PSCENC =       150.40486393
  Ewald energy   TEWEN  =     -9318.37564416
  -Hartree energ DENC   =     -2267.46998832
  -exchange      EXHF   =         0.00000000
  -V(xc)+E(xc)   XCENC  =      -431.91601280
  PAW double counting   =     61310.88658679   -60334.25583887
  entropy T*S    EENTRO =        -0.07123349
  eigenvalues    EBANDS =      -367.27294839
  atomic energy  EATOM  =     10262.89861323
  Solvation  Ediel_sol  =         0.00000000
  ---------------------------------------------------
  free energy    TOTEN  =      -995.17160209 eV

  energy without entropy =     -995.10036860  energy(sigma->0) =     -995.13598535


--------------------------------------------------------------------------------------------------------




[...]
   0.322E+01 -.276E+02 0.222E+02   -.388E+01 0.269E+02 -.218E+02   0.152E+01 0.115E+01 -.400E+00   -.468E-04 0.197E-04 -.188E-03
   -.450E+01 -.198E+02 -.409E+02   0.377E+01 0.191E+02 0.384E+02   0.454E+00 0.446E+00 0.268E+01   0.683E-04 -.380E-04 0.110E-03
   -.201E+02 -.168E+02 0.180E+02   0.208E+02 0.178E+02 -.173E+02   -.853E+00 -.478E+00 -.815E+00   0.534E-04 -.785E-04 0.488E-04
   -.435E+02 0.161E+02 0.160E+02   0.409E+02 -.163E+02 -.135E+02   0.179E+01 0.810E+00 -.279E+01   0.208E-03 -.289E-03 -.133E-03
   0.102E+02 0.111E+02 -.210E+02   -.113E+02 -.125E+02 0.189E+02   0.117E+01 0.131E+01 0.159E+01   -.120E-03 0.949E-04 0.433E-04
   -.329E+02 0.305E+02 -.245E+02   0.346E+02 -.291E+02 0.240E+02   -.103E+00 -.283E+01 0.682E+00   -.271E-03 0.188E-03 0.587E-05
   -.435E+02 -.451E+02 0.428E+02   0.416E+02 0.442E+02 -.417E+02   0.230E+01 0.100E+01 -.117E+01   0.798E-04 -.890E-05 -.493E-04
   -.462E+02 0.207E+02 -.180E+02   0.443E+02 -.239E+02 0.170E+02   0.260E+01 0.360E+01 -.904E-01   -.409E-03 0.870E-04 0.274E-03
   -.252E+02 -.576E+02 -.234E+02   0.258E+02 0.545E+02 0.225E+02   -.119E+01 0.456E+01 0.642E+00   -.238E-04 0.500E-04 0.312E-04
   0.913E+01 0.386E+02 -.160E+02   -.869E+01 -.383E+02 0.155E+02   -.783E+00 -.117E+01 -.107E+00   0.778E-04 -.187E-03 -.535E-04
   0.227E+02 -.285E+02 0.173E+02   -.237E+02 0.267E+02 -.169E+02   0.243E+00 0.328E+01 -.220E+01   -.122E-03 0.103E-04 -.910E-04
   0.408E+02 0.391E+02 0.427E+01   -.394E+02 -.381E+02 -.397E+01   -.125E+01 -.110E+01 0.632E-01   -.112E-04 -.227E-04 -.395E-04
   0.152E+02 -.365E+02 0.179E+02   -.144E+02 0.348E+02 -.172E+02   0.530E+00 0.233E+01 -.134E+00   -.139E-03 -.490E-05 -.238E-04
   -.635E+02 0.274E+02 0.125E+02   0.609E+02 -.256E+02 -.125E+02   0.255E+01 -.146E+01 -.368E-01   0.272E-04 -.106E-03 -.101E-03
   -.369E+02 -.456E+02 0.165E+01   0.387E+02 0.436E+02 0.623E-01   -.203E+01 0.210E+01 -.261E+01   -.508E-04 0.235E-03 0.543E-04
   -.721E+01 -.102E+01 0.187E+02   0.684E+01 -.285E+00 -.174E+02   0.566E+00 0.159E+01 -.117E+01   -.103E-03 -.105E-03 0.176E-03
   0.635E+02 0.571E+02 -.244E+00   -.610E+02 -.552E+02 0.781E+00   -.345E+01 -.219E+01 -.968E+00   -.482E-04 -.133E-04 0.130E-05
   -.443E+02 -.418E+02 0.354E+02   0.433E+02 0.398E+02 -.329E+02   0.192E+01 0.114E+01 -.236E+01   -.128E-04 0.412E-04 -.109E-03
   0.172E+02 -.304E+02 -.362E+02   -.177E+02 0.311E+02 0.336E+02   0.175E+00 -.171E+01 0.330E+01   -.113E-03 -.729E-04 0.121E-03
   0.237E+01 0.583E+02 0.242E+02   -.239E+01 -.559E+02 -.223E+02   -.133E+01 -.352E+01 -.161E+01   0.369E-03 0.286E-03 0.880E-04
   -.549E+02 -.630E+01 0.188E+02   0.533E+02 0.623E+01 -.205E+02   0.914E+00 0.771E+00 0.223E+01   -.518E-04 0.146E-03 -.870E-04
   0.657E+01 0.695E+01 0.537E+01   -.451E+01 -.660E+01 -.464E+01   -.349E+01 0.230E+00 -.186E+01   0.549E-04 -.106E-03 -.494E-04
   -.564E+02 -.485E+02 0.788E+00   0.566E+02 0.470E+02 0.133E+01   -.898E+00 0.169E+01 -.134E+01   0.886E-04 0.366E-04 -.756E-04
   0.451E+01 0.171E+02 -.187E+01   -.578E+01 -.174E+02 0.940E-02   0.116E+00 0.152E+00 0.135E+01   0.246E-03 -.487E-04 0.157E-03
 -----------------------------------------------------------------------------------------------
   0.860E+01 -.634E+01 0.333E+01   -.924E-13 -.178E-13 0.131E-12   -.860E+01 0.634E+01 -.334E+01   0.311E-04 -.798E-03 -.105E-02


 POSITION                                       TOTAL-FORCE (eV/Angst)
 -----------------------------------------------------------------------------------
      1.86118      8.03243      2.43788         0.617746      0.343674     -0.441448
      0.35009      6.57744      4.75494        -0.037443      0.209002      0.213476
     10.46010      8.24628      0.13051         0.577050     -0.058380      0.175141
      2.73508      7.87791      0.20421        -0.053851     -0.187271     -0.186666
     14.57880      9.12002     10.28340        -0.014106      0.153087     -0.209351
     12.06090     10.24040      9.12493        -1.035072      0.035067      0.178907
     12.94320      6.03881      0.09905         0.071283      0.110930      0.362192
     13.83490     12.38930      0.58084         0.379051      0.272854      0.645239
     13.93620     11.19240      2.82615        -0.793343     -1.540027      0.689860
      1.30722      5.47395      1.50103        -0.367346      0.320909      0.318781
     12.87040     10.71970      4.52840         0.242135      0.321631      0.724950
      1.41532      4.40789      3.54715        -0.110773     -1.265157      0.269710
     11.73790      7.99988      2.90070         0.625239      0.060567     -0.421577
      6.99135      6.07878     10.21400        -0.594953     -1.175480      0.146918
      1.68250      9.22277      6.43555         0.226569     -0.915696     -0.015075
      6.13930      4.04323      6.68991        -0.704145     -0.007994      0.062128
      3.51560     10.11410      5.32975        -0.012562      0.453856     -0.100052
      8.36085     12.63690      0.12345         0.110858      0.768266      0.491057
      3.02846     11.13030      9.37514        -0.178757     -0.020543      1.264041
      7.88016      9.38219      1.06933        -0.402813      1.370902      0.295638
      8.68704      7.14785      8.98765         0.285830     -0.209986     -0.589582
      4.73578      4.81099      2.72150        -0.463061      0.337651      1.252962
      1.43285      4.39982      0.51449         0.405957      0.480925     -0.444214
     13.50210     14.26810      3.51752         0.326824     -0.589194     -0.708951
      6.77800      1.83874      5.99656         0.705512     -0.199060      0.490588
     14.44060      7.00104      7.92584        -0.894763     -0.969506      0.366596
      8.05769     13.19170      2.29451         0.162556      0.521166      0.540854
      5.06126     10.08160      7.15217         0.073122     -0.561512     -0.113914
     12.88680     11.33860      5.93986        -0.521242     -0.069175     -0.192939
     13.83370      1.95732      3.38597         0.993830      1.398420     -0.922687
      9.02821     11.93450      5.75053        -0.128017      0.045446      0.410778
      8.24800      0.91849      1.84614        -0.024526     -0.321678      0.474797
     11.22410      1.45260     10.34740        -0.242780     -1.306368      0.537963
      2.01438     12.53520      2.41949        -0.603533     -0.644928     -0.665697
     13.75450     13.70910      5.70289         1.130389     -1.016778      1.151704
      3.11516      1.77048      2.50596        -1.299120     -0.009222      1.725025
      1.30247      5.45129      9.10737         0.089183     -0.920624     -0.570757
     10.59330     10.42840      6.57453         1.211387     -0.286009      0.225083
     11.93460      3.03972      4.52580        -0.084648     -0.788358     -0.234705
      1.40745      2.86287      3.90021         0.660060      0.126071      0.477181
      5.77341      0.91698     10.06980         0.116819     -0.912311      0.568256
     14.29400     13.37570      9.80832        -0.318678      0.365684     -0.090572
      2.55091     14.51410      1.31776        -1.010426     -0.389179      0.007633
      2.27390      1.63968      9.09336         0.189469      0.764697     -0.753136
     12.04190     14.09760      9.28108        -0.222330     -0.142880      0.254560
     14.23700     12.40010      2.19035         1.118043      1.959532     -0.510331
      8.47875      7.26124      6.60097        -0.504917      0.912904      0.341415
     13.97840      9.00505      8.90797        -0.531926     -0.211840      0.977902
      3.53171      3.51021      1.18134         0.605333      0.296040     -1.582415
      5.29786     11.72360      8.83014         0.168736     -0.461345     -0.037682
      5.20657      4.78849      8.85129         0.159029      0.428384     -0.075694
      4.85398     13.50270      4.75312         0.299729     -0.817404     -0.343245
      5.23118      0.16450      6.63650         0.786610     -0.210790      0.282533
     12.60780      0.53578      7.25377         0.716176     -0.481462     -0.060216
      4.21639      4.32789      5.25820        -0.374284      0.753182     -0.140752
      7.74189     10.41200      4.65215        -1.511821      0.774607     -0.583812
     14.57563     10.44570      7.33338         0.074225      1.269916     -0.458762
      6.60325      8.74508      5.80345         0.375258     -0.168947      0.786621
      4.35421      2.69622      9.82488        -1.134619      0.988393      0.555442
     12.86990      2.92339     10.18910         0.049217      1.524501     -0.660087
      9.34756      8.92435     10.28040         0.999745      0.355788     -1.004534
      4.94419      0.52384      3.19005         0.459766      1.032709     -1.221115
      6.88117      1.82630      3.62750        -0.390104     -0.455102     -0.650338
      8.17021      4.99190      6.28531         1.522645     -0.333918      0.168452
      1.64195     13.47260      6.20592        -0.667865      0.285116      0.988819
      1.11626      6.89080      6.00842        -0.612583      1.153687     -0.915747
      3.06470      0.82690      6.97665        -1.017058     -1.592249      0.486770
      9.36401     10.35430      3.01098        -0.332911     -1.648386     -0.960246
      4.71809     14.11130      0.95673         1.452972     -0.165500      0.111748
      3.16857      9.00128      8.33177         0.684292     -0.618270     -0.766832
      8.69228      4.74773      4.01608        -0.480830     -0.738053      0.296876
      3.05956      8.42052      1.53837        -1.404466      0.382940      0.145671
     10.40790      8.21254      3.44123        -0.282072      0.540253      0.269530
      9.45305      1.98706      8.92637        -0.735873      0.568604     -0.142743
      0.91541      0.61177     10.71230        -0.159588      0.267213     -0.199837
      6.88590      3.97136      2.80616        -0.194904      0.436401     -0.361101
      7.68655      2.04385     10.64970         0.727063     -0.602520     -0.370854
     11.26010     14.49590      3.50769        -0.268477     -1.129188      1.000959
      4.75521      7.23836      2.52904         0.656848     -0.683163      0.323940
     11.89960      5.08498     10.49390         0.386319     -0.542226      0.963304
      4.62679      8.08671      4.71107        -0.011955     -0.000536      0.073644
      5.05457     11.71260      1.39712         2.306897      1.603602      0.570795
     10.21950      3.23633      2.91155         0.845234      0.851628      0.271473
     10.10640      4.04470      7.82879        -2.186679     -1.006032     -1.169500
      8.42500     13.34090      7.59069         1.126886      0.098846     -0.163135
      6.84815      7.29206      1.47955         1.113998      0.313952      0.002616
      3.31946      6.48721      5.93571         1.290678     -1.088700      0.265795
      7.76201      4.18264      0.61384         0.961670      0.565239      0.004251
      3.44157      6.48562      8.32027        -0.293288     -0.211128      0.213616
     13.39080      2.69095      7.87422        -0.193391      0.477743     -0.166176
     10.55110      1.17701      1.80158        -0.812650      0.702332     -0.383380
      1.16020     12.24350      8.30095         0.155388      0.008826     -0.452749
     10.39820     10.63690      8.92099         1.577418     -1.591316      0.247561
     12.02340      4.18826      6.55636         0.444667      0.184664     -0.118931
      9.95543     12.81150      9.40993         0.797708      0.573749     -1.139109
     10.71890      5.91601      8.82384        -0.704671      1.576633     -0.238496
      6.34583     12.13720      3.51877        -0.364356     -0.885137     -0.649013
      2.49770      2.79955      6.10724        -0.778887      1.602665     -1.905894
      2.88597     12.28240      4.56475         0.107552     -0.164233      0.378562
      1.00854      3.29034      7.87954         1.381826      0.711832      0.567465
      9.87018     12.59070      3.64352        -0.071252      0.215619     -0.045013
      9.05970      6.49959      2.59867        -0.396156      0.107532     -1.009931
      8.91463      0.92659      6.83658         0.235961      0.362002      0.173075
      3.06824     10.80600      1.05017        -1.049771     -0.286807     -0.473217
     12.08920      6.60562      7.06143         0.933451     -0.779834      0.092293
     14.54330      2.62338      0.87899        -0.377034     -1.109142      0.795726
      6.74621     11.17070     10.66190        -1.404187     -1.265561      0.281013
     10.64470      8.02525      5.77184        -0.733668      0.738514      0.620689
     11.07600      1.02577      5.66034        -1.606382      0.584571     -1.239019
     10.11520      4.79347      1.15833        -0.841507      0.312760      0.760241
      6.35247     13.81730      8.50241        -1.173791     -0.227579     -0.479589
 -----------------------------------------------------------------------------------
    total drift:                                0.000682     -0.001715     -0.002892


--------------------------------------------------------------------------------------------------------



  FREE ENERGIE OF THE ION-ELECTRON SYSTEM (eV)
  ---------------------------------------------------
  free  energy   TOTEN  =      -995.17160209 eV

  energy  without entropy=     -995.10036860  energy(sigma->0) =     -995.13598535



--------------------------------------------------------------------------------------------------------


    POTLOK:  cpu time      2.1795: real time      2.1805


--------------------------------------------------------------------------------------------------------


     LOOP+:  cpu time   2263.6154: real time   2265.7995
    4ORBIT:  cpu time      0.0000: real time      0.0000



 total charge

# of ion       s       p       d       tot
------------------------------------------
    1        0.544   0.013   0.000   0.557
    2        0.560   0.015   0.000   0.574
    3        0.581   0.016   0.000   0.597
    4        0.577   0.016   0.000   0.593
    5        0.553   0.015   0.000   0.568
    6        0.482   0.011   0.000   0.493
    7        0.570   0.016   0.000   0.585
    8        0.513   0.016   0.000   0.529
    9        0.607   0.021   0.000   0.628
   10        0.579   0.017   0.000   0.596
   11        0.546   0.014   0.000   0.560
   12        0.528   0.012   0.000   0.540
   13        0.584   0.017   0.000   0.601
   14        0.750   0.885   0.000   1.635
   15        0.765   0.934   0.000   1.698
   16        0.747   0.921   0.000   1.667
   17        0.756   0.921   0.000   1.677
   18        0.779   0.954   0.000   1.733
   19        0.758   0.872   0.000   1.630
   20        0.762   0.904   0.000   1.666
   21        0.750   0.950   0.000   1.700
   22        0.755   0.890   0.000   1.645
   23        0.742   0.954   0.000   1.696
   24        0.745   0.997   0.000   1.742
   25        0.752   0.903   0.000   1.655
   26        0.750   0.909   0.000   1.659
   27        0.754   0.965   0.000   1.719
   28        0.760   0.891   0.000   1.651
   29        0.741   0.896   0.000   1.637
   30        0.754   0.866   0.000   1.620
   31        0.756   0.952   0.000   1.709
   32        0.762   0.912   0.000   1.674
   33        0.753   0.967   0.000   1.720
   34        0.748   0.939   0.000   1.686
   35        0.757   0.885   0.000   1.642
   36        0.757   0.983   0.000   1.740
   37        0.757   0.847   0.000   1.604
   38        0.755   0.886   0.000   1.641
   39        0.760   0.899   0.000   1.659
   40        0.743   0.898   0.000   1.641
   41        0.748   0.941   0.000   1.689
   42        0.782   0.846   0.000   1.628
   43        0.756   1.015   0.000   1.771
   44        0.756   0.908   0.000   1.664
   45        0.746   0.909   0.000   1.655
   46        0.755   0.961   0.000   1.716
   47        0.748   0.904   0.000   1.652
   48        0.767   0.949   0.000   1.716
   49        0.751   0.952   0.000   1.703
   50        0.754   0.904   0.000   1.658
   51        0.754   0.827   0.000   1.581
   52        0.754   0.987   0.000   1.741
   53        0.752   0.973   0.000   1.725
   54        0.746   0.952   0.000   1.699
   55        0.756   0.854   0.000   1.610
   56        0.756   0.948   0.000   1.705
   57        0.748   1.000   0.000   1.749
   58        0.748   0.900   0.000   1.648
   59        0.754   0.897   0.000   1.651
   60        0.751   0.994   0.000   1.745
   61        0.747   1.009   0.000   1.756
   62        0.761   0.951   0.000   1.712
   63        0.753   0.941   0.000   1.694
   64        0.752   0.934   0.000   1.686
   65        0.758   0.853   0.000   1.611
   66        0.744   0.986   0.000   1.729
   67        0.754   0.945   0.000   1.699
   68        0.760   0.879   0.000   1.638
   69        0.760   0.920   0.000   1.680
   70        0.767   0.857   0.000   1.623
   71        0.761   0.952   0.000   1.713
   72        0.734   0.978   0.000   1.711
   73        0.741   0.973   0.000   1.714
   74        0.748   0.912   0.000   1.660
   75        0.747   0.944   0.000   1.691
   76        0.754   0.977   0.000   1.730
   77        0.753   0.949   0.000   1.701
   78        0.756   0.968   0.000   1.724
   79        0.744   0.957   0.000   1.701
   80        0.742   1.002   0.000   1.745
   81        0.754   0.919   0.000   1.673
   82        0.763   0.923   0.000   1.686
   83        0.750   0.917   0.000   1.667
   84        0.763   0.932   0.000   1.695
   85        0.754   0.924   0.000   1.678
   86        0.751   0.885   0.000   1.635
   87        0.748   0.946   0.000   1.694
   88        0.758   0.921   0.000   1.679
   89        0.760   0.840   0.000   1.600
   90        0.751   0.933   0.000   1.684
   91        0.753   0.979   0.000   1.732
   92        0.749   0.897   0.000   1.646
   93        0.757   0.917   0.000   1.673
   94        0.757   0.911   0.000   1.668
   95        0.744   0.953   0.000   1.697
   96        0.757   1.023   0.000   1.780
   97        0.760   0.879   0.000   1.639
   98        0.752   0.934   0.000   1.686
   99        0.748   0.941   0.000   1.689
  100        0.751   0.927   0.000   1.679
  101        0.760   0.922   0.000   1.682
  102        0.756   0.902   0.000   1.659
  103        0.753   0.893   0.000   1.646
  104        0.750   0.926   0.000   1.676
  105        0.756   0.883   0.000   1.638
  106        0.752   0.902   0.000   1.654
  107        0.755   0.947   0.000   1.702
  108        0.748   0.887   0.000   1.635
  109        0.759   0.905   0.000   1.663
  110        0.755   0.906   0.000   1.661
  111        0.748   0.933   0.000   1.681
--------------------------------------------------
tot         81.078  90.991   0.000 172.070


 total amount of memory used by VASP MPI-rank0   202081. kBytes
=======================================================================

   base                                    :      30000. kBytes
   nonl-proj                               :      38147. kBytes
   fftplans                                :      42981. kBytes
   grid                                    :      33148. kBytes
   one-center                              :         21. kBytes
   wavefun                                 :      57784. kBytes

  
  
 General timing and accounting informations for this job:
 ========================================================
  
                  Total CPU time used (sec):     2336.401
                            User time (sec):     2328.679
                          System time (sec):        7.721
                         Elapsed time (sec):     2338.530
  
                   Maximum memory used (kb):      364028.
                   Average memory used (kb):          N/A
  
                          Minor page faults:       260377
                          Major page faults:         1148
                 Voluntary context switches:         2225
