 vasp.6.5.0 16Dec24 (build Jan 20 2025 08:32:48) complex                         
 executed on        HPECrayEX_GCC date 2025.07.29  01:54:18
 running  128 mpi-ranks, with    1 threads/rank, on    1 nodes
 distrk:  each k-point on  128 cores,    1 groups
 distr:  one band on NCORE=  16 cores,    8 groups


--------------------------------------------------------------------------------------------------------


 INCAR:
   SYSTEM = a-Si SPC
   NCORE = 16
   ISTART = 1
   ICHARG = 1
   ISPIN = 1
   ISYM = 1
   EDIFF = 1E-6
   NELM = 150
   EDIFFG = -0.01
   NSW = 0
   ISIF = 2
   IBRION = -1
   PREC = Accurate
   ENCUT = 1200
   KSPACING = 0.23
   KGAMMA = .TRUE.
   METAGGA = SCAN
   LASPH = .TRUE.
   LDIAG = .FALSE.
   LMIXTAU = .TRUE.
   ADDGRID = .TRUE.
   ALGO = Normal
   ISMEAR = 0
   SIGMA = 0.1
   LORBIT = 11
   NEDOS = 2000
   LWAVE = .FALSE.
   LCHARG = .FALSE.

 POTCAR:    PAW_PBE H 15Jun2001                   
 POTCAR:    PAW_PBE Si 05Jan2001                  
 POTCAR:    PAW_PBE H 15Jun2001                   
   SHA256 =  030f79b5d3ab3cf0e668861823c8fb652ff669f3e15e46930bd03bfd63a607b6 H/POTCAR              
   COPYR  = (c) Copyright 15Jun2001 Georg Kresse                                                    
   COPYR  = This file is part of the software VASP. Any use, copying, and all other rights are regul
   COPYR  = If you do not have a valid VASP license, you may not use, copy or distribute this file. 
   VRHFIN =H: ultrasoft test                                                                        
   LEXCH  = PE                                                                                      
   EATOM  =    12.4884 eV,    0.9179 Ry                                                             
                                                                                                    
   TITEL  = PAW_PBE H 15Jun2001                                                                     
   LULTRA =        F    use ultrasoft PP ?                                                          
   IUNSCR =        0    unscreen: 0-lin 1-nonlin 2-no                                               
   RPACOR =    0.000    partial core radius                                                         
   POMASS =    1.000; ZVAL   =    1.000    mass and valenz                                          
   RCORE  =    1.100    outmost cutoff radius                                                       
   RWIGS  =    0.700; RWIGS  =    0.370    wigner-seitz radius (au A)                               
   ENMAX  =  250.000; ENMIN  =  200.000 eV                                                          
   RCLOC  =    0.701    cutoff for local pot                                                        
   LCOR   =        T    correct aug charges                                                         
   LPAW   =        T    paw PP                                                                      
   EAUG   =  400.000                                                                                
   RMAX   =    1.123    core radius for proj-oper                                                   
   RAUG   =    1.200    factor for augmentation sphere                                              
   RDEP   =    1.112    radius for radial grids                                                     
   RDEPT  =    0.926    core radius for aug-charge                                                  
                                                                                                    
   Atomic configuration                                                                             
    2 entries                                                                                       
     n  l   j            E        occ.                                                              
     1  0  0.50        -6.4927   1.0000                                                             
     2  1  0.50        -3.4015   0.0000                                                             
   Description                                                                                      
     l       E           TYP  RCUT    TYP  RCUT                                                     
     0     -6.4927494     23  1.100                                                                 
     0      6.8029130     23  1.100                                                                 
     1     -4.0817478     23  1.100                                                                 
  local pseudopotential read in
  atomic valenz-charges read in
  non local Contribution for L=           0  read in
    real space projection operators read in
  non local Contribution for L=           0  read in
    real space projection operators read in
  non local Contribution for L=           1  read in
    real space projection operators read in
    PAW grid and wavefunctions read in

   number of l-projection  operators is LMAX  =           3
   number of lm-projection operators is LMMAX =           5

 POTCAR:    PAW_PBE Si 05Jan2001                  
   SHA256 =  79d9987ad8750f624c4d6acb2a16d13abf6a777132adc04dc6c8399be72b42bb Si/POTCAR             
   COPYR  = (c) Copyright 05Jan2001 Georg Kresse                                                    
   COPYR  = This file is part of the software VASP. Any use, copying, and all other rights are regul
   COPYR  = If you do not have a valid VASP license, you may not use, copy or distribute this file. 
   VRHFIN =Si: s2p2                                                                                 
   LEXCH  = PE                                                                                      
   EATOM  =   103.0669 eV,    7.5752 Ry                                                             
                                                                                                    
   TITEL  = PAW_PBE Si 05Jan2001                                                                    
   LULTRA =        F    use ultrasoft PP ?                                                          
   IUNSCR =        1    unscreen: 0-lin 1-nonlin 2-no                                               
   RPACOR =    1.500    partial core radius                                                         
   POMASS =   28.085; ZVAL   =    4.000    mass and valenz                                          
   RCORE  =    1.900    outmost cutoff radius                                                       
   RWIGS  =    2.480; RWIGS  =    1.312    wigner-seitz radius (au A)                               
   ENMAX  =  245.345; ENMIN  =  184.009 eV                                                          
   ICORE  =        2    local potential                                                             
   LCOR   =        T    correct aug charges                                                         
   LPAW   =        T    paw PP                                                                      
   EAUG   =  322.069                                                                                
   DEXC   =    0.000                                                                                
   RMAX   =    1.950    core radius for proj-oper                                                   
   RAUG   =    1.300    factor for augmentation sphere                                              
   RDEP   =    1.993    radius for radial grids                                                     
   RDEPT  =    1.837    core radius for aug-charge                                                  
                                                                                                    
   Atomic configuration                                                                             
    6 entries                                                                                       
     n  l   j            E        occ.                                                              
     1  0  0.50     -1785.8828   2.0000                                                             
     2  0  0.50      -139.4969   2.0000                                                             
     2  1  1.50       -95.5546   6.0000                                                             
     3  0  0.50       -10.8127   2.0000                                                             
     3  1  0.50        -4.0811   2.0000                                                             
     3  2  1.50        -4.0817   0.0000                                                             
   Description                                                                                      
     l       E           TYP  RCUT    TYP  RCUT                                                     
     0    -10.8127223     23  1.900                                                                 
     0     -7.6451159     23  1.900                                                                 
     1     -4.0811372     23  1.900                                                                 
     1      2.4879257     23  1.900                                                                 
     2     -4.0817478      7  1.900                                                                 
  local pseudopotential read in
  partial core-charges read in
  partial kinetic energy density read in
  atomic valenz-charges read in
  non local Contribution for L=           0  read in
    real space projection operators read in
  non local Contribution for L=           0  read in
    real space projection operators read in
  non local Contribution for L=           1  read in
    real space projection operators read in
  non local Contribution for L=           1  read in
    real space projection operators read in
    PAW grid and wavefunctions read in

   number of l-projection  operators is LMAX  =           4
   number of lm-projection operators is LMMAX =           8

 -----------------------------------------------------------------------------
|                                                                             |
|               ----> ADVICE to this user running VASP <----                  |
|                                                                             |
|     You have a (more or less) 'large supercell' and for larger cells it     |
|     might be more efficient to use real-space projection operators.         |
|     Therefore, try LREAL= Auto in the INCAR file.                           |
|     Mind: For very accurate calculation, you might also keep the            |
|     reciprocal projection scheme (i.e. LREAL=.FALSE.).                      |
|                                                                             |
 -----------------------------------------------------------------------------

 -----------------------------------------------------------------------------
|                                                                             |
|               ----> ADVICE to this user running VASP <----                  |
|                                                                             |
|     You enforced a specific xc type in the INCAR file but a different       |
|     type was found in the POTCAR file.                                      |
|     I HOPE YOU KNOW WHAT YOU ARE DOING!                                     |
|                                                                             |
 -----------------------------------------------------------------------------

  PAW_PBE H 15Jun2001                   :
 energy of atom  1       EATOM=  -12.4884
 kinetic energy error for atom=    0.0000 (will be added to EATOM!!)
  PAW_PBE Si 05Jan2001                  :
 energy of atom  2       EATOM= -103.0669
 kinetic energy error for atom=    0.0001 (will be added to EATOM!!)


 POSCAR:  H Si
  positions in cartesian coordinates
  No initial velocities read in


 exchange-correlation table for SCAN
   RHO(1)=    0.500       N(1)  =     2000
   RHO(2)=  100.500       N(2)  =     4000



--------------------------------------------------------------------------------------------------------


 ion  position               nearest neighbor table
   1  0.980  0.064  0.436-  27 0.75
   2  0.175  0.079  0.435-  85 1.50
   3  0.074  0.826  0.594-   6 0.74
   4  0.139  0.090  0.620-  68 1.50
   5  0.011  0.210  0.481-  81 1.49
   6  0.079  0.776  0.596-   3 0.74
   7  0.681  0.016  0.579-  76 1.48
   8  0.761  0.860  0.571-  59 1.49
   9  0.906  0.841  0.596-  25 0.74
  10  0.991  0.106  0.576-  47 1.57
  11  0.650  0.049  0.484-  63 1.50
  12  0.933  0.801  0.513-  50 1.50
  13  0.878  0.010  0.583-  47 1.48
  14  0.808  0.066  0.518-  47 1.59
  15  0.082  0.780  0.431-  82 1.49
  16  0.056  0.941  0.566-  32 1.47
  17  0.877  0.179  0.553-  47 1.49
  18  0.622  0.095  0.650-  76 1.47
  19  0.956  0.052  0.502-  47 1.49
  20  0.127  0.065  0.522-  32 1.48
  21  0.783  0.142  0.357-  95 1.47
  22  0.788  0.252  0.510-  26 0.75
  23  0.948  0.246  0.381-  83 1.50
  24  0.834  0.163  0.440-  95 1.49
  25  0.938  0.880  0.600-   9 0.74
  26  0.752  0.216  0.508-  22 0.75
  27  0.002  0.070  0.411-   1 0.75
  28  0.081  0.933  0.479-  32 1.48
  29  0.853  0.916  0.466-  40 1.49
  30  0.739  0.164  0.603-  76 1.48
  31  0.325  0.911  0.458-  45 2.29  78 2.32  91 2.36  62 2.36
  32  0.119  0.964  0.526-  16 1.47  28 1.48  20 1.48  91 2.33
  33  0.279  0.741  0.545-  51 2.36  71 2.38  61 2.40  91 2.40
  34  0.431  0.539  0.387-  72 2.23  41 2.33  57 2.37
  35  0.654  0.282  0.413-  73 2.31  94 2.32  95 2.35
  36  0.159  0.505  0.527-  37 2.30  43 2.31  64 2.32  71 2.34
  37  0.015  0.505  0.562-  77 2.27  46 2.30  36 2.30
  38  0.425  0.091  0.523-  93 2.31  78 2.32  84 2.32  80 2.39
  39  0.646  0.404  0.539-  74 2.37  94 2.38  48 2.41  55 2.45
  40  0.759  0.882  0.455-  29 1.49  59 2.37  52 2.38  63 2.40
  41  0.335  0.628  0.436-  61 2.31  45 2.32  34 2.33  71 2.36  72 3.09
  42  0.215  0.376  0.410-  72 2.24  49 2.26  64 2.29  83 3.10
  43  0.241  0.400  0.573-  56 2.28  36 2.31  88 2.34
  44  0.472  0.531  0.569-  56 2.33  74 2.36  51 2.38  55 2.44  61 2.92
  45  0.380  0.779  0.423-  31 2.29  90 2.31  41 2.32  79 2.57  61 2.68
  46  0.947  0.363  0.564-  37 2.30  48 2.37  81 2.38
  47  0.902  0.081  0.546-  13 1.48  19 1.49  17 1.49  10 1.57  14 1.59
  48  0.810  0.431  0.534-  87 2.36  46 2.37  39 2.41  92 2.42
  49  0.171  0.251  0.366-  42 2.26  83 2.37  85 2.43
  50  0.945  0.700  0.508-  12 1.50  77 2.36  82 2.36  70 2.37
  51  0.383  0.659  0.595-  33 2.36  86 2.37  44 2.38  61 2.51
  52  0.773  0.751  0.403-  75 2.32  70 2.35  40 2.38
  53  0.452  0.270  0.601-  93 2.33  56 2.39  55 2.43  69 2.44
  54  0.492  0.924  0.618-  86 2.26  84 2.36  89 2.44
  55  0.548  0.405  0.612-  53 2.43  44 2.44  39 2.45  56 2.77
  56  0.393  0.395  0.553-  43 2.28  60 2.32  44 2.33  53 2.39  55 2.77
  57  0.579  0.548  0.423-  34 2.37  73 2.39  74 2.40  75 2.40
  58  0.995  0.607  0.383-  65 2.34  82 2.37
  59  0.702  0.824  0.531-   8 1.49  89 2.33  40 2.37  66 2.40  79 3.09
  60  0.423  0.322  0.479-  72 2.27  56 2.32  94 2.37  80 2.38
  61  0.413  0.681  0.505-  79 2.30  41 2.31  33 2.40  51 2.51  45 2.68  44 2.92  71 3.12
  62  0.363  0.022  0.397-  31 2.36  85 2.41  67 2.51  78 2.88
  63  0.674  0.018  0.433-  11 1.50  95 2.37  67 2.38  40 2.40
  64  0.101  0.413  0.464-  42 2.29  65 2.31  36 2.32  81 2.33  83 3.06
  65  0.981  0.457  0.413-  64 2.31  58 2.34  83 2.40  92 2.43
  66  0.706  0.659  0.528-  87 2.33  74 2.37  70 2.39  59 2.40
  67  0.528  0.975  0.401-  78 2.31  63 2.38  90 2.40  62 2.51
  68  0.193  0.178  0.619-   4 1.50  69 2.28  88 2.30
  69  0.346  0.151  0.630-  68 2.28  84 2.40  53 2.44
  70  0.816  0.645  0.464-  52 2.35  50 2.37  66 2.39  92 2.39
  71  0.205  0.641  0.488-  36 2.34  41 2.36  82 2.37  33 2.38  61 3.12
  72  0.361  0.419  0.423-  34 2.23  42 2.24  60 2.27  41 3.09
  73  0.695  0.435  0.410-  35 2.31  92 2.36  57 2.39
  74  0.591  0.549  0.511-  44 2.36  66 2.37  39 2.37  57 2.40
  75  0.622  0.704  0.406-  52 2.32  90 2.34  79 2.36  57 2.40
  76  0.655  0.107  0.599-  18 1.47  30 1.48   7 1.48  93 2.33
  77  0.952  0.639  0.588-  37 2.27  87 2.31  50 2.36
  78  0.471  0.961  0.480-  67 2.31  38 2.32  31 2.32  89 2.38  62 2.88  79 3.01
  79  0.532  0.764  0.471-  61 2.30  75 2.36  89 2.39  90 2.55  45 2.57  78 3.01  59 3.09
  80  0.317  0.199  0.490-  85 2.36  60 2.38  38 2.39  88 2.45
  81  0.051  0.287  0.510-   5 1.49  64 2.33  88 2.36  46 2.38
  82  0.066  0.685  0.450-  15 1.49  50 2.36  71 2.37  58 2.37
  83  0.023  0.316  0.374-  23 1.50  49 2.37  65 2.40  64 3.06  42 3.10
  84  0.365  0.007  0.588-  38 2.32  54 2.36  69 2.40  91 2.46
  85  0.251  0.139  0.417-   2 1.50  80 2.36  62 2.41  49 2.43
  86  0.499  0.771  0.606-  54 2.26  51 2.37  89 2.43
  87  0.809  0.573  0.575-  77 2.31  66 2.33  48 2.36
  88  0.196  0.255  0.545-  68 2.30  43 2.34  81 2.36  80 2.45
  89  0.548  0.868  0.538-  59 2.33  78 2.38  79 2.39  86 2.43  54 2.44
  90  0.514  0.815  0.381-  45 2.31  75 2.34  67 2.40  79 2.55
  91  0.267  0.905  0.539-  32 2.33  31 2.36  33 2.40  84 2.46
  92  0.831  0.483  0.450-  73 2.36  70 2.39  48 2.42  65 2.43
  93  0.545  0.180  0.551-  38 2.31  53 2.33  76 2.33  94 2.35
  94  0.581  0.287  0.489-  35 2.32  93 2.35  60 2.37  39 2.38
  95  0.751  0.153  0.408-  21 1.47  24 1.49  35 2.35  63 2.37

  LATTYP: Found a simple tetragonal cell.
 ALAT       =    14.5641956660
 C/A-ratio  =     1.8635278406
  
  Lattice vectors:
  
 A1 = (  14.5641956660,   0.0000000000,   0.0000000000)
 A2 = (   0.0000000000,  14.5641956660,   0.0000000000)
 A3 = (   0.0000000000,   0.0000000000,  27.1407841000)


Analysis of symmetry for initial positions (statically):
=====================================================================
 Subroutine PRICEL returns:
 Original cell was already a primitive cell.
 

 Routine SETGRP: Setting up the symmetry group for a 
 simple tetragonal supercell.


 Subroutine GETGRP returns: Found  1 space group operations
 (whereof  1 operations were pure point group operations)
 out of a pool of 16 trial point group operations.


The static configuration has the point symmetry C_1 .


Analysis of symmetry for dynamics (positions and initial velocities):
=====================================================================
 Subroutine PRICEL returns:
 Original cell was already a primitive cell.
 

 Routine SETGRP: Setting up the symmetry group for a 
 simple tetragonal supercell.


 Subroutine GETGRP returns: Found  1 space group operations
 (whereof  1 operations were pure point group operations)
 out of a pool of 16 trial point group operations.


The dynamic configuration has the point symmetry C_1 .


 Subroutine INISYM returns: Found  1 space group operations
 (whereof  1 operations are pure point group operations),
 and found     1 'primitive' translations


----------------------------------------------------------------------------------------

                                     Primitive cell                                     

  volume of cell :    5756.9890

  direct lattice vectors                    reciprocal lattice vectors
    14.564195666  0.000000000  0.000000000     0.068661533  0.000000000  0.000000000
     0.000000000 14.564195666  0.000000000     0.000000000  0.068661533  0.000000000
     0.000000000  0.000000000 27.140784100     0.000000000  0.000000000  0.036844919

  length of vectors
    14.564195666 14.564195666 27.140784100     0.068661533  0.068661533  0.036844919

  position of ions in fractional coordinates (direct lattice)
     0.980321517  0.064003713  0.436020130
     0.174675195  0.079392035  0.434723978
     0.074478910  0.826274902  0.593953115
     0.139389271  0.089802556  0.619875880
     0.010507033  0.210114869  0.480649188
     0.079478244  0.775577614  0.596092773
     0.681105878  0.016361778  0.579177177
     0.761058101  0.860038478  0.571417981
     0.906351749  0.841082660  0.595603128
     0.991496450  0.105870538  0.575616139
     0.649602602  0.049393648  0.484065508
     0.932825539  0.801359258  0.513281716
     0.877723611  0.010338994  0.583106796
     0.808034961  0.065778590  0.517696666
     0.081856739  0.780156500  0.431104610
     0.056095098  0.941188472  0.566465879
     0.876514428  0.178836039  0.552875906
     0.621542050  0.094948489  0.649899082
     0.955990395  0.052031705  0.501848727
     0.127125448  0.065172463  0.522040292
     0.782606685  0.141508486  0.357232227
     0.788390318  0.251947665  0.510158789
     0.948214940  0.246073100  0.380713850
     0.834208662  0.162768068  0.439563880
     0.937862581  0.880238272  0.599893253
     0.751830341  0.216321165  0.507609583
     0.001870319  0.070410210  0.411358412
     0.080999514  0.932914368  0.478587427
     0.853245939  0.915834241  0.466163801
     0.738778035  0.163582221  0.602998078
     0.325359306  0.911398307  0.457770221
     0.119438176  0.964055133  0.526041992
     0.278923788  0.741029357  0.544703907
     0.430577068  0.538546918  0.387330085
     0.653718226  0.282000949  0.412735133
     0.158715169  0.505438499  0.526643123
     0.014850649  0.505305906  0.561825673
     0.424830215  0.090949908  0.522668393
     0.646176350  0.404369993  0.538713316
     0.758695321  0.881971940  0.455016166
     0.335019988  0.628366811  0.436322839
     0.215178195  0.375906506  0.409688826
     0.240512713  0.399930819  0.572805521
     0.472086097  0.530967163  0.568892540
     0.380414801  0.779336558  0.423098176
     0.946803251  0.363149613  0.563567135
     0.902154416  0.080575480  0.545948205
     0.809580279  0.430591970  0.533654514
     0.171493670  0.251027177  0.366390082
     0.945330006  0.699515676  0.507544326
     0.382505115  0.658663220  0.594851955
     0.773423141  0.751368552  0.403134540
     0.451605997  0.270375397  0.601379212
     0.492367511  0.924124819  0.617616585
     0.548196278  0.405197624  0.612105344
     0.392876111  0.394852337  0.553402269
     0.578888233  0.548241747  0.422767251
     0.994912667  0.606886461  0.383122546
     0.701824023  0.824471195  0.530767701
     0.422923193  0.321892404  0.478979320
     0.413404244  0.681254982  0.504769808
     0.362708890  0.021989075  0.397234890
     0.674366712  0.017698146  0.433255127
     0.100688819  0.413053146  0.464126782
     0.981111749  0.456673376  0.413227685
     0.705964576  0.659459235  0.528399623
     0.528431389  0.974766607  0.400959640
     0.193087482  0.177509750  0.618652314
     0.346294925  0.151438384  0.629525700
     0.816282368  0.644533410  0.463603416
     0.205223402  0.640971279  0.487743578
     0.360947004  0.419367782  0.422981629
     0.695277433  0.435023032  0.409999293
     0.591197575  0.548637793  0.510818724
     0.621596445  0.704271966  0.405783908
     0.655023170  0.106960697  0.599228952
     0.951712792  0.638835217  0.587956472
     0.471022818  0.961304949  0.479916924
     0.531884647  0.764323529  0.470729732
     0.317245127  0.198672137  0.489733229
     0.050917204  0.286797976  0.509721426
     0.065634326  0.685006886  0.449735946
     0.022552623  0.315630472  0.373534507
     0.365196122  0.007473971  0.587938129
     0.251338159  0.139177911  0.416888273
     0.498615954  0.770553880  0.606162373
     0.809358134  0.573486975  0.574606746
     0.195760521  0.254885855  0.544660476
     0.548202772  0.867790242  0.538487690
     0.513903716  0.814843009  0.381450773
     0.266661665  0.905327234  0.538831536
     0.831227043  0.482778413  0.449882355
     0.544883281  0.180484985  0.550877176
     0.580662761  0.287311830  0.488790401
     0.750598959  0.153417339  0.408314762

  ion indices of the primitive-cell ions
   primitive index   ion index
                 1           1
                 2           2
                 3           3
                 4           4
                 5           5
                 6           6
                 7           7
                 8           8
                 9           9
                10          10
                11          11
                12          12
                13          13
                14          14
                15          15
                16          16
                17          17
                18          18
                19          19
                20          20
                21          21
                22          22
                23          23
                24          24
                25          25
                26          26
                27          27
                28          28
                29          29
                30          30
                31          31
                32          32
                33          33
                34          34
                35          35
                36          36
                37          37
                38          38
                39          39
                40          40
                41          41
                42          42
                43          43
                44          44
                45          45
                46          46
                47          47
                48          48
                49          49
                50          50
                51          51
                52          52
                53          53
                54          54
                55          55
                56          56
                57          57
                58          58
                59          59
                60          60
                61          61
                62          62
                63          63
                64          64
                65          65
                66          66
                67          67
                68          68
                69          69
                70          70
                71          71
                72          72
                73          73
                74          74
                75          75
                76          76
                77          77
                78          78
                79          79
                80          80
                81          81
                82          82
                83          83
                84          84
                85          85
                86          86
                87          87
                88          88
                89          89
                90          90
                91          91
                92          92
                93          93
                94          94
                95          95

----------------------------------------------------------------------------------------


 -----------------------------------------------------------------------------
|                                                                             |
|           W    W    AA    RRRRR   N    N  II  N    N   GGGG   !!!           |
|           W    W   A  A   R    R  NN   N  II  NN   N  G    G  !!!           |
|           W    W  A    A  R    R  N N  N  II  N N  N  G       !!!           |
|           W WW W  AAAAAA  RRRRR   N  N N  II  N  N N  G  GGG   !            |
|           WW  WW  A    A  R   R   N   NN  II  N   NN  G    G                |
|           W    W  A    A  R    R  N    N  II  N    N   GGGG   !!!           |
|                                                                             |
|     The requested file  could not be found or opened for reading            |
|     k-point information. Automatic k-point generation is used as a          |
|     fallback, which may lead to unwanted results.                           |
|                                                                             |
 -----------------------------------------------------------------------------



Automatic generation of k-mesh.
 Grid dimensions derived from KSPACING:
 generate k-points for:    2    2    2

 Generating k-lattice:

  Cartesian coordinates                     Fractional coordinates (reciprocal lattice)
     0.034330766  0.000000000  0.000000000     0.500000000  0.000000000  0.000000000
     0.000000000  0.034330766  0.000000000     0.000000000  0.500000000  0.000000000
     0.000000000  0.000000000  0.018422460     0.000000000  0.000000000  0.500000000

  Length of vectors
     0.034330766  0.034330766  0.018422460

  Shift w.r.t. Gamma in fractional coordinates (k-lattice)
     0.000000000  0.000000000  0.000000000

 
 Subroutine IBZKPT returns following result:
 ===========================================
 
 Found      8 irreducible k-points:
 
 Following reciprocal coordinates:
            Coordinates               Weight
  0.000000  0.000000  0.000000      1.000000
  0.500000  0.000000  0.000000      1.000000
  0.000000  0.500000  0.000000      1.000000
  0.500000  0.500000  0.000000      1.000000
  0.000000  0.000000  0.500000      1.000000
  0.500000  0.000000  0.500000      1.000000
  0.000000  0.500000  0.500000      1.000000
  0.500000  0.500000  0.500000      1.000000
 
 Following cartesian coordinates:
            Coordinates               Weight
  0.000000  0.000000  0.000000      1.000000
  0.034331  0.000000  0.000000      1.000000
  0.000000  0.034331  0.000000      1.000000
  0.034331  0.034331  0.000000      1.000000
  0.000000  0.000000  0.018422      1.000000
  0.034331  0.000000  0.018422      1.000000
  0.000000  0.034331  0.018422      1.000000
  0.034331  0.034331  0.018422      1.000000
 


--------------------------------------------------------------------------------------------------------




 Dimension of arrays:
   k-points           NKPTS =      8   k-points in BZ     NKDIM =      8   number of bands    NBANDS=    200
   number of dos      NEDOS =   2000   number of ions     NIONS =     95
   non local maximal  LDIM  =      4   non local SUM 2l+1 LMDIM =      8
   total plane-waves  NPLWV = ******
   max r-space proj   IRMAX =      1   max aug-charges    IRDMAX= 419778
   dimension x,y,z NGX =   168 NGY =  168 NGZ =  320
   dimension x,y,z NGXF=   336 NGYF=  336 NGZF=  640
   support grid    NGXF=   672 NGYF=  672 NGZF= 1280
   ions per type =              30  65
   NGX,Y,Z   is equivalent  to a cutoff of  19.18, 19.18, 19.60 a.u.
   NGXF,Y,Z  is equivalent  to a cutoff of  38.35, 38.35, 39.20 a.u.

 SYSTEM =  a-Si SPC                                
 POSCAR =   H Si                                   

 Startparameter for this run:
   NWRITE =      2    write-flag & timer
   PREC   = accura    normal or accurate (medium, high low for compatibility)
   ISTART =      1    job   : 0-new  1-cont  2-samecut
   ICHARG =      1    charge: 1-file 2-atom 10-const
   ISPIN  =      1    spin polarized calculation?
   LNONCOLLINEAR =      F non collinear calculations
   LSORBIT =      F    spin-orbit coupling
   INIWAV =      1    electr: 0-lowe 1-rand  2-diag
   LASPH  =      T    aspherical Exc in radial PAW
 Electronic Relaxation 1
   ENCUT  = 1200.0 eV  88.20 Ry    9.39 a.u.  41.14 41.14 76.66*2*pi/ulx,y,z
   ENINI  = 1200.0     initial cutoff
   ENAUG  =  400.0 eV  augmentation charge cutoff
   NELM   =    150;   NELMIN=  2; NELMDL=  0     # of ELM steps 
   EDIFF  = 0.1E-05   stopping-criterion for ELM
   LREAL  =      F    real-space projection
   NLSPLINE    = F    spline interpolate recip. space projectors
   LCOMPAT=      F    compatible to vasp.4.4
   GGA_COMPAT  = T    GGA compatible to vasp.4.4-vasp.4.6
   LMAXPAW     = -100 max onsite density
   LMAXMIX     =    2 max onsite mixed and CHGCAR
   VOSKOWN=      0    Vosko Wilk Nusair interpolation
   ROPT   =    0.00000   0.00000
 Ionic relaxation
   EDIFFG = -.1E-01   stopping-criterion for IOM
   NSW    =      0    number of steps for IOM
   NBLOCK =      1;   KBLOCK =      1    inner block; outer block 
   IBRION =     -1    ionic relax: 0-MD 1-quasi-New 2-CG
   NFREE  =      0    steps in history (QN), initial steepest desc. (CG)
   ISIF   =      2    stress and relaxation
   IWAVPR =     10    prediction:  0-non 1-charg 2-wave 3-comb
   ISYM   =      1    0-nonsym 1-usesym 2-fastsym
   LCORR  =      T    Harris-Foulkes like correction to forces

   POTIM  = 0.5000    time-step for ionic-motion
   TEIN   =    0.0    initial temperature
   TEBEG  =    0.0;   TEEND  =   0.0 temperature during run
   SMASS  =  -3.00    Nose mass-parameter (am)
   estimated Nose-frequenzy (Omega)   =  0.10E-29 period in steps = 0.13E+47 mass=  -0.485E-26a.u.
   SCALEE = 1.0000    scale energy and forces
   NPACO  =    256;   APACO  = 10.0  distance and # of slots for P.C.
   PSTRESS=    0.0 pullay stress

  Mass of Ions in am
   POMASS =   1.00 28.09
  Ionic Valenz
   ZVAL   =   1.00  4.00
  Atomic Wigner-Seitz radii
   RWIGS  =  -1.00 -1.00
  virtual crystal weights 
   VCA    =   1.00  1.00
   NELECT =     290.0000    total number of electrons
   NUPDOWN=      -1.0000    fix difference up-down

 DOS related values:
   EMIN   =  10.00;   EMAX   =-10.00  energy-range for DOS
   EFERMI =   0.00;   METHOD = LEGACY      
   ISMEAR =     0;   SIGMA  =   0.10  broadening in eV -4-tet -1-fermi 0-gaus
   EFERMI_NEDOS =   21; number of points for ismear=-14 and -15

 Electronic relaxation 2 (details)
   IALGO  =     38    algorithm
   LDIAG  =      F    sub-space diagonalisation (order eigenvalues)
   LSUBROT=      F    optimize rotation matrix (better conditioning)
   TURBO    =      0    0=normal 1=particle mesh
   IRESTART =      0    0=no restart 2=restart with 2 vectors
   NREBOOT  =      0    no. of reboots
   NMIN     =      0    reboot dimension
   EREF     =   0.00    reference energy to select bands
   IMIX   =      4    mixing-type and parameters
     AMIX     =   0.40;   BMIX     =  1.00
     AMIX_MAG =   1.60;   BMIX_MAG =  1.00
     AMIN     =   0.10
     WC   =   100.;   INIMIX=   1;  MIXPRE=   1;  MAXMIX= -45

 Intra band minimization:
   WEIMIN = 0.0000     energy-eigenvalue tresh-hold
   EBREAK =  0.13E-08  absolut break condition
   DEPER  =   0.30     relativ break condition  

   TIME   =   0.40     timestep for ELM

  volume/ion in A,a.u.               =      60.60       408.95
  Fermi-wavevector in a.u.,A,eV,Ry     =   0.604611  1.142548  4.973662  0.365554
  Thomas-Fermi vector in A             =   1.658028

 Write flags
   LWAVE        =      F    write WAVECAR
   LDOWNSAMPLE  =      F    k-point downsampling of WAVECAR
   LCHARG       =      F    write CHGCAR
   LVTOT        =      F    write LOCPOT, total local potential
   LVHAR        =      F    write LOCPOT, Hartree potential only
   WRT_POTENTIAL= false  ! write potential to hdf5 file
   LELF         =      F    write electronic localiz. function (ELF)
   LORBIT       =     11    0 simple, 1 ext, 2 COOP (PROOUT), +10 PAW based schemes


 Python interface
   PLUGINS active      =      F    recompile with -DPLUGINS to activate

 Dipole corrections
   LMONO      =      F    monopole corrections only (constant potential shift)
   LDIPOL     =      F    correct potential (dipole corrections)
   IDIPOL     =      0    1-x, 2-y, 3-z, 4-all directions 
   EPSILON    =  1.0000000 bulk dielectric constant
   LVACPOTAV  =      F  vacuum potentials using an averaging scheme for the charge density
   VACPOTFLAT =  0.1000000 required flatness to determine vacuum potential

Coulomb truncation method
  LTRUNCATE          =      F  Coulomb kernel truncation to be used
  IDIMENSIONALITY    =      3  Dimensionality of cutoff (0 molecules / 2 surfaces)
  ISURFACE           =     -1  Direction of surface normal
  LCOARSEN           =      F  Coarsen the charge grid before padding, preferred


 Exchange correlation treatment:
   METAGGA = SCAN    functional components
   XC_C    = 1    coefficients multiplying the functional components
   LIBXC   =     F    Libxc                    
   VOSKOWN =     0    Vosko Wilk Nusair interpolation
   LHFCALC =     F    Hartree Fock is set to
   LHFONE  =     F    Hartree Fock one center treatment
   AEXX    =    0.0000 exact exchange contribution

 Parameters of functionals:
   SCAN:
     P1 =  0.000000E+00
     P2 =  0.000000E+00
     P3 =  0.000000E+00

 Accuracy and mixing parameters for tau-dependent meta-GGA functionals:
   LMAXTAU = 6
   LMIXTAU = T

 Van der Waals corrections
   IVDW    =     0    specifies the selected vdW correction

 Linear response parameters
   LEPSILON=     F    determine dielectric tensor
   LRPA    =     F    only Hartree local field effects (RPA)
   LNABLA  =     F    use nabla operator in PAW spheres
   LVEL    =     F    velocity operator in full k-point grid
   CSHIFT  =0.1000    complex shift for real part using Kramers Kronig
   OMEGAMAX=  -1.0    maximum frequency
   DEG_THRESHOLD= 0.2000000E-02 threshold for treating states as degnerate
   RTIME   =   -0.100 relaxation time in fs
  (WPLASMAI=    0.000 imaginary part of plasma frequency in eV, 0.658/RTIME)
   DFIELD  = 0.0000000 0.0000000 0.0000000 field for delta impulse in time

  Optional k-point grid parameters
   LKPOINTS_OPT  =     F    use optional k-point grid
   KPOINTS_OPT_MODE=     1    mode for optional k-point grid

 Orbital magnetization related:
   ORBITALMAG=     F  switch on orbital magnetization
   LCHIMAG   =     F  perturbation theory with respect to B field
   DQ        =  0.001000  dq finite difference perturbation B field
   LLRAUG    =     F  two centre corrections for induced B field
   LBONE     =     F  B-component reconstruction in AE one-centre
   LVGVCALC  =     T  calculate vGv susceptibility
   LVGVAPPL  =     F  apply vGv susceptibility instead of pGv for G=0

 Random number generation:
   RANDOM_GENERATOR = DEFAULT
   PCG_SEED         = not used


--------------------------------------------------------------------------------------------------------


 Static calculation
 charge density and potential will be updated during run
 non-spin polarized calculation
 Variant of blocked Davidson
 perform Loewdin sub-space diagonalisation
    ordering is kept fixed
    before iterative eigenvector-optimisation
 modified Broyden-mixing scheme, WC =      100.0
 initial mixing is a Kerker type mixing with AMIX =  0.4000 and BMIX =      1.0000
 Hartree-type preconditioning will be used
 using additional bands           55
 reciprocal scheme for non local part
 use partial core corrections
 calculate Harris-corrections to forces   (improved forces if not selfconsistent)
 use gradient corrections 
 use of overlap-Matrix (Vanderbilt PP)
 Gauss-broadening in eV      SIGMA  =   0.10


--------------------------------------------------------------------------------------------------------


  energy-cutoff  :     1200.00
  volume of cell :     5756.99
      direct lattice vectors                 reciprocal lattice vectors
    14.564195666  0.000000000  0.000000000     0.068661533  0.000000000  0.000000000
     0.000000000 14.564195666  0.000000000     0.000000000  0.068661533  0.000000000
     0.000000000  0.000000000 27.140784100     0.000000000  0.000000000  0.036844919

  length of vectors
    14.564195666 14.564195666 27.140784100     0.068661533  0.068661533  0.036844919



 old parameters found on file WAVECAR:
  energy-cutoff  :     1200.00
  volume of cell :     5756.99
      direct lattice vectors                 reciprocal lattice vectors
    14.564195666  0.000000000  0.000000000     0.068661533  0.000000000  0.000000000
     0.000000000 14.564195666  0.000000000     0.000000000  0.068661533  0.000000000
     0.000000000  0.000000000 27.140784100     0.000000000  0.000000000  0.036844919

  length of vectors


 k-points in units of 2pi/SCALE and weight: read from INCAR                         
   0.00000000  0.00000000  0.00000000       0.125
   0.03433077  0.00000000  0.00000000       0.125
   0.00000000  0.03433077  0.00000000       0.125
   0.03433077  0.03433077  0.00000000       0.125
   0.00000000  0.00000000  0.01842246       0.125
   0.03433077  0.00000000  0.01842246       0.125
   0.00000000  0.03433077  0.01842246       0.125
   0.03433077  0.03433077  0.01842246       0.125

 k-points in reciprocal lattice and weights: read from INCAR                         
   0.00000000  0.00000000  0.00000000       0.125
   0.50000000  0.00000000  0.00000000       0.125
   0.00000000  0.50000000  0.00000000       0.125
   0.50000000  0.50000000  0.00000000       0.125
   0.00000000  0.00000000  0.50000000       0.125
   0.50000000  0.00000000  0.50000000       0.125
   0.00000000  0.50000000  0.50000000       0.125
   0.50000000  0.50000000  0.50000000       0.125

 position of ions in fractional coordinates (direct lattice) 
   0.98032152  0.06400371  0.43602013
   0.17467520  0.07939203  0.43472398
   0.07447891  0.82627490  0.59395312
   0.13938927  0.08980256  0.61987588
   0.01050703  0.21011487  0.48064919
   0.07947824  0.77557761  0.59609277
   0.68110588  0.01636178  0.57917718
   0.76105810  0.86003848  0.57141798
   0.90635175  0.84108266  0.59560313
   0.99149645  0.10587054  0.57561614
   0.64960260  0.04939365  0.48406551
   0.93282554  0.80135926  0.51328172
   0.87772361  0.01033899  0.58310680
   0.80803496  0.06577859  0.51769667
   0.08185674  0.78015650  0.43110461
   0.05609510  0.94118847  0.56646588
   0.87651443  0.17883604  0.55287591
   0.62154205  0.09494849  0.64989908
   0.95599040  0.05203170  0.50184873
   0.12712545  0.06517246  0.52204029
   0.78260669  0.14150849  0.35723223
   0.78839032  0.25194766  0.51015879
   0.94821494  0.24607310  0.38071385
   0.83420866  0.16276807  0.43956388
   0.93786258  0.88023827  0.59989325
   0.75183034  0.21632117  0.50760958
   0.00187032  0.07041021  0.41135841
   0.08099951  0.93291437  0.47858743
   0.85324594  0.91583424  0.46616380
   0.73877804  0.16358222  0.60299808
   0.32535931  0.91139831  0.45777022
   0.11943818  0.96405513  0.52604199
   0.27892379  0.74102936  0.54470391
   0.43057707  0.53854692  0.38733009
   0.65371823  0.28200095  0.41273513
   0.15871517  0.50543850  0.52664312
   0.01485065  0.50530591  0.56182567
   0.42483021  0.09094991  0.52266839
   0.64617635  0.40436999  0.53871332
   0.75869532  0.88197194  0.45501617
   0.33501999  0.62836681  0.43632284
   0.21517819  0.37590651  0.40968883
   0.24051271  0.39993082  0.57280552
   0.47208610  0.53096716  0.56889254
   0.38041480  0.77933656  0.42309818
   0.94680325  0.36314961  0.56356714
   0.90215442  0.08057548  0.54594821
   0.80958028  0.43059197  0.53365451
   0.17149367  0.25102718  0.36639008
   0.94533001  0.69951568  0.50754433
   0.38250512  0.65866322  0.59485195
   0.77342314  0.75136855  0.40313454
   0.45160600  0.27037540  0.60137921
   0.49236751  0.92412482  0.61761658
   0.54819628  0.40519762  0.61210534
   0.39287611  0.39485234  0.55340227
   0.57888823  0.54824175  0.42276725
   0.99491267  0.60688646  0.38312255
   0.70182402  0.82447119  0.53076770
   0.42292319  0.32189240  0.47897932
   0.41340424  0.68125498  0.50476981
   0.36270889  0.02198907  0.39723489
   0.67436671  0.01769815  0.43325513
   0.10068882  0.41305315  0.46412678
   0.98111175  0.45667338  0.41322769
   0.70596458  0.65945923  0.52839962
   0.52843139  0.97476661  0.40095964
   0.19308748  0.17750975  0.61865231
   0.34629492  0.15143838  0.62952570
   0.81628237  0.64453341  0.46360342
   0.20522340  0.64097128  0.48774358
   0.36094700  0.41936778  0.42298163
   0.69527743  0.43502303  0.40999929
   0.59119758  0.54863779  0.51081872
   0.62159644  0.70427197  0.40578391
   0.65502317  0.10696070  0.59922895
   0.95171279  0.63883522  0.58795647
   0.47102282  0.96130495  0.47991692
   0.53188465  0.76432353  0.47072973
   0.31724513  0.19867214  0.48973323
   0.05091720  0.28679798  0.50972143
   0.06563433  0.68500689  0.44973595
   0.02255262  0.31563047  0.37353451
   0.36519612  0.00747397  0.58793813
   0.25133816  0.13917791  0.41688827
   0.49861595  0.77055388  0.60616237
   0.80935813  0.57348698  0.57460675
   0.19576052  0.25488586  0.54466048
   0.54820277  0.86779024  0.53848769
   0.51390372  0.81484301  0.38145077
   0.26666167  0.90532723  0.53883154
   0.83122704  0.48277841  0.44988236
   0.54488328  0.18048498  0.55087718
   0.58066276  0.28731183  0.48879040
   0.75059896  0.15341734  0.40831476

 position of ions in cartesian coordinates  (Angst):
  14.27759440  0.93216260 11.83392820
   2.54400372  1.15628113 11.79874964
   1.08472542 12.03402934 16.12035326
   2.03009262  1.30790200 16.82391744
   0.15302649  3.06015406 13.04519584
   1.15753670 11.29566413 16.17842525
   9.91975928  0.23829614 15.71932271
  11.08419910 12.52576867 15.50873204
  13.20028421 12.24969243 16.16513590
  14.44034830  1.54191923 15.62267335
   9.46093940  0.71937876 13.13791743
  13.58585367 11.67115303 13.93086823
  12.78333841  0.15057913 15.82597566
  11.76837928  0.95801225 14.05069344
   1.19217757 11.36235191 11.70051714
   0.81697998 13.70765306 15.37432811
  12.76572763  2.60460306 15.00548559
   9.05226003  1.38284837 17.63877068
  13.92323117  0.75779993 13.62056794
   1.85147990  0.94918450 14.16858286
  11.39803689  2.06095728  9.69556275
  11.48227085  3.66941509 13.84610954
  13.80998792  3.58385678 10.33287240
  12.14957818  2.37058599 11.93010836
  13.65921414 12.81996242 16.28157325
  10.94980419  3.15054378 13.77692210
   0.02723969  1.02546807 11.16458984
   1.17969277 13.58714740 12.98923802
  12.42684080 13.33838909 12.65205107
  10.75970786  2.38244348 16.36584065
   4.73859659 13.27378327 12.42424273
   1.73952096 14.04068759 14.27719212
   4.06230063 10.79249655 14.78369114
   6.27100867  7.84350269 10.51244222
   9.52088016  4.10711700 11.20195514
   2.31155877  7.36130519 14.29350729
   0.21628776  7.35937408 15.24838930
   6.18731037  1.32461226 14.18563000
   9.41103880  5.88932370 14.62110181
  11.04978710 12.84521191 12.34949552
   4.87929665  9.15165719 11.84214398
   3.13389733  5.47477591 11.11927598
   3.50287421  5.82467070 15.54639099
   6.87555429  7.73310965 15.44018961
   5.54043560 11.35041012 11.48321626
  13.78942781  5.28898202 15.29565394
  13.13915343  1.17351705 14.81746237
  11.79088559  6.27122571 14.48380196
   2.49766737  3.65600893  9.94411410
  13.76797118 10.18788318 13.77515097
   5.57087934  9.59290001 16.14474848
  11.26428596 10.94307861 10.94138750
   6.57727811  3.93780019 16.32190335
   7.17093677 13.45913469 16.76259838
   7.98403786  5.90137748 16.61301900
   5.72192456  5.75070669 15.01977149
   8.43104150  7.98470007 11.47423469
  14.49010275  8.83881316 10.39824631
  10.22150239 12.00775980 14.40545159
   6.15953613  4.68810395 12.99987432
   6.02090030  9.92193086 13.69984837
   5.28256324  0.32025318 10.78126638
   9.82160874  0.25775926 11.75888387
   1.46645166  6.01578684 12.59676479
  14.28910348  6.65108040 11.21532339
  10.28180622  9.60449333 14.34118008
   7.69617815 14.19669160 10.88235903
   2.81216387  2.58528673 16.79070888
   5.04350704  2.20557826 17.08582111
  11.88849612  9.38711069 12.58256023
   2.98891378  9.33523112 13.23774315
   5.25690279  6.10775443 11.48005306
  10.12615658  6.33576056 11.12770228
   8.61031716  7.99046816 13.86402069
   9.05305225 10.25715472 11.01329343
   9.53988561  1.55779652 16.26354362
  13.86093132  9.30412110 15.95759967
   6.86006848 14.00063337 13.02532163
   7.74647207 11.13175743 12.77597403
   4.62042010  2.89349987 13.29174384
   0.74156812  4.17698184 13.83423917
   0.95591116  9.97657432 12.20618620
   0.32846082  4.59690395 10.13801942
   5.31878777  0.10885238 15.95710183
   3.66053813  2.02701433 11.31467461
   7.26194032 11.22249748 16.45172209
  11.78765023  8.35237652 15.59527763
   2.85109453  3.71220747 14.78251240
   7.98413244 12.63866688 14.61497813
   7.48459428 11.86753302 10.35287307
   3.88371267 13.18536298 14.62431038
  12.10615329  7.03127927 12.21015988
   7.93578672  2.62861863 14.95123850
   8.45688607  4.18446571 13.26615474
  10.93187011  2.23440015 11.08198279



--------------------------------------------------------------------------------------------------------


 k-point     1 :   0.0000 0.0000 0.0000  plane waves:  543369
 k-point     2 :   0.5000 0.0000 0.0000  plane waves:  543626
 k-point     3 :   0.0000 0.5000 0.0000  plane waves:  543626
 k-point     4 :   0.5000 0.5000 0.0000  plane waves:  543404
 k-point     5 :   0.0000 0.0000 0.5000  plane waves:  543418
 k-point     6 :   0.5000 0.0000 0.5000  plane waves:  543396
 k-point     7 :   0.0000 0.5000 0.5000  plane waves:  543396
 k-point     8 :   0.5000 0.5000 0.5000  plane waves:  543328

 maximum and minimum number of plane-waves per node :     34060    33868

 maximum number of plane-waves:    543626
 maximum index in each direction: 
   IXMAX=   41   IYMAX=   41   IZMAX=   76
   IXMIN=  -41   IYMIN=  -41   IZMIN=  -77


 parallel 3D FFT for wavefunctions:
    minimum data exchange during FFTs selected (reduces bandwidth)
 parallel 3D FFT for charge:
    minimum data exchange during FFTs selected (reduces bandwidth)


 total amount of memory used by VASP MPI-rank0   418249. kBytes
=======================================================================

   base                                    :      30000. kBytes
   nonl-proj                               :      86475. kBytes
   fftplans                                :     108837. kBytes
   grid                                    :      83991. kBytes
   one-center                              :         18. kBytes
   wavefun                                 :     108928. kBytes

     INWAV:  cpu time     32.7395: real time     32.7583
 Broyden mixing: mesh for mixing (old mesh)
   NGX = 83   NGY = 83   NGZ =153
  (NGX  =336   NGY  =336   NGZ  =640)
  gives a total of ****** points

 initial charge density was supplied:
 number of electron     289.9999999 magnetization 
 keeping initial charge density in first step


--------------------------------------------------------------------------------------------------------


 Maximum index for augmentation-charges        11666 (set IRDMAX)


--------------------------------------------------------------------------------------------------------


 First call to EWALD:  gamma=   0.099
 Maximum number of real-space cells   3x   3x   2
 Maximum number of reciprocal cells   2x   2x   4

    FEWALD:  cpu time      0.0147: real time      0.0148


--------------------------------------- Ionic step        1  -------------------------------------------




--------------------------------------- Iteration      1(   1)  ---------------------------------------


    POTLOK:  cpu time      2.1789: real time      2.1799
    SETDIJ:  cpu time      1.6880: real time      1.6889
    EDDIAG:  cpu time     66.4164: real time     66.4546
     EDDAV:  cpu time    304.5203: real time    304.6817
       DOS:  cpu time      0.0068: real time      0.0068
    CHARGE:  cpu time     36.7712: real time     36.8020
    MIXING:  cpu time      0.0515: real time      0.0518
    --------------------------------------------
      LOOP:  cpu time    411.6333: real time    411.8657

 eigenvalue-minimisations  :  3312
 total energy-change (2. order) :-0.7596507E+03  (-0.8508740E+00)
 number of electron     289.9999999 magnetization 
 augmentation part      -14.0954816 magnetization 

 Broyden mixing:
  rms(total) = 0.10050E+01    rms(broyden)= 0.28031E+02
  rms(prec ) = 0.10498E+01
  weight for this iteration     100.00
  WARNING: grid for Broyden might be to small

 Free energy of the ion-electron system (eV)
  ---------------------------------------------------
  alpha Z        PSCENC =        31.23719030
  Ewald energy   TEWEN  =     38347.28051055
  -Hartree energ DENC   =    -44426.17906874
  -exchange      EXHF   =         0.00000000
  -V(xc)+E(xc)   XCENC  =      -226.96316896
  PAW double counting   =     25369.01942585   -24721.47195876
  entropy T*S    EENTRO =        -0.08189347
  eigenvalues    EBANDS =     -2206.48689723
  atomic energy  EATOM  =      7073.99518811
  Solvation  Ediel_sol  =         0.00000000
  ---------------------------------------------------
  free energy    TOTEN  =      -759.65067236 eV

  energy without entropy =     -759.56877889  energy(sigma->0) =     -759.60972563


--------------------------------------------------------------------------------------------------------




--------------------------------------- Iteration      1(   2)  ---------------------------------------


    POTLOK:  cpu time      2.1481: real time      2.1625
    SETDIJ:  cpu time      1.6774: real time      1.6781
    EDDIAG:  cpu time     66.4240: real time     66.4587
     EDDAV:  cpu time    301.8851: real time    302.0412
       DOS:  cpu time      0.0061: real time      0.0061
    CHARGE:  cpu time     36.6910: real time     36.7216
    MIXING:  cpu time      0.0455: real time      0.0457
    --------------------------------------------
      LOOP:  cpu time    408.8772: real time    409.1140

 eigenvalue-minimisations  :  3264
 total energy-change (2. order) : 0.5135076E+02  (-0.9860351E+00)
 number of electron     289.9999999 magnetization 
 augmentation part      -14.1076022 magnetization 

 Broyden mixing:
  rms(total) = 0.75039E+00    rms(broyden)= 0.16950E+02
  rms(prec ) = 0.79666E+00
  weight for this iteration     100.00
  WARNING: grid for Broyden might be to small

 eigenvalues of (default mixing * dielectric matrix)
  average eigenvalue GAMMA=   0.6238
  0.6238

 Free energy of the ion-electron system (eV)
  ---------------------------------------------------
  alpha Z        PSCENC =        31.23719030
  Ewald energy   TEWEN  =     38347.28051055
  -Hartree energ DENC   =    -44415.75913136
  -exchange      EXHF   =         0.00000000
  -V(xc)+E(xc)   XCENC  =      -221.47238678
  PAW double counting   =     30151.65581762   -29503.89399102
  entropy T*S    EENTRO =        -0.09832246
  eigenvalues    EBANDS =     -2171.24478386
  atomic energy  EATOM  =      7073.99518811
  Solvation  Ediel_sol  =         0.00000000
  ---------------------------------------------------
  free energy    TOTEN  =      -708.29990890 eV

  energy without entropy =     -708.20158644  energy(sigma->0) =     -708.25074767


--------------------------------------------------------------------------------------------------------




--------------------------------------- Iteration      1(   3)  ---------------------------------------


    POTLOK:  cpu time      2.1495: real time      2.1549
    SETDIJ:  cpu time      1.6751: real time      1.6761
    EDDIAG:  cpu time     66.2837: real time     66.3227
     EDDAV:  cpu time    298.7092: real time    298.8711
       DOS:  cpu time      0.0038: real time      0.0038
    CHARGE:  cpu time     36.7338: real time     36.7675
    MIXING:  cpu time      0.0414: real time      0.0414
    --------------------------------------------
      LOOP:  cpu time    405.5965: real time    405.8375

 eigenvalue-minimisations  :  3200
 total energy-change (2. order) :-0.1848638E+01  (-0.1260187E+01)
 number of electron     289.9999999 magnetization 
 augmentation part      -13.9987839 magnetization 

 Broyden mixing:
  rms(total) = 0.50882E+00    rms(broyden)= 0.87289E+01
  rms(prec ) = 0.54428E+00
  weight for this iteration     100.00
  WARNING: grid for Broyden might be to small

 eigenvalues of (default mixing * dielectric matrix)
  average eigenvalue GAMMA=   0.5369
  0.6392  0.4346

 Free energy of the ion-electron system (eV)
  ---------------------------------------------------
  alpha Z        PSCENC =        31.23719030
  Ewald energy   TEWEN  =     38347.28051055
  -Hartree energ DENC   =    -44414.89193873
  -exchange      EXHF   =         0.00000000
  -V(xc)+E(xc)   XCENC  =      -224.03335301
  PAW double counting   =     33430.31594583   -32782.66527901
  entropy T*S    EENTRO =        -0.06261243
  eigenvalues    EBANDS =     -2171.32419864
  atomic energy  EATOM  =      7073.99518811
  Solvation  Ediel_sol  =         0.00000000
  ---------------------------------------------------
  free energy    TOTEN  =      -710.14854703 eV

  energy without entropy =     -710.08593460  energy(sigma->0) =     -710.11724081


--------------------------------------------------------------------------------------------------------




--------------------------------------- Iteration      1(   4)  ---------------------------------------


    POTLOK:  cpu time      2.1436: real time      2.1640
    SETDIJ:  cpu time      1.6809: real time      1.6821
    EDDIAG:  cpu time     66.4408: real time     66.4793
     EDDAV:  cpu time    318.0928: real time    318.2623
       DOS:  cpu time      0.0104: real time      0.0106
    CHARGE:  cpu time     36.6748: real time     36.7054
    MIXING:  cpu time      0.0573: real time      0.0578
    --------------------------------------------
      LOOP:  cpu time    425.1006: real time    425.3616

 eigenvalue-minimisations  :  3568
 total energy-change (2. order) :-0.4650139E-01  (-0.1035914E+00)
 number of electron     289.9999999 magnetization 
 augmentation part      -13.9933918 magnetization 

 Broyden mixing:
  rms(total) = 0.20567E+00    rms(broyden)= 0.98768E+01
  rms(prec ) = 0.25923E+00
  weight for this iteration     100.00
  WARNING: grid for Broyden might be to small

 eigenvalues of (default mixing * dielectric matrix)
  average eigenvalue GAMMA=   0.6614
  0.7138  0.6353  0.6353

 Free energy of the ion-electron system (eV)
  ---------------------------------------------------
  alpha Z        PSCENC =        31.23719030
  Ewald energy   TEWEN  =     38347.28051055
  -Hartree energ DENC   =    -44418.27741470
  -exchange      EXHF   =         0.00000000
  -V(xc)+E(xc)   XCENC  =      -223.71979010
  PAW double counting   =     39204.39597994   -38556.80414132
  entropy T*S    EENTRO =        -0.09949197
  eigenvalues    EBANDS =     -2168.20307923
  atomic energy  EATOM  =      7073.99518811
  Solvation  Ediel_sol  =         0.00000000
  ---------------------------------------------------
  free energy    TOTEN  =      -710.19504842 eV

  energy without entropy =     -710.09555645  energy(sigma->0) =     -710.14530244


--------------------------------------------------------------------------------------------------------




--------------------------------------- Iteration      1(   5)  ---------------------------------------


    POTLOK:  cpu time      2.1525: real time      2.1621
    SETDIJ:  cpu time      1.6827: real time      1.6839
    EDDIAG:  cpu time     66.3836: real time     66.4197
     EDDAV:  cpu time    325.7541: real time    325.9264
       DOS:  cpu time      0.0036: real time      0.0036
    CHARGE:  cpu time     36.7220: real time     36.7545
    MIXING:  cpu time      0.0421: real time      0.0421
    --------------------------------------------
      LOOP:  cpu time    432.7406: real time    432.9923

 eigenvalue-minimisations  :  3720
 total energy-change (2. order) : 0.1175452E+00  (-0.2027835E-01)
 number of electron     289.9999999 magnetization 
 augmentation part      -14.0020416 magnetization 

 Broyden mixing:
  rms(total) = 0.13208E+00    rms(broyden)= 0.28523E+01
  rms(prec ) = 0.16484E+00
  weight for this iteration     100.00
  WARNING: grid for Broyden might be to small

 eigenvalues of (default mixing * dielectric matrix)
  average eigenvalue GAMMA=   0.9873
  2.1537  0.5675  0.5675  0.6603

 Free energy of the ion-electron system (eV)
  ---------------------------------------------------
  alpha Z        PSCENC =        31.23719030
  Ewald energy   TEWEN  =     38347.28051055
  -Hartree energ DENC   =    -44420.13687224
  -exchange      EXHF   =         0.00000000
  -V(xc)+E(xc)   XCENC  =      -224.16146928
  PAW double counting   =     39933.82861248   -39286.21810914
  entropy T*S    EENTRO =        -0.07277688
  eigenvalues    EBANDS =     -2165.82977710
  atomic energy  EATOM  =      7073.99518811
  Solvation  Ediel_sol  =         0.00000000
  ---------------------------------------------------
  free energy    TOTEN  =      -710.07750320 eV

  energy without entropy =     -710.00472632  energy(sigma->0) =     -710.04111476


--------------------------------------------------------------------------------------------------------




--------------------------------------- Iteration      1(   6)  ---------------------------------------


    POTLOK:  cpu time      2.1313: real time      2.1504
    SETDIJ:  cpu time      1.6792: real time      1.6801
    EDDIAG:  cpu time     66.3568: real time     66.3961
     EDDAV:  cpu time    326.6257: real time    326.8052
       DOS:  cpu time      0.0032: real time      0.0032
    CHARGE:  cpu time     36.6911: real time     36.7250
    MIXING:  cpu time      0.0426: real time      0.0436
    --------------------------------------------
      LOOP:  cpu time    433.5299: real time    433.8036

 eigenvalue-minimisations  :  3736
 total energy-change (2. order) : 0.7130888E-03  (-0.4992225E-01)
 number of electron     289.9999999 magnetization 
 augmentation part      -14.0491821 magnetization 

 Broyden mixing:
  rms(total) = 0.18843E+00    rms(broyden)= 0.14355E+01
  rms(prec ) = 0.22721E+00
  weight for this iteration     100.00
  WARNING: grid for Broyden might be to small

 eigenvalues of (default mixing * dielectric matrix)
  average eigenvalue GAMMA=   0.8659
  2.1876  0.6386  0.5612  0.5612  0.3808

 Free energy of the ion-electron system (eV)
  ---------------------------------------------------
  alpha Z        PSCENC =        31.23719030
  Ewald energy   TEWEN  =     38347.28051055
  -Hartree energ DENC   =    -44421.34626661
  -exchange      EXHF   =         0.00000000
  -V(xc)+E(xc)   XCENC  =      -224.29547005
  PAW double counting   =     39806.42299865   -39158.78996749
  entropy T*S    EENTRO =        -0.11849713
  eigenvalues    EBANDS =     -2164.46247645
  atomic energy  EATOM  =      7073.99518811
  Solvation  Ediel_sol  =         0.00000000
  ---------------------------------------------------
  free energy    TOTEN  =      -710.07679011 eV

  energy without entropy =     -709.95829298  energy(sigma->0) =     -710.01754155


--------------------------------------------------------------------------------------------------------




--------------------------------------- Iteration      1(   7)  ---------------------------------------


    POTLOK:  cpu time      2.1360: real time      2.1557
    SETDIJ:  cpu time      1.6748: real time      1.6755
    EDDIAG:  cpu time     66.3981: real time     66.4401
     EDDAV:  cpu time    304.1865: real time    304.3556
       DOS:  cpu time      0.0059: real time      0.0059
    CHARGE:  cpu time     36.7223: real time     36.7574
    MIXING:  cpu time      0.0433: real time      0.0433
    --------------------------------------------
      LOOP:  cpu time    411.1670: real time    411.4334

 eigenvalue-minimisations  :  3304
 total energy-change (2. order) : 0.2838337E-01  (-0.3019446E-01)
 number of electron     289.9999999 magnetization 
 augmentation part      -14.0156527 magnetization 

 Broyden mixing:
  rms(total) = 0.35515E-01    rms(broyden)= 0.36713E+00
  rms(prec ) = 0.41520E-01
  weight for this iteration     100.00
  WARNING: grid for Broyden might be to small

 eigenvalues of (default mixing * dielectric matrix)
  average eigenvalue GAMMA=   0.8907
  2.4510  0.6065  0.6065  0.6976  0.6004  0.3824

 Free energy of the ion-electron system (eV)
  ---------------------------------------------------
  alpha Z        PSCENC =        31.23719030
  Ewald energy   TEWEN  =     38347.28051055
  -Hartree energ DENC   =    -44420.70467519
  -exchange      EXHF   =         0.00000000
  -V(xc)+E(xc)   XCENC  =      -224.43932734
  PAW double counting   =     39927.40841571   -39279.78518812
  entropy T*S    EENTRO =        -0.10252804
  eigenvalues    EBANDS =     -2164.93799272
  atomic energy  EATOM  =      7073.99518811
  Solvation  Ediel_sol  =         0.00000000
  ---------------------------------------------------
  free energy    TOTEN  =      -710.04840674 eV

  energy without entropy =     -709.94587871  energy(sigma->0) =     -709.99714273


--------------------------------------------------------------------------------------------------------




--------------------------------------- Iteration      1(   8)  ---------------------------------------


    POTLOK:  cpu time      2.1335: real time      2.1516
    SETDIJ:  cpu time      1.6727: real time      1.6738
    EDDIAG:  cpu time     66.3693: real time     66.4132
     EDDAV:  cpu time    303.7506: real time    303.9131
       DOS:  cpu time      0.0050: real time      0.0050
    CHARGE:  cpu time     36.7614: real time     36.7923
    MIXING:  cpu time      0.0441: real time      0.0441
    --------------------------------------------
      LOOP:  cpu time    410.7366: real time    410.9931

 eigenvalue-minimisations  :  3296
 total energy-change (2. order) : 0.9709372E-02  (-0.3652287E-02)
 number of electron     289.9999999 magnetization 
 augmentation part      -14.0221465 magnetization 

 Broyden mixing:
  rms(total) = 0.22471E-01    rms(broyden)= 0.16325E+00
  rms(prec ) = 0.25445E-01
  weight for this iteration     100.00
  WARNING: grid for Broyden might be to small

 eigenvalues of (default mixing * dielectric matrix)
  average eigenvalue GAMMA=   0.9226
  2.5664  1.0445  0.6778  0.6778  0.6304  0.5469  0.3139

 Free energy of the ion-electron system (eV)
  ---------------------------------------------------
  alpha Z        PSCENC =        31.23719030
  Ewald energy   TEWEN  =     38347.28051055
  -Hartree energ DENC   =    -44420.78604694
  -exchange      EXHF   =         0.00000000
  -V(xc)+E(xc)   XCENC  =      -224.42344314
  PAW double counting   =     39863.51929451   -39215.88741805
  entropy T*S    EENTRO =        -0.11028251
  eigenvalues    EBANDS =     -2164.86369020
  atomic energy  EATOM  =      7073.99518811
  Solvation  Ediel_sol  =         0.00000000
  ---------------------------------------------------
  free energy    TOTEN  =      -710.03869737 eV

  energy without entropy =     -709.92841486  energy(sigma->0) =     -709.98355612


--------------------------------------------------------------------------------------------------------




--------------------------------------- Iteration      1(   9)  ---------------------------------------


    POTLOK:  cpu time      2.1535: real time      2.1728
    SETDIJ:  cpu time      1.6683: real time      1.6693
    EDDIAG:  cpu time     66.4432: real time     66.4838
     EDDAV:  cpu time    310.7024: real time    310.8629
       DOS:  cpu time      0.0049: real time      0.0049
    CHARGE:  cpu time     36.7238: real time     36.7598
    MIXING:  cpu time      0.0452: real time      0.0452
    --------------------------------------------
      LOOP:  cpu time    417.7417: real time    418.0067

 eigenvalue-minimisations  :  3432
 total energy-change (2. order) :-0.5551745E-03  (-0.4719020E-03)
 number of electron     289.9999999 magnetization 
 augmentation part      -14.0178455 magnetization 

 Broyden mixing:
  rms(total) = 0.53009E-02    rms(broyden)= 0.92225E-01
  rms(prec ) = 0.60824E-02
  weight for this iteration     100.00
  WARNING: grid for Broyden might be to small

 eigenvalues of (default mixing * dielectric matrix)
  average eigenvalue GAMMA=   0.9344
  2.5604  1.0128  1.0128  0.6928  0.6548  0.6548  0.5708  0.3157

 Free energy of the ion-electron system (eV)
  ---------------------------------------------------
  alpha Z        PSCENC =        31.23719030
  Ewald energy   TEWEN  =     38347.28051055
  -Hartree energ DENC   =    -44420.90017441
  -exchange      EXHF   =         0.00000000
  -V(xc)+E(xc)   XCENC  =      -224.29097734
  PAW double counting   =     39858.02605246   -39210.38767429
  entropy T*S    EENTRO =        -0.10850357
  eigenvalues    EBANDS =     -2164.89086436
  atomic energy  EATOM  =      7073.99518811
  Solvation  Ediel_sol  =         0.00000000
  ---------------------------------------------------
  free energy    TOTEN  =      -710.03925255 eV

  energy without entropy =     -709.93074898  energy(sigma->0) =     -709.98500076


--------------------------------------------------------------------------------------------------------




--------------------------------------- Iteration      1(  10)  ---------------------------------------


    POTLOK:  cpu time      2.1405: real time      2.1681
    SETDIJ:  cpu time      1.6737: real time      1.6750
    EDDIAG:  cpu time     66.4397: real time     66.4815
     EDDAV:  cpu time    314.7829: real time    314.9531
       DOS:  cpu time      0.0114: real time      0.0115
    CHARGE:  cpu time     36.7196: real time     36.7752
    MIXING:  cpu time      0.0605: real time      0.0607
    --------------------------------------------
      LOOP:  cpu time    421.8278: real time    422.1172

 eigenvalue-minimisations  :  3512
 total energy-change (2. order) :-0.6113440E-04  (-0.1033392E-03)
 number of electron     289.9999999 magnetization 
 augmentation part      -14.0180420 magnetization 

 Broyden mixing:
  rms(total) = 0.25854E-02    rms(broyden)= 0.44770E-01
  rms(prec ) = 0.29152E-02
  weight for this iteration     100.00
  WARNING: grid for Broyden might be to small

 eigenvalues of (default mixing * dielectric matrix)
  average eigenvalue GAMMA=   1.0286
  2.5335  1.9915  0.9585  0.9585  0.3155  0.6641  0.6641  0.5352  0.6360

 Free energy of the ion-electron system (eV)
  ---------------------------------------------------
  alpha Z        PSCENC =        31.23719030
  Ewald energy   TEWEN  =     38347.28051055
  -Hartree energ DENC   =    -44420.89915152
  -exchange      EXHF   =         0.00000000
  -V(xc)+E(xc)   XCENC  =      -224.29051061
  PAW double counting   =     39868.19852804   -39220.55760554
  entropy T*S    EENTRO =        -0.10831488
  eigenvalues    EBANDS =     -2164.89514812
  atomic energy  EATOM  =      7073.99518811
  Solvation  Ediel_sol  =         0.00000000
  ---------------------------------------------------
  free energy    TOTEN  =      -710.03931368 eV

  energy without entropy =     -709.93099880  energy(sigma->0) =     -709.98515624


--------------------------------------------------------------------------------------------------------




--------------------------------------- Iteration      1(  11)  ---------------------------------------


    POTLOK:  cpu time      2.1407: real time      2.1579
    SETDIJ:  cpu time      1.6888: real time      1.6902
    EDDIAG:  cpu time     66.3656: real time     66.4058
     EDDAV:  cpu time    312.2427: real time    312.4103
       DOS:  cpu time      0.0058: real time      0.0058
    CHARGE:  cpu time     36.6282: real time     36.6616
    MIXING:  cpu time      0.0473: real time      0.0473
    --------------------------------------------
      LOOP:  cpu time    419.1191: real time    419.3788

 eigenvalue-minimisations  :  3464
 total energy-change (2. order) :-0.5404138E-04  (-0.2478792E-04)
 number of electron     289.9999999 magnetization 
 augmentation part      -14.0182807 magnetization 

 Broyden mixing:
  rms(total) = 0.13433E-02    rms(broyden)= 0.39074E-01
  rms(prec ) = 0.15236E-02
  weight for this iteration     100.00
  WARNING: grid for Broyden might be to small

 eigenvalues of (default mixing * dielectric matrix)
  average eigenvalue GAMMA=   1.0245
  2.4578  2.4047  0.9393  0.9393  0.3158  0.7036  0.7036  0.6428  0.5691  0.5691

 Free energy of the ion-electron system (eV)
  ---------------------------------------------------
  alpha Z        PSCENC =        31.23719030
  Ewald energy   TEWEN  =     38347.28051055
  -Hartree energ DENC   =    -44420.87229042
  -exchange      EXHF   =         0.00000000
  -V(xc)+E(xc)   XCENC  =      -224.29574959
  PAW double counting   =     39866.04921545   -39218.40700717
  entropy T*S    EENTRO =        -0.10843975
  eigenvalues    EBANDS =     -2164.91798520
  atomic energy  EATOM  =      7073.99518811
  Solvation  Ediel_sol  =         0.00000000
  ---------------------------------------------------
  free energy    TOTEN  =      -710.03936772 eV

  energy without entropy =     -709.93092798  energy(sigma->0) =     -709.98514785


--------------------------------------------------------------------------------------------------------




--------------------------------------- Iteration      1(  12)  ---------------------------------------


    POTLOK:  cpu time      2.1422: real time      2.1569
    SETDIJ:  cpu time      1.6704: real time      1.6710
    EDDIAG:  cpu time     66.3397: real time     66.3814
     EDDAV:  cpu time    306.3753: real time    306.5445
       DOS:  cpu time      0.0035: real time      0.0035
    CHARGE:  cpu time     36.7757: real time     36.8067
    MIXING:  cpu time      0.0469: real time      0.0469
    --------------------------------------------
      LOOP:  cpu time    413.3536: real time    413.6109

 eigenvalue-minimisations  :  3352
 total energy-change (2. order) :-0.7820165E-04  (-0.1146822E-04)
 number of electron     289.9999999 magnetization 
 augmentation part      -14.0182213 magnetization 

 Broyden mixing:
  rms(total) = 0.58546E-03    rms(broyden)= 0.19744E-01
  rms(prec ) = 0.74547E-03
  weight for this iteration     100.00
  WARNING: grid for Broyden might be to small

 eigenvalues of (default mixing * dielectric matrix)
  average eigenvalue GAMMA=   1.0921
  2.5846  2.5846  1.2840  1.1951  0.3158  0.7747  0.7747  0.7180  0.6374  0.5494
  0.5953

 Free energy of the ion-electron system (eV)
  ---------------------------------------------------
  alpha Z        PSCENC =        31.23719030
  Ewald energy   TEWEN  =     38347.28051055
  -Hartree energ DENC   =    -44420.81822631
  -exchange      EXHF   =         0.00000000
  -V(xc)+E(xc)   XCENC  =      -224.29391345
  PAW double counting   =     39864.03981295   -39216.39665116
  entropy T*S    EENTRO =        -0.10832609
  eigenvalues    EBANDS =     -2164.97503082
  atomic energy  EATOM  =      7073.99518811
  Solvation  Ediel_sol  =         0.00000000
  ---------------------------------------------------
  free energy    TOTEN  =      -710.03944592 eV

  energy without entropy =     -709.93111983  energy(sigma->0) =     -709.98528288


--------------------------------------------------------------------------------------------------------




--------------------------------------- Iteration      1(  13)  ---------------------------------------


    POTLOK:  cpu time      2.1449: real time      2.1621
    SETDIJ:  cpu time      1.6695: real time      1.6706
    EDDIAG:  cpu time     66.4032: real time     66.4393
     EDDAV:  cpu time    305.2492: real time    305.4212
       DOS:  cpu time      0.0032: real time      0.0032
    CHARGE:  cpu time     36.7305: real time     36.7659
    MIXING:  cpu time      0.0471: real time      0.0472
    --------------------------------------------
      LOOP:  cpu time    412.2476: real time    412.5094

 eigenvalue-minimisations  :  3328
 total energy-change (2. order) :-0.6763886E-04  (-0.6443515E-05)
 number of electron     289.9999999 magnetization 
 augmentation part      -14.0182468 magnetization 

 Broyden mixing:
  rms(total) = 0.42350E-03    rms(broyden)= 0.11618E-01
  rms(prec ) = 0.55671E-03
  weight for this iteration     100.00
  WARNING: grid for Broyden might be to small

 eigenvalues of (default mixing * dielectric matrix)
  average eigenvalue GAMMA=   1.1059
  2.7468  2.7468  1.5705  1.0878  0.3158  0.8297  0.8297  0.6848  0.6848  0.5540
  0.6273  0.5931

 Free energy of the ion-electron system (eV)
  ---------------------------------------------------
  alpha Z        PSCENC =        31.23719030
  Ewald energy   TEWEN  =     38347.28051055
  -Hartree energ DENC   =    -44420.77426063
  -exchange      EXHF   =         0.00000000
  -V(xc)+E(xc)   XCENC  =      -224.29617985
  PAW double counting   =     39863.87166083   -39216.22831160
  entropy T*S    EENTRO =        -0.10834279
  eigenvalues    EBANDS =     -2165.01696848
  atomic energy  EATOM  =      7073.99518811
  Solvation  Ediel_sol  =         0.00000000
  ---------------------------------------------------
  free energy    TOTEN  =      -710.03951356 eV

  energy without entropy =     -709.93117077  energy(sigma->0) =     -709.98534217


--------------------------------------------------------------------------------------------------------




--------------------------------------- Iteration      1(  14)  ---------------------------------------


    POTLOK:  cpu time      2.1596: real time      2.1609
    SETDIJ:  cpu time      1.6756: real time      1.6762
    EDDIAG:  cpu time     66.4067: real time     66.4480
     EDDAV:  cpu time    305.0735: real time    305.2456
       DOS:  cpu time      0.0041: real time      0.0041
    CHARGE:  cpu time     36.6884: real time     36.7227
    MIXING:  cpu time      0.0479: real time      0.0479
    --------------------------------------------
      LOOP:  cpu time    412.0558: real time    412.3054

 eigenvalue-minimisations  :  3328
 total energy-change (2. order) :-0.6534529E-04  (-0.8905596E-05)
 number of electron     289.9999999 magnetization 
 augmentation part      -14.0183486 magnetization 

 Broyden mixing:
  rms(total) = 0.29321E-03    rms(broyden)= 0.59454E-02
  rms(prec ) = 0.40241E-03
  weight for this iteration     100.00
  WARNING: grid for Broyden might be to small

 eigenvalues of (default mixing * dielectric matrix)
  average eigenvalue GAMMA=   1.1081
  2.7742  2.7742  1.3608  1.3608  1.0827  0.3158  0.8034  0.8034  0.6947  0.5511
  0.6600  0.6118  0.6118

 Free energy of the ion-electron system (eV)
  ---------------------------------------------------
  alpha Z        PSCENC =        31.23719030
  Ewald energy   TEWEN  =     38347.28051055
  -Hartree energ DENC   =    -44420.72713934
  -exchange      EXHF   =         0.00000000
  -V(xc)+E(xc)   XCENC  =      -224.29881549
  PAW double counting   =     39863.49929304   -39215.85594367
  entropy T*S    EENTRO =        -0.10839430
  eigenvalues    EBANDS =     -2165.06146811
  atomic energy  EATOM  =      7073.99518811
  Solvation  Ediel_sol  =         0.00000000
  ---------------------------------------------------
  free energy    TOTEN  =      -710.03957891 eV

  energy without entropy =     -709.93118461  energy(sigma->0) =     -709.98538176


--------------------------------------------------------------------------------------------------------




--------------------------------------- Iteration      1(  15)  ---------------------------------------


    POTLOK:  cpu time      2.1459: real time      2.1660
    SETDIJ:  cpu time      1.6696: real time      1.6705
    EDDIAG:  cpu time     66.3531: real time     66.3945
     EDDAV:  cpu time    304.2584: real time    304.4201
       DOS:  cpu time      0.0035: real time      0.0035
    CHARGE:  cpu time     36.6956: real time     36.7259
    MIXING:  cpu time      0.0488: real time      0.0488
    --------------------------------------------
      LOOP:  cpu time    411.1749: real time    411.4294

 eigenvalue-minimisations  :  3312
 total energy-change (2. order) :-0.6337687E-04  (-0.8113134E-05)
 number of electron     289.9999999 magnetization 
 augmentation part      -14.0183312 magnetization 

 Broyden mixing:
  rms(total) = 0.12854E-03    rms(broyden)= 0.26420E-02
  rms(prec ) = 0.20787E-03
  weight for this iteration     100.00
  WARNING: grid for Broyden might be to small

 eigenvalues of (default mixing * dielectric matrix)
  average eigenvalue GAMMA=   1.1668
  2.8493  2.8493  2.0298  1.6678  1.0407  0.3158  0.8264  0.8264  0.7683  0.7683
  0.5489  0.6210  0.6119  0.6119

 Free energy of the ion-electron system (eV)
  ---------------------------------------------------
[...]
   0.214E+02 -.220E+02 -.142E+03   -.240E+02 0.221E+02 0.140E+03   0.237E+01 0.355E+00 0.113E+01   0.308E-04 -.718E-05 0.629E-05
   -.958E+01 0.242E+02 0.212E+03   0.876E+01 -.245E+02 -.211E+03   0.650E+00 0.257E+00 -.125E+01   0.194E-07 -.128E-04 -.219E-05
   -.474E+01 -.394E+02 0.289E+03   0.482E+01 0.413E+02 -.293E+03   -.543E-02 -.157E+01 0.409E+01   -.141E-04 0.264E-04 -.106E-04
   -.505E+02 -.181E+02 -.115E+03   0.511E+02 0.209E+02 0.116E+03   -.636E+00 -.240E+01 -.728E+00   0.129E-04 0.257E-04 0.195E-04
   -.780E+01 0.118E+02 0.919E+02   0.752E+01 -.113E+02 -.917E+02   0.388E+00 -.103E+01 -.377E+00   0.241E-04 -.215E-04 0.550E-05
   0.101E+02 0.171E+02 -.379E+02   -.115E+02 -.176E+02 0.349E+02   0.137E+01 0.907E-01 0.309E+01   0.760E-06 0.876E-05 0.133E-04
   0.268E+02 -.220E+02 0.283E+03   -.299E+02 0.197E+02 -.284E+03   0.288E+01 0.217E+01 0.113E+01   0.250E-05 -.238E-05 0.167E-05
   -.434E+02 -.126E+02 0.182E+03   0.440E+02 0.144E+02 -.179E+03   -.386E+00 -.138E+01 -.352E+01   0.168E-04 0.127E-04 0.151E-04
   0.115E+02 -.588E+01 0.856E+02   -.108E+02 0.495E+01 -.845E+02   -.607E+00 0.806E+00 -.958E+00   -.111E-04 -.668E-05 0.232E-04
   0.207E+02 0.356E+01 0.215E+03   -.186E+02 -.362E+00 -.214E+03   -.224E+01 -.294E+01 -.139E+01   -.196E-04 0.885E-05 0.807E-05
   -.938E+01 -.199E+02 -.121E+03   0.123E+02 0.183E+02 0.120E+03   -.292E+01 0.145E+01 0.929E+00   0.626E-05 0.100E-04 0.206E-04
   -.225E+02 -.470E+02 0.280E+03   0.236E+02 0.462E+02 -.277E+03   -.114E+01 0.955E+00 -.366E+01   0.805E-05 0.110E-04 0.498E-05
   0.634E+02 -.357E+01 -.289E+03   -.615E+02 0.221E+01 0.285E+03   -.134E+01 0.119E+01 0.293E+01   -.357E-04 -.219E-04 0.129E-07
   0.751E+01 0.438E+01 -.315E+03   -.101E+02 -.564E+01 0.315E+03   0.238E+01 0.138E+01 0.452E-01   -.268E-05 -.748E-05 0.127E-05
   -.310E+02 -.126E+02 0.105E+03   0.312E+02 0.148E+02 -.104E+03   -.859E-01 -.214E+01 -.797E+00   0.107E-04 0.378E-05 0.138E-04
   0.360E+02 -.204E+02 0.291E+02   -.379E+02 0.207E+02 -.286E+02   0.117E+01 -.261E+00 -.563E+00   -.641E-05 0.203E-04 0.968E-05
   0.229E+00 0.121E+02 0.206E+03   0.664E+00 -.111E+02 -.206E+03   -.232E+00 -.668E+00 0.322E+00   0.233E-04 -.510E-05 -.395E-05
   -.186E+02 0.169E+02 0.250E+03   0.192E+02 -.179E+02 -.249E+03   -.559E+00 0.686E+00 -.180E+01   -.881E-05 -.194E-04 0.546E-05
   -.826E+01 -.111E+01 -.420E+02   0.950E+01 -.384E+00 0.423E+02   -.103E+01 0.155E+01 -.195E+00   0.290E-05 -.143E-04 0.104E-04
   -.317E+02 0.986E+01 0.261E+03   0.338E+02 -.940E+01 -.259E+03   -.168E+01 -.848E+00 -.153E+01   -.736E-05 0.272E-05 0.521E-05
   -.452E+02 0.601E+00 -.232E+03   0.482E+02 -.217E+01 0.235E+03   -.248E+01 0.134E+01 -.216E+01   0.482E-04 -.823E-05 0.409E-05
   -.223E+02 -.409E+02 -.269E+03   0.234E+02 0.411E+02 0.269E+03   -.867E+00 -.794E-01 0.797E+00   -.111E-04 0.205E-04 0.917E-05
   -.161E+02 -.248E+02 0.439E+02   0.147E+02 0.256E+02 -.445E+02   0.144E+01 -.689E+00 0.641E+00   0.298E-05 0.272E-05 0.117E-04
   -.257E+02 -.329E+01 0.583E+02   0.252E+02 0.152E+01 -.569E+02   0.368E+00 0.164E+01 -.956E+00   0.499E-05 0.165E-04 0.748E-05
   0.265E+02 0.145E+02 0.432E+02   -.258E+02 -.148E+02 -.432E+02   -.560E+00 0.276E+00 0.196E-02   0.235E-05 -.163E-04 0.169E-04
   0.345E+02 0.424E+02 -.400E+02   -.342E+02 -.420E+02 0.383E+02   -.386E+00 -.430E+00 0.196E+01   -.253E-04 -.411E-04 0.328E-04
   -.589E+01 -.404E+02 0.133E+03   0.492E+01 0.418E+02 -.135E+03   0.982E+00 -.149E+01 0.107E+01   -.589E-05 0.215E-04 0.563E-05
   0.277E+02 0.209E+02 0.283E+03   -.286E+02 -.223E+02 -.282E+03   0.998E+00 0.964E+00 -.945E+00   -.334E-04 -.232E-04 0.444E-05
   0.467E+02 0.216E+02 -.236E+03   -.424E+02 -.218E+02 0.235E+03   -.426E+01 -.271E+00 0.143E+01   -.509E-06 0.362E-05 0.695E-06
   0.212E+02 0.167E+02 0.221E+03   -.226E+02 -.189E+02 -.217E+03   0.141E+01 0.206E+01 -.398E+01   0.822E-05 -.192E-04 0.124E-04
   -.229E+02 0.285E+02 -.294E+03   0.255E+02 -.271E+02 0.294E+03   -.227E+01 -.177E+01 0.112E+00   0.841E-05 0.110E-04 0.826E-05
   0.327E+01 -.246E+01 -.252E+03   -.173E+01 0.348E+01 0.250E+03   -.154E+01 -.663E+00 0.168E+01   0.826E-05 0.550E-05 0.120E-04
   0.382E+02 0.233E+02 -.110E+03   -.395E+02 -.218E+02 0.111E+03   0.103E+01 -.125E+01 -.144E+01   -.178E-04 -.406E-04 0.946E-05
   -.315E+02 -.192E+02 -.123E+03   0.335E+02 0.192E+02 0.123E+03   -.122E+01 -.222E-01 0.150E+00   0.104E-04 0.134E-04 0.106E-04
   -.497E+01 -.138E+02 0.331E+03   0.387E+01 0.125E+02 -.330E+03   0.474E+00 0.132E+01 -.891E+00   -.341E-05 0.998E-05 0.910E-05
   0.556E+02 0.888E+01 -.121E+03   -.581E+02 -.693E+01 0.119E+03   0.198E+01 -.163E+01 0.157E+01   -.728E-05 0.111E-04 -.383E-05
   -.184E+02 0.243E+02 0.137E+03   0.170E+02 -.238E+02 -.136E+03   0.139E+01 -.528E+00 -.148E+01   -.110E-04 -.735E-05 0.979E-05
   -.503E+02 0.124E+02 -.120E+03   0.489E+02 -.126E+02 0.121E+03   0.155E+01 0.610E-01 -.705E+00   0.249E-04 -.347E-05 0.183E-06
   -.293E+02 0.235E+02 0.518E+02   0.294E+02 -.228E+02 -.509E+02   -.282E+00 -.429E+00 -.766E+00   0.217E-04 -.133E-04 0.432E-05
   -.232E+02 0.838E+01 0.212E+03   0.267E+02 -.880E+01 -.213E+03   -.301E+01 0.343E+00 0.895E+00   -.223E-05 -.742E-05 0.125E-04
 -----------------------------------------------------------------------------------------------
   0.164E+02 0.684E+01 0.118E+02   -.746E-13 0.533E-13 0.284E-13   -.164E+02 -.684E+01 -.118E+02   0.323E-04 -.302E-04 0.695E-03


 POSITION                                       TOTAL-FORCE (eV/Angst)
 -----------------------------------------------------------------------------------
     14.27759      0.93216     11.83393         0.027446     -0.010949     -0.106105
      2.54400      1.15628     11.79875         0.139108     -0.070612     -0.151211
      1.08473     12.03403     16.12035         0.147216     -0.087677      0.059526
      2.03009      1.30790     16.82392         0.119546      0.009903      0.191085
      0.15303      3.06015     13.04520         0.054073      0.084561     -0.021617
      1.15754     11.29566     16.17843         0.091247     -0.101046      0.087898
      9.91976      0.23830     15.71932        -0.032345      0.073562     -0.037576
     11.08420     12.52577     15.50873        -0.061725     -0.153204      0.005913
     13.20028     12.24969     16.16514        -0.020882     -0.078402      0.108882
     14.44035      1.54192     15.62267         0.249834      0.004269     -0.031721
      9.46094      0.71938     13.13792        -0.207995     -0.063474     -0.026962
     13.58585     11.67115     13.93087        -0.048104     -0.122212     -0.059280
     12.78334      0.15058     15.82598        -0.122953     -0.154116      0.138290
     11.76838      0.95801     14.05069        -0.165862     -0.044037     -0.130489
      1.19218     11.36235     11.70052        -0.017935     -0.007613     -0.001518
      0.81698     13.70765     15.37433        -0.046238      0.149676     -0.001005
     12.76573      2.60460     15.00549        -0.094370      0.296618      0.033213
      9.05226      1.38285     17.63877        -0.229429      0.046436      0.159888
     13.92323      0.75780     13.62057         0.031526     -0.119673      0.005006
      1.85148      0.94918     14.16858         0.237169      0.025051      0.063511
     11.39804      2.06096      9.69556         0.045883      0.056096     -0.277563
     11.48227      3.66942     13.84611        -0.101114     -0.029604      0.048896
     13.80999      3.58386     10.33287        -0.049261      0.042461     -0.170646
     12.14958      2.37059     11.93011        -0.077738     -0.064789     -0.126467
     13.65921     12.81996     16.28157        -0.073870      0.026282      0.086277
     10.94980      3.15054     13.77692        -0.008232      0.032703      0.028944
      0.02724      1.02547     11.16459         0.016375     -0.010170     -0.118205
      1.17969     13.58715     12.98924         0.022561     -0.236259     -0.050014
     12.42684     13.33839     12.65205        -0.079096      0.030422     -0.123825
     10.75971      2.38244     16.36584         0.070737      0.222981     -0.083878
      4.73860     13.27378     12.42424        -0.061083      0.183565      0.138540
      1.73952     14.04069     14.27719        -0.258467      0.097181      0.053057
      4.06230     10.79250     14.78369         0.004974      0.109583     -0.535403
      6.27101      7.84350     10.51244         0.023201     -0.254526     -0.376127
      9.52088      4.10712     11.20196        -0.123490      0.207364      0.065474
      2.31156      7.36131     14.29351         0.329517      0.133465     -0.000876
      0.21629      7.35937     15.24839        -0.329757     -0.051786      0.101064
      6.18731      1.32461     14.18563        -0.166585      0.404159     -0.123318
      9.41104      5.88932     14.62110        -0.089150     -0.234374     -0.146513
     11.04979     12.84521     12.34950         0.338752      0.029714     -0.149976
      4.87930      9.15166     11.84214        -0.155624     -0.416563      0.217880
      3.13390      5.47478     11.11928        -0.417254     -0.090617     -0.148530
      3.50287      5.82467     15.54639        -0.238790     -0.019662      0.235388
      6.87555      7.73311     15.44019        -0.108596      0.261402     -0.074853
      5.54044     11.35041     11.48322         0.201453      0.016527      0.120353
     13.78943      5.28898     15.29565         0.259552     -0.022134     -0.097437
     13.13915      1.17352     14.81746         0.014784      0.091513      0.195933
     11.79089      6.27123     14.48380        -0.146234     -0.024097      0.279934
      2.49767      3.65601      9.94411        -0.181156      0.602382     -0.184502
     13.76797     10.18788     13.77515        -0.037935      0.209421      0.016042
      5.57088      9.59290     16.14475         0.371255      0.318747     -0.089657
     11.26429     10.94308     10.94139         0.040451     -0.157684      0.113714
      6.57728      3.93780     16.32190         0.031472     -0.252259     -0.035318
      7.17094     13.45913     16.76260        -0.137805     -0.058309     -0.367141
      7.98404      5.90138     16.61302        -0.271699      0.117499     -0.082530
      5.72192      5.75071     15.01977        -0.036355      0.380635     -0.227501
      8.43104      7.98470     11.47423        -0.104628      0.003790      0.143834
     14.49010      8.83881     10.39825         0.139815      0.169603     -0.181954
     10.22150     12.00776     14.40545        -0.050912      0.185071      0.164769
      6.15954      4.68810     12.99987         0.073850     -0.558986     -0.084252
      6.02090      9.92193     13.69985         0.006885     -0.304294      0.239171
      5.28256      0.32025     10.78127         0.002717     -0.039330      0.133398
      9.82161      0.25776     11.75888         0.130142      0.397400      0.276318
      1.46645      6.01579     12.59676         0.138293     -0.098856      0.023718
     14.28910      6.65108     11.21532        -0.221113      0.069709     -0.399196
     10.28181      9.60449     14.34118        -0.087034     -0.168530      0.303259
      7.69618     14.19669     10.88236        -0.197111      0.153669     -0.044482
      2.81216      2.58529     16.79071         0.543637     -0.247257     -0.407462
      5.04351      2.20558     17.08582        -0.145933      0.230634     -0.048605
     11.88850      9.38711     12.58256         0.162621     -0.068747      0.219238
      2.98891      9.33523     13.23774        -0.583775     -0.059699     -0.097120
      5.25690      6.10775     11.48005         0.614211      0.269070      0.133690
     10.12616      6.33576     11.12770         0.020344     -0.331063      0.076006
      8.61032      7.99047     13.86402         0.170677      0.110134      0.123866
      9.05305     10.25715     11.01329         0.341013     -0.375760      0.302099
      9.53989      1.55780     16.26354         0.401297     -0.171731     -0.008812
     13.86093      9.30412     15.95760         0.090663     -0.077259      0.245081
      6.86007     14.00063     13.02532        -0.007082      0.139001     -0.007673
      7.74647     11.13176     12.77597        -0.144189     -0.012884      0.321123
      4.62042      2.89350     13.29174         0.177576      0.001123      0.023440
      0.74157      4.17698     13.83424        -0.121737     -0.074480      0.288088
      0.95591      9.97657     12.20619         0.067661     -0.036120     -0.103061
      0.32846      4.59690     10.13802         0.075812     -0.436068      0.643968
      5.31879      0.10885     15.95710        -0.185690     -0.387341      0.383941
      3.66054      2.02701     11.31467         0.079064     -0.060846      0.083026
      7.26194     11.22250     16.45172         0.046572     -0.252952     -0.188863
     11.78765      8.35238     15.59528        -0.037386      0.332971     -0.736361
      2.85109      3.71221     14.78251        -0.245668      0.135760      0.225356
      7.98413     12.63867     14.61498         0.709050     -0.144629      0.004208
      7.48459     11.86753     10.35287        -0.612779      0.040470      0.235439
      3.88371     13.18536     14.62431        -0.307381      0.219172      0.011553
     12.10615      7.03128     12.21016         0.050488     -0.013936     -0.372418
      7.93579      2.62862     14.95124         0.105348     -0.086612     -0.206104
      8.45689      4.18447     13.26615        -0.201128      0.291386      0.040612
     10.93187      2.23440     11.08198         0.434808     -0.069915     -0.155778
 -----------------------------------------------------------------------------------
    total drift:                                0.007600     -0.000583      0.005255


--------------------------------------------------------------------------------------------------------



  FREE ENERGIE OF THE ION-ELECTRON SYSTEM (eV)
  ---------------------------------------------------
  free  energy   TOTEN  =      -710.03976758 eV

  energy  without entropy=     -709.93140175  energy(sigma->0) =     -709.98558467



--------------------------------------------------------------------------------------------------------


    POTLOK:  cpu time      3.8222: real time      3.8251


--------------------------------------------------------------------------------------------------------


     LOOP+:  cpu time   9750.4299: real time   9756.6774
    4ORBIT:  cpu time      0.0000: real time      0.0000



 total charge

# of ion       s       p       d       tot
------------------------------------------
    1        0.605   0.034   0.000   0.639
    2        0.559   0.016   0.000   0.575
    3        0.612   0.034   0.000   0.646
    4        0.553   0.016   0.000   0.569
    5        0.562   0.016   0.000   0.577
    6        0.617   0.033   0.000   0.650
    7        0.575   0.016   0.000   0.591
    8        0.563   0.016   0.000   0.578
    9        0.617   0.033   0.000   0.650
   10        0.550   0.011   0.000   0.561
   11        0.566   0.016   0.000   0.582
   12        0.563   0.015   0.000   0.578
   13        0.582   0.015   0.000   0.596
   14        0.546   0.010   0.000   0.556
   15        0.566   0.015   0.000   0.581
   16        0.585   0.016   0.000   0.601
   17        0.578   0.015   0.000   0.593
   18        0.582   0.016   0.000   0.598
   19        0.584   0.014   0.000   0.598
   20        0.576   0.016   0.000   0.591
   21        0.581   0.015   0.000   0.597
   22        0.611   0.033   0.000   0.645
   23        0.564   0.016   0.000   0.580
   24        0.567   0.016   0.000   0.582
   25        0.615   0.033   0.000   0.649
   26        0.613   0.033   0.000   0.646
   27        0.618   0.031   0.000   0.649
   28        0.578   0.016   0.000   0.593
   29        0.562   0.016   0.000   0.577
   30        0.580   0.016   0.000   0.595
   31        0.762   0.958   0.000   1.720
   32        0.739   1.026   0.000   1.765
   33        0.771   0.878   0.000   1.650
   34        0.804   0.879   0.000   1.683
   35        0.764   0.907   0.000   1.671
   36        0.753   0.971   0.000   1.724
   37        0.795   0.882   0.000   1.676
   38        0.761   0.952   0.000   1.714
   39        0.762   0.900   0.000   1.662
   40        0.741   0.953   0.000   1.695
   41        0.758   0.929   0.000   1.687
   42        0.787   0.914   0.000   1.701
   43        0.789   0.899   0.000   1.688
   44        0.762   0.883   0.000   1.645
   45        0.780   0.900   0.000   1.680
   46        0.786   0.867   0.000   1.653
   47        0.702   1.044   0.000   1.745
   48        0.763   0.881   0.000   1.643
   49        0.784   0.869   0.000   1.654
   50        0.747   0.947   0.000   1.694
   51        0.801   0.847   0.000   1.648
   52        0.803   0.859   0.000   1.661
   53        0.764   0.883   0.000   1.648
   54        0.840   0.813   0.000   1.653
   55        0.833   0.765   0.000   1.598
   56        0.760   0.944   0.000   1.704
   57        0.754   0.899   0.000   1.653
   58        0.871   0.730   0.000   1.601
   59        0.746   0.945   0.000   1.691
   60        0.759   0.956   0.000   1.715
   61        0.763   0.907   0.000   1.670
   62        0.808   0.786   0.000   1.594
   63        0.746   0.942   0.000   1.688
   64        0.772   0.943   0.000   1.715
   65        0.757   0.916   0.000   1.673
   66        0.753   0.926   0.000   1.679
   67        0.759   0.897   0.000   1.656
   68        0.779   0.904   0.000   1.683
   69        0.783   0.847   0.000   1.630
   70        0.761   0.914   0.000   1.675
   71        0.750   0.916   0.000   1.666
   72        0.786   0.927   0.000   1.713
   73        0.779   0.856   0.000   1.635
   74        0.759   0.907   0.000   1.667
   75        0.765   0.902   0.000   1.667
   76        0.734   1.032   0.000   1.765
   77        0.816   0.881   0.000   1.697
   78        0.783   0.925   0.000   1.708
   79        0.769   0.915   0.000   1.683
   80        0.760   0.899   0.000   1.659
   81        0.748   0.952   0.000   1.700
   82        0.746   0.971   0.000   1.717
   83        0.782   0.852   0.000   1.634
   84        0.764   0.895   0.000   1.659
   85        0.750   0.909   0.000   1.659
   86        0.816   0.835   0.000   1.651
   87        0.804   0.848   0.000   1.652
   88        0.755   0.919   0.000   1.674
   89        0.746   0.933   0.000   1.679
   90        0.797   0.861   0.000   1.658
   91        0.752   0.905   0.000   1.658
   92        0.764   0.879   0.000   1.643
   93        0.749   0.974   0.000   1.723
   94        0.752   0.924   0.000   1.676
   95        0.735   0.997   0.000   1.732
--------------------------------------------------
tot         67.514  59.475   0.000 126.988


 total amount of memory used by VASP MPI-rank0   418249. kBytes
=======================================================================

   base                                    :      30000. kBytes
   nonl-proj                               :      86475. kBytes
   fftplans                                :     108837. kBytes
   grid                                    :      83991. kBytes
   one-center                              :         18. kBytes
   wavefun                                 :     108928. kBytes

  
  
 General timing and accounting informations for this job:
 ========================================================
  
                  Total CPU time used (sec):     9916.518
                            User time (sec):     8766.314
                          System time (sec):     1150.204
                         Elapsed time (sec):     9922.894
  
                   Maximum memory used (kb):      687980.
                   Average memory used (kb):          N/A
  
                          Minor page faults:     15716559
                          Major page faults:         1190
                 Voluntary context switches:         3375
