ITEM: TIMESTEP
129439
ITEM: NUMBER OF ATOMS
10500
ITEM: BOX BOUNDS pp pp pp
-5.5293550762886923e-01 5.8474119113806310e+01
-5.5293550762886923e-01 5.8474119113806310e+01
-5.5293550762886923e-01 6.2123960305905193e+01
ITEM: ATOMS id type xs ys zs
1 2 0.366802 0.383692 0.277583
2 2 0.172354 0.0335945 0.275525
3 2 0.168713 0.0548571 0.213818
4 2 0.529125 0.139269 0.204832
5 2 0.0402313 0.475494 0.00320229
6 2 0.663303 0.198914 0.109785
7 2 0.303703 0.424053 0.652406
8 2 0.284199 0.190898 0.450637
9 2 0.441672 0.204459 0.046723
10 2 0.829444 0.0863229 0.176774
11 2 0.27944 0.859234 0.786652
12 2 0.335401 0.841586 0.253458
13 2 0.466157 0.0699462 0.57152
14 2 0.251074 0.317448 0.0703059
15 2 0.248591 0.412608 0.425256
16 2 0.296804 0.179038 0.107667
17 2 0.699124 0.184505 0.616393
18 2 0.131406 0.125812 0.170712
19 2 0.290387 0.990606 0.481108
20 2 0.0978699 0.230023 0.867602
21 2 0.423567 0.945994 0.561396
22 2 0.339617 0.103464 0.0415398
23 2 0.322529 0.225854 0.820848
24 2 0.187543 0.67602 0.35857
25 2 0.668331 0.929196 0.119735
26 2 0.480541 0.643639 0.126482
27 2 0.0615658 0.856622 0.403009
28 2 0.195749 0.55097 0.35606
29 2 0.219541 0.574576 0.740204
30 2 0.243384 0.905052 0.43329
31 2 0.719372 0.900616 0.139353
32 2 0.368531 0.279957 0.979298
33 2 0.366353 0.388662 0.0723845
34 2 0.380431 0.321131 0.242422
35 2 0.0768708 0.398974 0.0556003
36 2 0.326138 0.435049 0.949994
37 2 0.247651 0.98924 0.25275
38 2 0.577052 0.56489 0.345001
39 2 0.27983 0.804455 0.81972
40 2 0.308562 0.315358 0.461989
41 2 0.184756 0.223265 0.593326
42 2 0.017851 0.0190783 0.574336
43 2 0.246261 0.153021 0.18644
44 2 0.574741 0.964299 0.492499
45 2 0.292077 0.234737 0.878721
46 2 0.00231502 0.791942 0.912644
47 2 0.387102 0.427181 0.166637
48 2 0.42945 0.212332 0.520518
49 2 0.895921 0.924137 0.133058
50 2 0.878066 0.627461 0.121353
51 2 0.294953 0.324388 0.375099
52 2 0.368747 0.109961 0.977227
53 2 0.154061 0.281518 0.256395
54 2 0.267188 0.414714 0.606921
55 2 0.0438187 0.352869 0.64348
56 2 0.501594 0.0822434 0.35111
57 2 0.383876 0.241164 0.0319324
58 2 0.179188 0.343844 0.389161
59 2 0.253984 0.129021 0.0233176
60 2 0.297663 0.349962 0.284669
61 2 0.515815 0.23702 0.127224
62 2 0.85465 0.0658393 0.78533
63 2 0.066228 0.0272396 0.363381
64 2 0.220435 0.351561 0.313637
65 2 0.222765 0.238318 0.964187
66 2 0.0320011 0.592933 0.554667
67 2 0.288088 0.223661 0.55923
68 2 0.0896908 0.769422 0.104142
69 2 0.0105539 0.0997143 0.0149592
70 2 0.304591 0.387014 0.29641
71 2 0.0300643 0.449403 0.461925
72 2 0.163086 0.816186 0.276321
73 2 0.116707 0.117996 0.0186899
74 2 0.16681 0.898939 0.449233
75 2 0.325848 0.973368 0.982292
76 2 0.0314256 0.80238 0.640997
77 2 0.148566 0.791119 0.53544
78 2 0.297239 0.119485 0.490301
79 2 0.388888 0.739476 0.24436
80 2 0.0132253 0.15324 0.398853
81 2 0.170842 0.366488 0.448596
82 2 0.128473 0.468869 0.434148
83 2 0.00669441 0.961914 0.149662
84 2 0.554137 0.344501 0.279955
85 2 0.835308 0.856567 0.93722
86 2 0.357452 0.641526 0.698712
87 2 0.358477 0.145288 0.960515
88 2 0.982514 0.161429 0.568727
89 2 0.173738 0.0591272 0.910977
90 2 0.5572 0.0876062 0.430569
91 2 0.790929 0.370315 0.0382138
92 2 0.224593 0.354202 0.429318
93 2 0.344347 0.243178 0.584767
94 2 0.378643 0.34246 0.0341436
95 2 0.183854 0.236539 0.30899
96 2 0.60326 0.0679615 0.32452
97 2 0.0899813 0.112714 0.117004
98 2 0.289329 0.28218 0.476047
99 2 0.221252 0.262245 0.655901
100 2 0.301309 0.323048 0.312269
101 2 0.112037 0.95241 0.560727
102 2 0.00591915 0.658203 0.333303
103 2 0.384268 0.985066 0.0872083
104 2 0.140925 0.122893 0.302536
105 2 0.231227 0.473707 0.258301
106 2 0.380382 0.0271886 0.32058
107 2 0.261355 0.284353 0.278608
108 2 0.297099 0.189866 0.489486
109 2 0.128217 0.281697 0.159156
110 2 0.0970038 0.374986 0.119638
111 2 0.708898 0.425084 0.357439
112 2 0.0889456 0.347378 0.335239
113 2 0.0196593 0.188829 0.18822
114 2 0.00899432 0.264876 0.467479
115 2 0.544013 0.921866 0.933482
116 2 0.534027 0.653316 0.346013
117 2 0.221545 0.146133 0.323262
118 2 0.0529309 0.217135 0.253896
119 2 0.267927 0.243615 0.225292
120 2 0.406923 0.693944 0.433541
121 2 0.980507 0.525684 0.607007
122 2 0.0770731 0.285803 0.204027
123 2 0.989445 0.700813 0.556176
124 2 0.181979 0.137764 0.489752
125 2 0.486261 0.692207 0.32799
126 2 0.891341 0.42551 0.353557
127 2 0.128225 0.766963 0.934604
128 2 0.924963 0.220347 0.281532
129 2 0.431276 0.183212 0.91528
130 2 0.269023 0.0810147 0.334393
131 2 0.148489 0.149047 0.851462
132 2 0.341176 0.0108174 0.0406667
133 2 0.730673 0.311882 0.374503
134 2 0.783036 0.691775 0.598087
135 2 0.305219 0.406075 0.26329
136 2 0.489771 0.0555034 0.906698
137 2 0.365673 0.185366 0.252292
138 2 0.291426 0.69233 0.412125
139 2 0.0205502 0.905849 0.409866
140 2 0.128298 0.348093 0.920454
141 2 0.0800211 0.0986346 0.336639
142 2 0.259579 0.305334 0.217778
143 2 0.322935 0.271116 0.307092
144 2 0.253789 0.286611 0.42232
145 2 0.388618 0.31034 0.581546
146 2 0.011885 0.566231 0.676107
147 2 0.989215 0.0140689 0.672063
148 2 0.339658 0.0777157 0.246334
149 2 0.285395 0.378713 0.507946
150 2 0.0478955 0.355774 0.496373
151 2 0.015956 0.27822 0.166016
152 2 0.387768 0.754987 0.579142
153 2 0.0753753 0.0386508 0.595575
154 2 0.125217 0.169929 0.38782
155 2 0.374815 0.179999 0.553389
156 2 0.208964 0.172138 0.187704
157 2 0.771896 0.137986 0.055464
158 2 0.506532 0.189334 0.318053
159 2 0.220664 0.0907008 0.451163
160 2 0.784776 0.338804 0.529986
161 2 0.874428 0.179684 0.265598
162 2 0.50943 0.161647 0.0376768
163 2 0.284446 0.230066 0.296083
164 2 0.593646 0.228366 0.195336
165 2 0.256567 0.481327 0.593601
166 2 0.361098 0.183496 0.0733578
167 2 0.147056 0.149134 0.787442
168 2 0.984578 0.411517 0.662578
169 2 0.352687 0.421037 0.691296
170 2 0.206918 0.0623346 0.341613
171 2 0.0907005 0.160247 0.236945
172 2 0.246739 0.344459 0.460813
173 2 0.258379 0.432732 0.371166
174 2 0.468593 0.0958953 0.12803
175 2 0.0379955 0.415898 0.200633
176 2 0.396408 0.295666 0.297745
177 2 0.436208 0.400729 0.976946
178 2 0.314414 0.134353 0.170852
179 2 0.0389933 0.420161 0.884334
180 2 0.169004 0.111703 0.369277
181 2 0.295947 0.358241 0.57159
182 2 0.215512 0.227609 0.000104455
183 2 0.573097 0.503979 0.544528
184 2 0.951188 0.197365 0.211285
185 2 0.249773 0.412905 0.0242713
186 2 0.175791 0.134532 0.948705
187 2 0.936595 0.0575801 0.211062
188 2 0.0746845 0.405842 0.300879
189 2 0.194314 0.0743478 0.640752
190 2 0.163509 0.343395 0.152294
191 2 0.0467214 0.441306 0.35018
192 2 0.253165 0.112588 0.454162
193 2 0.967205 0.0727338 0.739193
194 2 0.28472 0.527977 0.253888
195 2 0.483884 0.218951 0.434454
196 2 0.474603 0.857529 0.405079
197 2 0.056431 0.0831391 0.175203
198 2 0.916583 0.206579 0.452343
199 2 0.250621 0.574994 0.935259
200 2 0.384651 0.38686 0.424757
201 2 0.263714 0.13497 0.0620971
202 2 0.143306 0.23383 0.667639
203 2 0.0987019 0.481463 0.337373
204 2 0.517216 0.059861 0.108923
205 2 0.487592 0.179177 0.380453
206 2 0.0311175 0.273416 0.106664
207 2 0.204002 0.113007 0.204791
208 2 0.681357 0.862396 0.0997412
209 2 0.902498 0.561919 0.520859
210 2 0.123882 0.109045 0.206133
211 2 0.509416 0.973765 0.187184
212 2 0.943661 0.869729 0.375797
213 2 0.954229 0.00286441 0.362915
214 2 0.418564 0.963175 0.70579
215 2 0.287993 0.197694 0.16925
216 2 0.904571 0.713999 0.413294
217 2 0.0954221 0.21464 0.149898
218 2 0.0977194 0.414086 0.330529
219 2 0.960331 0.0489966 0.589288
220 2 0.954916 0.39444 0.166514
221 2 0.337552 0.278561 0.14047
222 2 0.0917636 0.252212 0.0375039
223 2 0.207247 0.638498 0.725713
224 2 0.193914 0.88477 0.826175
225 2 0.799533 0.499797 0.540456
226 2 0.612224 0.210069 0.684234
227 2 0.421523 0.986641 0.339414
228 2 0.23297 0.282796 0.0723246
229 2 0.328467 0.144674 0.440704
230 2 0.344532 0.246457 0.285691
231 2 0.24514 0.54977 0.309923
232 2 0.96959 0.775177 0.973732
233 2 0.074795 0.997674 0.156111
234 2 0.263034 0.913391 0.400842
235 2 0.180988 0.98581 0.107763
236 2 0.217912 0.863335 0.203361
237 2 0.035123 0.915011 0.32283
238 2 0.223393 0.164393 0.983928
239 2 0.983835 0.113436 0.120313
240 2 0.9007 0.15769 0.409609
241 2 0.383488 0.286856 0.408165
242 2 0.999328 0.445045 0.930215
243 2 0.390284 0.937939 0.278165
244 2 0.120031 0.169784 0.21237
245 2 0.344111 0.747301 0.916876
246 2 0.798394 0.37954 0.670875
247 2 0.970988 0.257088 0.453851
248 2 0.290982 0.239569 0.170601
249 2 0.435851 0.762109 0.28921
250 2 0.254939 0.175482 0.369578
251 2 0.5141 0.587155 0.965514
252 2 0.154648 0.743589 0.859579
253 2 0.154979 0.594319 0.338873
254 2 0.120644 0.1839 0.151342
255 2 0.415399 0.222998 0.26298
256 2 0.561225 0.0599397 0.0141915
257 2 0.408429 0.368935 0.369799
258 2 0.496226 0.073515 0.797492
259 2 0.381921 0.553674 0.267501
260 2 0.360686 0.124667 0.279306
261 2 0.0431479 0.510518 0.986148
262 2 0.278412 0.297667 0.00516989
263 2 0.603 0.0751899 0.0667101
264 2 0.121215 0.177555 0.852751
265 2 0.360456 0.0842476 0.277667
266 2 0.131332 0.516575 0.299288
267 2 0.935706 0.505072 0.0706971
268 2 0.207109 0.277318 0.969077
269 2 0.244377 0.399669 0.552866
270 2 0.226946 0.169466 0.902737
271 2 0.081405 0.274937 0.272344
272 2 0.931697 0.247059 0.252243
273 2 0.599536 0.356259 0.162688
274 2 0.272837 0.181714 0.263703
275 2 0.3565 0.146785 0.247313
276 2 0.62201 0.605297 0.314768
277 2 0.648947 0.894998 0.353769
278 2 0.551018 0.171064 0.0341676
279 2 0.197468 0.398553 0.975255
280 2 0.0511213 0.126918 0.287607
281 2 0.0648261 0.149401 0.0476164
282 2 0.266197 0.749285 0.163599
283 2 0.428771 0.0349872 0.148601
284 2 0.274549 0.394301 0.321932
285 2 0.378892 0.139473 0.156768
286 2 0.939641 0.893652 0.506568
287 2 0.292188 0.244466 0.105455
288 2 0.685449 0.0924885 0.179251
289 2 0.821739 0.372559 0.185976
290 2 0.116839 0.752769 0.434966
291 2 0.0600909 0.798922 0.571448
292 2 0.429897 0.123213 0.183256
293 2 0.0867905 0.927384 0.977732
294 2 0.307575 0.207421 0.638406
295 2 0.183877 0.394798 0.272712
296 2 0.0917685 0.342716 0.297577
297 2 0.142316 0.358161 0.391747
298 2 0.178206 0.776782 0.421967
299 2 0.879473 0.364522 0.399319
300 2 0.155648 0.432316 0.582252
301 2 0.239901 0.410571 0.102083
302 2 0.154001 0.00306896 0.00528957
303 2 0.253207 0.237476 0.105232
304 2 0.0974666 0.799244 0.32994
305 2 0.240855 0.208839 0.128671
306 2 0.396033 0.331662 0.362113
307 2 0.816497 0.604771 0.665919
308 2 0.47784 0.794412 0.596184
309 2 0.902406 0.356847 0.106228
310 2 0.292643 0.115513 0.928022
311 2 0.252109 0.453415 0.895473
312 2 0.957642 0.059964 0.397156
313 2 0.155781 0.754689 0.12946
314 2 0.343118 0.0320807 0.308187
315 2 0.690431 0.949285 0.383557
316 2 0.545321 0.746864 0.101917
317 2 0.43096 0.0291011 0.635957
318 2 0.138834 0.571464 0.168855
319 2 0.139528 0.4827 0.493179
320 2 0.580314 0.402299 0.276495
321 2 0.199189 0.500398 0.326171
322 2 0.50854 0.878077 0.406675
323 2 0.488969 0.0902595 0.416404
324 2 0.443243 0.128359 0.339127
325 2 0.402881 0.349456 0.939135
326 2 0.802869 0.457239 0.373779
327 2 0.180717 0.370161 0.997719
328 2 0.147706 0.308951 0.13578
329 2 0.0317453 0.330225 0.958388
330 2 0.181628 0.561766 0.741952
331 2 0.265612 0.347173 0.135885
332 2 0.331119 0.673182 0.936894
333 2 0.44648 0.35511 0.589051
334 2 0.96972 0.0858099 0.870705
335 2 0.338998 0.290502 0.101794
336 2 0.259305 0.341968 0.629045
337 2 0.209213 0.648389 0.546337
338 2 0.313216 0.985555 0.18767
339 2 0.314563 0.446235 0.342206
340 2 0.241756 0.997059 0.546349
341 2 0.0674821 0.287624 0.994538
342 2 0.866619 0.283504 0.0177501
343 2 0.0938192 0.270661 0.870263
344 2 0.263244 0.348283 0.263356
345 2 0.513907 0.201803 0.247989
346 2 0.49792 0.757562 0.392363
347 2 0.619035 0.231207 0.915662
348 2 0.244055 0.269726 0.206383
349 2 0.463547 0.720159 0.245609
350 2 0.650674 0.147077 0.587201
351 2 0.0104104 0.211779 0.0813054
352 2 0.00215999 0.853578 0.498716
353 2 0.473468 0.596143 0.397347
354 2 0.386258 0.0453776 0.383269
355 2 0.0483949 0.337606 0.24186
356 2 0.305259 0.518362 0.431283
357 2 0.214708 0.714248 0.236092
358 2 0.0969182 0.647233 0.62252
359 2 0.230963 0.553882 0.0672991
360 2 0.239843 0.511876 0.945304
361 2 0.269339 0.143281 0.269919
362 2 0.232037 0.705807 0.530506
363 2 0.987 0.877992 0.790913
364 2 0.0284422 0.851966 0.333624
365 2 0.155499 0.0563184 0.393798
366 2 0.410373 0.193453 0.492802
367 2 0.30889 0.764776 0.303212
368 2 0.0308357 0.25931 0.890772
369 2 0.304507 0.401961 0.136396
370 2 0.970865 0.842565 0.359733
371 2 0.340388 0.727733 0.342427
372 2 0.23422 0.0638143 0.833817
373 2 0.999366 0.0232649 0.276529
374 2 0.500591 0.01428 0.469213
375 2 0.420246 0.325584 0.234197
376 2 0.166191 0.098451 0.257076
377 2 0.149173 0.99614 0.433251
378 2 0.982074 0.207574 0.999914
379 2 0.877933 0.148786 0.176573
380 2 0.584579 0.168533 0.110892
381 2 0.4018 0.614749 0.0606219
382 2 0.394689 0.874106 0.733629
383 2 0.00798262 0.30161 0.0544756
384 2 0.538438 0.222878 0.272547
385 2 0.19327 0.274554 0.252495
386 2 0.644249 0.0406084 0.163206
387 2 0.194281 0.111771 0.167121
388 2 0.618996 0.269323 0.368828
389 2 0.471466 0.00751846 0.411485
390 2 0.933466 0.366641 0.0564082
391 2 0.21992 0.309101 0.382675
392 2 0.125628 0.19852 0.0394365
393 2 0.414633 0.537447 0.499143
394 2 0.086934 0.0357314 0.207649
395 2 0.389407 0.401191 0.461147
396 2 0.197692 0.2673 0.502359
397 2 0.94822 0.766443 0.418001
398 2 0.321989 0.461621 0.875407
399 2 0.294571 0.0229104 0.271122
400 2 0.223299 0.281407 0.718096
401 2 0.243874 0.209839 0.385139
402 2 0.161128 0.395974 0.855605
403 2 0.336167 0.773912 0.229924
404 2 0.441663 0.985398 0.461615
405 2 0.108324 0.249055 0.356013
406 2 0.95114 0.0740304 0.527178
407 2 0.0522226 0.478217 0.407433
408 2 0.393249 0.169025 0.129098
409 2 0.286895 0.0193163 0.847357
410 2 0.127814 0.999803 0.60641
411 2 0.525181 0.966775 0.152498
412 2 0.948696 0.124337 0.230833
413 2 0.530664 0.142206 0.342432
414 2 0.0694392 0.377099 0.73382
415 2 0.63163 0.756925 0.28935
416 2 0.540094 0.688207 0.405076
417 2 0.338999 0.0717768 0.308674
418 2 0.395522 0.200512 0.153357
419 2 0.565355 0.882497 0.444578
420 2 0.872415 0.451443 0.117363
421 2 0.0457493 0.862218 0.214027
422 2 0.128018 0.502808 0.59068
423 2 0.0913787 0.788051 0.833237
424 2 0.987534 0.991399 0.258814
425 2 0.305774 0.0547142 0.14859
426 2 0.266364 0.805693 0.489569
427 2 0.378731 0.403378 0.561062
428 2 0.0650721 0.306251 0.056011
429 2 0.0928256 0.264989 0.111338
430 2 0.119494 0.421755 0.00140812
431 2 0.27872 0.442653 0.515397
432 2 0.638396 0.971011 0.514548
433 2 0.436722 0.126186 0.438503
434 2 0.112997 0.333514 0.196518
435 2 0.214297 0.128376 0.854304
436 2 0.318944 0.641665 0.194496
437 2 0.286578 0.00947309 0.204386
438 2 0.830696 0.59637 0.20011
439 2 0.80141 0.10545 0.315063
440 2 0.430037 0.0870242 0.996081
441 2 0.413619 0.355721 0.166812
442 2 0.215087 0.547427 0.0305045
443 2 0.533624 0.215994 0.0690591
444 2 0.325586 0.511417 0.652009
445 2 0.244804 0.306592 0.695223
446 2 0.176307 0.213788 0.73783
447 2 0.114114 0.248885 0.920676
448 2 0.410207 0.0776515 0.209689
449 2 0.30776 0.301404 0.635095
450 2 0.11518 0.94484 0.41897
451 2 0.846767 0.415178 0.485092
452 2 0.305985 0.172106 0.620693
453 2 0.39788 0.458665 0.42942
454 2 0.0507383 0.331924 0.413124
455 2 0.150821 0.622078 0.199758
456 2 0.800066 0.613969 0.218251
457 2 0.106125 0.980082 0.943375
458 2 0.339009 0.25181 0.90419
459 2 0.341024 0.0965853 0.212828
460 2 0.402956 0.253178 0.638989
461 2 0.306405 0.198475 0.702087
462 2 0.60154 0.255322 0.266552
463 2 0.253617 0.381199 0.0489648
464 2 0.466862 0.366743 0.214181
465 2 0.33454 0.434568 0.258729
466 2 0.98471 0.328138 0.189694
467 2 0.414395 0.879331 0.367398
468 2 0.0751475 0.870485 0.463381
469 2 0.348056 0.186749 0.190148
470 2 0.782396 0.200092 0.304778
471 2 0.997048 0.0734403 0.227448
472 2 0.513407 0.359488 0.481008
473 2 0.0987543 0.378323 0.284264
474 2 0.135177 0.309763 0.911988
475 2 0.377641 0.674369 0.316327
476 2 0.144128 0.251726 0.440966
477 2 0.702975 0.116665 0.813581
478 2 0.436478 0.327704 0.936812
479 2 0.104684 0.143704 0.0972513
480 2 0.0248983 0.94019 0.619539
481 2 0.217315 0.254233 0.559401
482 2 0.276134 0.177351 0.334564
483 2 0.245124 0.143141 0.430012
484 2 0.595754 0.0169854 0.856647
485 2 0.533303 0.969371 0.425598
486 2 0.0326464 0.351019 0.305621
487 2 0.457386 0.49087 0.280388
488 2 0.382586 0.144114 0.538324
489 2 0.162853 0.322053 0.629092
490 2 0.275733 0.0518461 0.965663
491 2 0.169537 0.219372 0.241868
492 2 0.983646 0.0606899 0.426617
493 2 0.951989 0.544633 0.220779
494 2 0.288966 0.561517 0.0890807
495 2 0.0639126 0.436683 0.178375
496 2 0.876993 0.753608 0.9004
497 2 0.706042 0.316918 0.0977062
498 2 0.457389 0.693358 0.553743
499 2 0.988887 0.332052 0.00968203
500 2 0.70969 0.0332276 0.377553
501 2 0.345117 0.31929 0.933759
502 2 0.723524 0.48942 0.122231
503 2 0.513157 0.129188 0.456179
504 2 0.444934 0.478708 0.488425
505 2 0.328867 0.268076 0.984905
506 2 0.187583 0.437491 0.118229
507 2 0.188833 0.402226 0.136193
508 2 0.0740936 0.0573042 0.1241
509 2 0.741363 0.535123 0.440287
510 2 0.152681 0.137421 0.021967
511 2 0.360067 0.479802 0.19033
512 2 0.825087 0.366371 0.729463
513 2 0.696992 0.359033 0.354065
514 2 0.348583 0.0906602 0.00421481
515 2 0.936614 0.294508 0.494541
516 2 0.587028 0.306375 0.975031
517 2 0.271005 0.153337 0.400751
518 2 0.0132 0.103918 0.334461
519 2 0.240326 0.16505 0.487032
520 2 0.855022 0.415745 0.983866
521 2 0.957917 0.433769 0.681445
522 2 0.806162 0.291357 0.298763
523 2 0.898278 0.683957 0.357409
524 2 0.196976 0.441776 0.345236
525 2 0.477228 0.558862 0.214089
526 2 0.193239 0.284901 0.0637769
527 2 0.501172 0.268442 0.647935
528 2 0.976727 0.438957 0.964525
529 2 0.488161 0.329815 0.259582
530 2 0.0162229 0.509988 0.0725266
531 2 0.233799 0.717139 0.766804
532 2 0.17632 0.303453 0.329093
533 2 0.154079 0.184428 0.0635029
534 2 0.274442 0.230557 0.447247
535 2 0.317297 0.144258 0.236544
536 2 0.0787156 0.639004 0.393796
537 2 0.831177 0.275547 0.172289
538 2 0.738694 0.9581 0.130845
539 2 0.0760695 0.154677 0.300638
540 2 0.328177 0.139381 0.297676
541 2 0.316245 0.710355 0.864582
542 2 0.97847 0.419327 0.0576647
543 2 0.123774 0.310715 0.739044
544 2 0.50013 0.702007 0.243683
545 2 0.378244 0.575515 0.828457
546 2 0.329981 0.881515 0.251018
547 2 0.192612 0.00917651 0.386937
548 2 0.329726 0.0329178 0.011384
549 2 0.0939509 0.1661 0.8789
550 2 0.335081 0.158967 0.361634
551 2 0.0367717 0.175827 0.0342836
552 2 0.0355148 0.066275 0.118119
553 2 0.133474 0.123403 0.698632
554 2 0.527017 0.254342 0.401384
555 2 0.41923 0.38654 0.889599
556 2 0.281639 0.24021 0.523772
557 2 0.0846882 0.336649 0.588827
558 2 0.247057 0.402032 0.289169
559 2 0.951713 0.326798 0.628278
560 2 0.340053 0.97667 0.454163
561 2 0.594581 0.904963 0.617964
562 2 0.441839 0.412258 0.334471
563 2 0.336585 0.0863927 0.377277
564 2 0.162422 0.415852 0.405519
565 2 0.359097 0.427952 0.609638
566 2 0.612434 0.941003 0.665043
567 2 0.0790857 0.0149131 0.435769
568 2 0.736291 0.151703 0.397744
569 2 0.0376857 0.391094 0.306004
570 2 0.5428 0.262366 0.218311
571 2 0.833374 0.259174 0.2261
572 2 0.840257 0.570937 0.478922
573 2 0.321268 0.372862 0.489139
574 2 0.0497594 0.539447 0.224044
575 2 0.304069 0.63911 0.444936
576 2 0.366328 0.642767 0.236775
577 2 0.16105 0.492461 0.311706
578 2 0.420207 0.377877 0.511553
579 2 0.323589 0.85281 0.617526
580 2 0.634953 0.912297 0.104434
581 2 0.383339 0.994145 0.966295
582 2 0.397858 0.239267 0.567114
583 2 0.376501 0.394343 0.598131
584 2 0.509997 0.983465 0.262477
585 2 0.057278 0.181792 0.233201
586 2 0.256251 0.292963 0.343324
587 2 0.396293 0.203493 0.974162
588 2 0.0517875 0.572392 0.977365
589 2 0.977837 0.24428 0.920568
590 2 0.132587 0.828419 0.459828
591 2 0.48408 0.0234284 0.079188
592 2 0.377387 0.515523 0.826867
593 2 0.465835 0.194219 0.52607
594 2 0.0646856 0.24853 0.194706
595 2 0.256969 0.942528 0.629684
596 2 0.470547 0.204333 0.563299
597 2 0.296024 0.43002 0.454039
598 2 0.398551 0.988304 0.904164
599 2 0.830011 0.720211 0.180349
600 2 0.461477 0.204648 0.20899
601 2 0.370015 0.962415 0.207126
602 2 0.431388 0.187161 0.459837
603 2 0.293394 0.438738 0.977246
604 2 0.407428 0.391725 0.122165
605 2 0.146158 0.320821 0.258572
606 2 0.709771 0.0358643 0.884823
607 2 0.399815 0.116697 0.0447011
608 2 0.150056 0.0673736 0.278001
609 2 0.309231 0.119557 0.206468
610 2 0.933408 0.0325666 0.178983
611 2 0.0143226 0.22369 0.421439
612 2 0.161371 0.567301 0.0517344
613 2 0.14756 0.255234 0.358884
614 2 0.809317 0.658297 0.986467
615 2 0.164355 0.183768 0.907141
616 2 0.469718 0.241472 0.577232
617 2 0.313748 0.495047 0.551233
618 2 0.648245 0.681832 0.467065
619 2 0.277746 0.255657 0.416748
620 2 0.214953 0.157247 0.246579
621 2 0.186325 0.199352 0.045583
622 2 0.283244 0.543187 0.183175
623 2 0.188985 0.162499 0.274349
624 2 0.961203 0.937677 0.241496
625 2 0.781737 0.280985 0.408298
626 2 0.938438 0.98549 0.299703
627 2 0.181331 0.817243 0.988674
628 2 0.388131 0.329497 0.146165
629 2 0.59818 0.790798 0.534079
630 2 0.0175831 0.945463 0.415274
631 2 0.164393 0.0948501 0.814399
632 2 0.381742 0.597726 0.0301323
633 2 0.18255 0.0930671 0.333193
634 2 0.996306 0.492325 0.62436
635 2 0.24056 0.126499 0.250256
636 2 0.41712 0.968403 0.274945
637 2 0.73309 0.234544 0.507352
638 2 0.216583 0.142875 0.0152973
639 2 0.137267 0.580115 0.83209
640 2 0.222058 0.884177 0.0490345
641 2 0.304874 0.127909 0.269302
642 2 0.315456 0.183517 0.337218
643 2 0.121719 0.681314 0.36396
644 2 0.219745 0.234698 0.490904
645 2 0.780343 0.482782 0.427238
646 2 0.36445 0.441616 0.558716
647 2 0.208257 0.232816 0.430772
648 2 0.969174 0.49319 0.188765
649 2 0.452827 0.0498013 0.461613
650 2 0.480505 0.391653 0.107006
651 2 0.25019 0.208393 0.216314
652 2 0.951098 0.723666 0.0418863
653 2 0.178042 0.931997 0.070998
654 2 0.114483 0.930977 0.00591232
655 2 0.884928 0.353359 0.701898
656 2 0.275065 0.432993 0.336035
657 2 0.214457 0.399187 0.225799
658 2 0.187054 0.549524 0.804875
659 2 0.378177 0.16035 0.188881
660 2 0.204232 0.338242 0.154212
661 2 0.298907 0.247762 0.327525
662 2 0.693447 0.616959 0.424514
663 2 0.190929 0.118289 0.455043
664 2 0.37435 0.312262 0.829113
665 2 0.340874 0.944713 0.0569459
666 2 0.865566 0.0163663 0.184386
667 2 0.310792 0.5581 0.475323
668 2 0.0533987 0.960641 0.554343
669 2 0.310062 0.0795056 0.0567973
670 2 0.465879 0.26584 0.198668
671 2 0.988635 0.17459 0.130644
672 2 0.511627 0.231814 0.166639
673 2 0.0800396 0.234325 0.278278
674 2 0.199962 0.482098 0.482611
675 2 0.109034 0.678291 0.712273
676 2 0.0298535 0.673373 0.260277
677 2 0.471988 0.625562 0.454927
678 2 0.323814 0.126321 0.334512
679 2 0.582061 0.830862 0.35304
680 2 0.0376878 0.010803 0.164727
681 2 0.059389 0.382293 0.467733
682 2 0.147521 0.201634 0.175283
683 2 0.61062 0.654518 0.0941641
684 2 0.262761 0.59805 0.135116
685 2 0.0778901 0.191109 0.97985
686 2 0.853638 0.230931 0.552169
687 2 0.264288 0.684301 0.265189
688 2 0.510013 0.513938 0.423916
689 2 0.379734 0.971555 0.933574
690 2 0.591781 0.408155 0.447947
691 2 0.600167 0.652705 0.152863
692 2 0.0975226 0.382184 0.353529
693 2 0.510033 0.36322 0.966991
694 2 0.178569 0.797262 0.0235431
695 2 0.587867 0.161632 0.563857
696 2 0.590009 0.375757 0.222011
697 2 0.368233 0.314841 0.384164
698 2 0.27455 0.877036 0.292324
699 2 0.771284 0.155983 0.214525
700 2 0.369123 0.274243 0.16724
701 2 0.31197 0.801741 0.430492
702 2 0.385639 0.293113 0.765094
703 2 0.183692 0.117043 0.523549
704 2 0.153717 0.156514 0.229192
705 2 0.317547 0.299924 0.25175
706 2 0.503604 0.109114 0.729436
707 2 0.226469 0.227736 0.159716
708 2 0.252727 0.360486 0.336493
709 2 0.353839 0.958119 0.786638
710 2 0.0975488 0.494431 0.299295
711 2 0.485932 0.103268 0.162207
712 2 0.504825 0.191174 0.980058
713 2 0.844443 0.605436 0.595177
714 2 0.0439389 0.595339 0.333968
715 2 0.249552 0.783093 0.275697
716 2 0.486569 0.366681 0.307616
717 2 0.284092 0.074233 0.996475
718 2 0.161095 0.265237 0.322469
719 2 0.974051 0.891018 0.729714
720 2 0.0910684 0.137847 0.33358
721 2 0.168873 0.154809 0.81859
722 2 0.587461 0.247001 0.419094
723 2 0.477437 0.249228 0.120732
724 2 0.310417 0.281128 0.0194448
725 2 0.301692 0.450058 0.204638
726 2 0.361974 0.215418 0.167249
727 2 0.303055 0.359665 0.19026
728 2 0.0322751 0.817279 0.551318
729 2 0.224493 0.399272 0.492337
730 2 0.142044 0.649266 0.226411
731 2 0.54828 0.329373 0.84394
732 2 0.911127 0.261595 0.0604236
733 2 0.516263 0.178611 0.352667
734 2 0.43441 0.383565 0.148363
735 2 0.517668 0.127848 0.0928725
736 2 0.933957 0.0725548 0.126459
737 2 0.881133 0.0766777 0.247612
738 2 0.0103771 0.358786 0.382427
739 2 0.908823 0.331683 0.01442
740 2 0.344145 0.605114 0.690644
741 2 0.433079 0.166249 0.3528
742 2 0.0305604 0.438585 0.0683995
743 2 0.458844 0.439998 0.24806
744 2 0.172714 0.200369 0.322865
745 2 0.257784 0.0164774 0.176763
746 2 0.00867313 0.360318 0.505498
747 2 0.365105 0.0235504 0.180886
748 2 0.415857 0.230783 0.138781
749 2 0.0900623 0.147468 0.0177749
750 2 0.105875 0.0347526 0.307304
751 2 0.186358 0.292466 0.190817
752 2 0.427036 0.556177 0.720381
753 2 0.978922 0.243909 0.362033
754 2 0.145844 0.575292 0.488744
755 2 0.20471 0.11368 0.306828
756 2 0.236851 0.960834 0.229037
757 2 0.267754 0.132073 0.879716
758 2 0.977305 0.22937 0.16017
759 2 0.0742316 0.544533 0.535943
760 2 0.119031 0.227506 0.271433
761 2 0.438238 0.892535 0.01227
762 2 0.360478 0.133138 0.417677
763 2 0.419684 0.317997 0.443974
764 2 0.310409 0.924969 0.337072
765 2 0.522191 0.698904 0.540826
766 2 0.996107 0.359624 0.0371042
767 2 0.6692 0.327701 0.166949
768 2 0.393429 0.134755 0.297139
769 2 0.447292 0.393446 0.482793
770 2 0.616842 0.530412 0.159362
771 2 0.16109 0.41938 0.193018
772 2 0.487677 0.0340925 0.173659
773 2 0.25705 0.146438 0.148054
774 2 0.671397 0.215066 0.337962
775 2 0.208367 0.11214 0.890265
776 2 0.286865 0.00445267 0.303992
777 2 0.154662 0.253173 0.0132981
778 2 0.112801 0.33101 0.391243
779 2 0.433158 0.248296 0.327758
780 2 0.336056 0.235017 0.447825
781 2 0.313893 0.245556 0.138268
782 2 0.858518 0.130622 0.0686172
783 2 0.237919 0.469046 0.219472
784 2 0.485746 0.526005 0.0960994
785 2 0.385009 0.122291 0.871369
786 2 0.176568 0.505436 0.0148536
787 2 0.228733 0.86455 0.494372
788 2 0.231989 0.118463 0.373644
789 2 0.0147036 0.15533 0.496896
790 2 0.675073 0.360632 0.388598
791 2 0.225843 0.198701 0.419856
792 2 0.257075 0.127329 0.490095
793 2 0.428919 0.320774 0.297958
794 2 0.201738 0.598936 0.965493
795 2 0.283137 0.128622 0.54497
796 2 0.514613 0.243404 0.529763
797 2 0.275968 0.0622333 0.225796
798 2 0.428716 0.203371 0.401909
799 2 0.305462 0.55686 0.152609
800 2 0.495417 0.0940074 0.0982636
801 2 0.300135 0.18026 0.231865
802 2 0.612003 0.478952 0.302211
803 2 0.152202 0.366064 0.330634
804 2 0.124564 0.634493 0.258052
805 2 0.430327 0.339887 0.521339
806 2 0.537317 0.36802 0.123881
807 2 0.53819 0.200384 0.216615
808 2 0.223862 0.0184043 0.241151
809 2 0.0497371 0.136355 0.391454
810 2 0.150995 0.272106 0.189009
811 2 0.0479652 0.685439 0.227883
812 2 0.221034 0.380365 0.526939
813 2 0.877273 0.933782 0.831774
814 2 0.944538 0.172375 0.369243
815 2 0.295942 0.938898 0.275472
816 2 0.153664 0.31759 0.0153347
817 2 0.543161 0.00479338 0.257631
818 2 0.994647 0.25172 0.186997
819 2 0.163465 0.904335 0.523206
820 2 0.207433 0.299419 0.15519
821 2 0.687905 0.500828 0.136134
822 2 0.110488 0.318033 0.351078
823 2 0.14919 0.923231 0.802166
824 2 0.643916 0.0839245 0.380689
825 2 0.0860689 0.790922 0.543795
826 2 0.532833 0.757178 0.0385895
827 2 0.13312 0.26939 0.226099
828 2 0.053569 0.283205 0.326923
829 2 0.377172 0.897965 0.121648
830 2 0.95407 0.400856 0.00753364
831 2 0.00224798 0.545013 0.744532
832 2 0.897753 0.699091 0.727612
833 2 0.940956 0.161516 0.40772
834 2 0.999409 0.453214 0.389271
835 2 0.438529 0.245482 0.988037
836 2 0.320222 0.221396 0.347839
837 2 0.948984 0.144428 0.175457
838 2 0.326247 0.925821 0.299266
839 2 0.477257 0.130656 0.317184
840 2 0.103434 0.49056 0.979983
841 2 0.230495 0.20407 0.706235
842 2 0.0160084 0.922505 0.0317575
843 2 0.0342375 0.383053 0.104117
844 2 0.585022 0.965363 0.181424
845 2 0.688508 0.383384 0.52055
846 2 0.217534 0.940945 0.964555
847 2 0.991983 0.168753 0.733107
848 2 0.921396 0.249084 0.186199
849 2 0.155375 0.441634 0.345913
850 2 0.111124 0.296552 0.52559
851 2 0.0323697 0.205835 0.478948
852 2 0.495435 0.238354 0.338592
853 2 0.37375 0.960986 0.143588
854 2 0.0866813 0.125585 0.216997
855 2 0.868554 0.969097 0.513738
856 2 0.360377 0.262868 0.46259
857 2 0.228477 0.0451651 0.306829
858 2 0.253201 0.211765 0.576009
859 2 0.431804 0.386122 0.263403
860 2 0.0376936 0.21251 0.0529933
861 2 0.409988 0.285359 0.091322
862 2 0.489938 0.367366 0.2459
863 2 0.801062 0.601929 0.254267
864 2 0.182027 0.329287 0.207454
865 2 0.202327 0.172711 0.499313
866 2 0.358493 0.561887 0.423983
867 2 0.132995 0.782761 0.319015
868 2 0.48573 0.34532 0.373151
869 2 0.226729 0.389834 0.132012
870 2 0.175819 0.126132 0.28402
871 2 0.53313 0.263553 0.180522
872 2 0.0839777 0.363005 0.191646
873 2 0.532447 0.440951 0.332001
874 2 0.451325 0.911033 0.393415
875 2 0.197881 0.0454401 0.7169
876 2 0.663982 0.124419 0.123926
877 2 0.0189145 0.803994 0.176875
878 2 0.187299 0.136088 0.0866277
879 2 0.675977 0.886929 0.484288
880 2 0.850149 0.775057 0.108568
881 2 0.18993 0.984336 0.485963
882 2 0.391444 0.621935 0.293415
883 2 0.318759 0.21529 0.284391
884 2 0.313506 0.28382 0.84361
885 2 0.0133626 0.302088 0.0164419
886 2 0.102469 0.160051 0.272844
887 2 0.308078 0.0419104 0.211046
888 2 0.302972 0.169074 0.421469
889 2 0.184669 0.000951495 0.187943
890 2 0.0436697 0.305895 0.21586
891 2 0.767038 0.894181 0.964921
892 2 0.275419 0.25069 0.263306
893 2 0.3494 0.222974 0.927344
894 2 0.00839723 0.447556 0.100565
895 2 0.208432 0.309391 0.265108
896 2 0.122676 0.392708 0.143212
897 2 0.925368 0.42813 0.0124587
898 2 0.281183 0.336598 0.44224
899 2 0.23862 0.909226 0.248767
900 2 0.221054 0.0576834 0.511631
901 2 0.204603 0.588558 0.526294
902 2 0.265643 0.0130093 0.038639
903 2 0.188735 0.338409 0.426921