 vasp.6.5.0 16Dec24 (build Jan 20 2025 08:32:48) complex                         
 executed on        HPECrayEX_GCC date 2025.07.22  12:06:57
 running  128 mpi-ranks, with    1 threads/rank, on    1 nodes
 distrk:  each k-point on  128 cores,    1 groups
 distr:  one band on NCORE=  16 cores,    8 groups


--------------------------------------------------------------------------------------------------------


 INCAR:
   SYSTEM = a-Si SPC
   NCORE = 16
   ISTART = 1
   ICHARG = 1
   ISPIN = 1
   ISYM = 1
   EDIFF = 1E-6
   NELM = 150
   EDIFFG = -0.01
   NSW = 0
   ISIF = 2
   IBRION = -1
   PREC = Accurate
   ENCUT = 1200
   KSPACING = 0.23
   KGAMMA = .TRUE.
   METAGGA = SCAN
   LASPH = .TRUE.
   LDIAG = .FALSE.
   LMIXTAU = .TRUE.
   ADDGRID = .TRUE.
   ALGO = Normal
   ISMEAR = 0
   SIGMA = 0.1
   LORBIT = 11
   NEDOS = 2000
   LWAVE = .FALSE.
   LCHARG = .FALSE.

 POTCAR:    PAW_PBE H 15Jun2001                   
 POTCAR:    PAW_PBE Si 05Jan2001                  
 POTCAR:    PAW_PBE H 15Jun2001                   
   SHA256 =  030f79b5d3ab3cf0e668861823c8fb652ff669f3e15e46930bd03bfd63a607b6 H/POTCAR              
   COPYR  = (c) Copyright 15Jun2001 Georg Kresse                                                    
   COPYR  = This file is part of the software VASP. Any use, copying, and all other rights are regul
   COPYR  = If you do not have a valid VASP license, you may not use, copy or distribute this file. 
   VRHFIN =H: ultrasoft test                                                                        
   LEXCH  = PE                                                                                      
   EATOM  =    12.4884 eV,    0.9179 Ry                                                             
                                                                                                    
   TITEL  = PAW_PBE H 15Jun2001                                                                     
   LULTRA =        F    use ultrasoft PP ?                                                          
   IUNSCR =        0    unscreen: 0-lin 1-nonlin 2-no                                               
   RPACOR =    0.000    partial core radius                                                         
   POMASS =    1.000; ZVAL   =    1.000    mass and valenz                                          
   RCORE  =    1.100    outmost cutoff radius                                                       
   RWIGS  =    0.700; RWIGS  =    0.370    wigner-seitz radius (au A)                               
   ENMAX  =  250.000; ENMIN  =  200.000 eV                                                          
   RCLOC  =    0.701    cutoff for local pot                                                        
   LCOR   =        T    correct aug charges                                                         
   LPAW   =        T    paw PP                                                                      
   EAUG   =  400.000                                                                                
   RMAX   =    1.123    core radius for proj-oper                                                   
   RAUG   =    1.200    factor for augmentation sphere                                              
   RDEP   =    1.112    radius for radial grids                                                     
   RDEPT  =    0.926    core radius for aug-charge                                                  
                                                                                                    
   Atomic configuration                                                                             
    2 entries                                                                                       
     n  l   j            E        occ.                                                              
     1  0  0.50        -6.4927   1.0000                                                             
     2  1  0.50        -3.4015   0.0000                                                             
   Description                                                                                      
     l       E           TYP  RCUT    TYP  RCUT                                                     
     0     -6.4927494     23  1.100                                                                 
     0      6.8029130     23  1.100                                                                 
     1     -4.0817478     23  1.100                                                                 
  local pseudopotential read in
  atomic valenz-charges read in
  non local Contribution for L=           0  read in
    real space projection operators read in
  non local Contribution for L=           0  read in
    real space projection operators read in
  non local Contribution for L=           1  read in
    real space projection operators read in
    PAW grid and wavefunctions read in

   number of l-projection  operators is LMAX  =           3
   number of lm-projection operators is LMMAX =           5

 POTCAR:    PAW_PBE Si 05Jan2001                  
   SHA256 =  79d9987ad8750f624c4d6acb2a16d13abf6a777132adc04dc6c8399be72b42bb Si/POTCAR             
   COPYR  = (c) Copyright 05Jan2001 Georg Kresse                                                    
   COPYR  = This file is part of the software VASP. Any use, copying, and all other rights are regul
   COPYR  = If you do not have a valid VASP license, you may not use, copy or distribute this file. 
   VRHFIN =Si: s2p2                                                                                 
   LEXCH  = PE                                                                                      
   EATOM  =   103.0669 eV,    7.5752 Ry                                                             
                                                                                                    
   TITEL  = PAW_PBE Si 05Jan2001                                                                    
   LULTRA =        F    use ultrasoft PP ?                                                          
   IUNSCR =        1    unscreen: 0-lin 1-nonlin 2-no                                               
   RPACOR =    1.500    partial core radius                                                         
   POMASS =   28.085; ZVAL   =    4.000    mass and valenz                                          
   RCORE  =    1.900    outmost cutoff radius                                                       
   RWIGS  =    2.480; RWIGS  =    1.312    wigner-seitz radius (au A)                               
   ENMAX  =  245.345; ENMIN  =  184.009 eV                                                          
   ICORE  =        2    local potential                                                             
   LCOR   =        T    correct aug charges                                                         
   LPAW   =        T    paw PP                                                                      
   EAUG   =  322.069                                                                                
   DEXC   =    0.000                                                                                
   RMAX   =    1.950    core radius for proj-oper                                                   
   RAUG   =    1.300    factor for augmentation sphere                                              
   RDEP   =    1.993    radius for radial grids                                                     
   RDEPT  =    1.837    core radius for aug-charge                                                  
                                                                                                    
   Atomic configuration                                                                             
    6 entries                                                                                       
     n  l   j            E        occ.                                                              
     1  0  0.50     -1785.8828   2.0000                                                             
     2  0  0.50      -139.4969   2.0000                                                             
     2  1  1.50       -95.5546   6.0000                                                             
     3  0  0.50       -10.8127   2.0000                                                             
     3  1  0.50        -4.0811   2.0000                                                             
     3  2  1.50        -4.0817   0.0000                                                             
   Description                                                                                      
     l       E           TYP  RCUT    TYP  RCUT                                                     
     0    -10.8127223     23  1.900                                                                 
     0     -7.6451159     23  1.900                                                                 
     1     -4.0811372     23  1.900                                                                 
     1      2.4879257     23  1.900                                                                 
     2     -4.0817478      7  1.900                                                                 
  local pseudopotential read in
  partial core-charges read in
  partial kinetic energy density read in
  atomic valenz-charges read in
  non local Contribution for L=           0  read in
    real space projection operators read in
  non local Contribution for L=           0  read in
    real space projection operators read in
  non local Contribution for L=           1  read in
    real space projection operators read in
  non local Contribution for L=           1  read in
    real space projection operators read in
    PAW grid and wavefunctions read in

   number of l-projection  operators is LMAX  =           4
   number of lm-projection operators is LMMAX =           8

 -----------------------------------------------------------------------------
|                                                                             |
|               ----> ADVICE to this user running VASP <----                  |
|                                                                             |
|     You have a (more or less) 'large supercell' and for larger cells it     |
|     might be more efficient to use real-space projection operators.         |
|     Therefore, try LREAL= Auto in the INCAR file.                           |
|     Mind: For very accurate calculation, you might also keep the            |
|     reciprocal projection scheme (i.e. LREAL=.FALSE.).                      |
|                                                                             |
 -----------------------------------------------------------------------------

 -----------------------------------------------------------------------------
|                                                                             |
|               ----> ADVICE to this user running VASP <----                  |
|                                                                             |
|     You enforced a specific xc type in the INCAR file but a different       |
|     type was found in the POTCAR file.                                      |
|     I HOPE YOU KNOW WHAT YOU ARE DOING!                                     |
|                                                                             |
 -----------------------------------------------------------------------------

  PAW_PBE H 15Jun2001                   :
 energy of atom  1       EATOM=  -12.4884
 kinetic energy error for atom=    0.0000 (will be added to EATOM!!)
  PAW_PBE Si 05Jan2001                  :
 energy of atom  2       EATOM= -103.0669
 kinetic energy error for atom=    0.0001 (will be added to EATOM!!)


 POSCAR:  H Si
  positions in cartesian coordinates
  No initial velocities read in


 exchange-correlation table for SCAN
   RHO(1)=    0.500       N(1)  =     2000
   RHO(2)=  100.500       N(2)  =     4000



--------------------------------------------------------------------------------------------------------


 ion  position               nearest neighbor table
   1  0.957  0.012  0.397-  19 0.75
   2  0.803  0.896  0.262-  29 0.78
   3  0.798  0.069  0.375-  17 0.72
   4  0.647  0.179  0.501-  45 1.38
   5  0.849  0.034  0.187-  30 0.71
   6  0.919  0.025  0.676-  27 0.79
   7  0.773  0.742  0.421-  69 1.52
   8  0.498  0.973  0.130-  90 1.52
   9  0.022  0.277  0.999-  61 1.50
  10  0.834  0.200  0.636-  25 0.77
  11  0.671  0.041  0.216-  15 0.69
  12  0.867  0.243  0.859-  14 0.73
  13  0.983  0.157  0.049-  22 0.74
  14  0.888  0.197  0.858-  12 0.73
  15  0.647  0.041  0.152-  11 0.69
  16  0.602  0.862  0.230-  95 1.56
  17  0.808  0.108  0.420-   3 0.72
  18  0.030  0.876  0.667-  71 1.48
  19  0.948  0.970  0.353-   1 0.75
  20  0.975  0.166  0.647-  23 0.74
  21  0.995  0.989  0.120-  88 1.49
  22  0.962  0.123  0.098-  13 0.74
  23  0.986  0.136  0.583-  20 0.74
  24  0.957  0.349  0.595-  73 1.62
  25  0.818  0.219  0.561-  10 0.77
  26  0.112  0.017  0.656-  65 1.47
  27  0.914  0.005  0.755-   6 0.79
  28  0.724  0.261  0.169-  57 1.59
  29  0.767  0.886  0.202-   2 0.78
  30  0.840  0.031  0.111-   5 0.71
  31  0.233  0.752  0.662-  52 2.26  46 2.38  40 2.41  71 2.52
  32  0.462  0.276  0.900-  33 2.31  41 2.32  89 2.33  37 2.37
  33  0.541  0.171  0.038-  32 2.31  90 2.35  57 2.62
  34  0.991  0.672  0.794-  71 2.30  42 2.30  68 2.38  94 2.45
  35  0.218  0.733  0.023-  70 2.42  54 2.42  66 2.46  42 2.47  52 2.48
  36  0.614  0.361  0.657-  44 2.26  89 2.33  45 2.36
  37  0.334  0.325  0.040-  93 2.34  32 2.37  84 2.43  53 2.50
  38  0.636  0.640  0.626-  59 2.38  44 2.38  79 2.43  69 2.45
  39  0.138  0.464  0.283-  63 2.27  86 2.31  82 2.43  62 2.50
  40  0.303  0.816  0.448-  66 2.40  31 2.41  51 2.42  67 2.48
  41  0.372  0.228  0.705-  32 2.32  75 2.33  77 2.37  76 3.11
  42  0.082  0.633  0.990-  34 2.30  81 2.35  86 2.39  35 2.47
  43  0.590  0.449  0.240-  55 2.34  57 2.42  64 2.52  48 2.52
  44  0.699  0.489  0.626-  36 2.26  87 2.29  64 2.38  38 2.38
  45  0.593  0.254  0.469-   4 1.38  36 2.36  75 2.40  57 2.43
  46  0.195  0.597  0.605-  94 2.27  72 2.30  63 2.35  31 2.38
  47  0.445  0.711  0.867-  80 2.36  52 2.38  70 2.50  59 2.52
  48  0.619  0.527  0.000-  80 2.43  87 2.51  89 2.52  43 2.52
  49  0.433  0.487  0.630-  72 2.32  59 2.33  55 2.52  89 2.60
  50  0.863  0.428  0.005-  85 2.30  61 2.42  87 2.47
  51  0.439  0.724  0.409-  59 2.33  40 2.42  78 2.42  95 2.59
  52  0.318  0.813  0.845-  31 2.26  74 2.30  47 2.38  35 2.48  54 2.82
  53  0.378  0.331  0.302-  75 2.37  62 2.37  55 2.39  37 2.50
  54  0.147  0.876  0.949-  74 2.36  71 2.38  35 2.42  88 2.46  52 2.82
  55  0.450  0.475  0.359-  78 2.28  43 2.34  53 2.39  49 2.52
  56  0.191  0.036  0.278-  67 2.35  91 2.41  92 2.45  88 2.48
  57  0.622  0.287  0.215-  28 1.59  43 2.42  45 2.43  33 2.62
  58  0.419  0.066  0.403-  67 2.30  90 2.30  75 2.34
  59  0.472  0.642  0.620-  51 2.33  49 2.33  38 2.38  47 2.52
  60  0.048  0.808  0.315-  88 2.28  66 2.35  81 2.39
  61  0.014  0.372  0.937-   9 1.50  86 2.34  50 2.42  73 2.49
  62  0.220  0.322  0.361-  92 2.28  53 2.37  39 2.50  76 2.53
  63  0.219  0.590  0.353-  78 2.26  39 2.27  46 2.35  66 2.36
  64  0.727  0.512  0.374-  85 2.31  44 2.38  43 2.52  69 2.57
  65  0.209  0.046  0.674-  26 1.47  74 2.31  77 2.35  67 2.43
  66  0.195  0.745  0.287-  60 2.35  63 2.36  40 2.40  35 2.46  81 3.09
  67  0.289  0.986  0.464-  58 2.30  56 2.35  65 2.43  40 2.48
  68  0.840  0.660  0.888-  87 2.34  34 2.38  79 2.40  83 2.47
  69  0.689  0.684  0.384-   7 1.52  95 2.30  38 2.45  64 2.57
  70  0.339  0.620  0.024-  84 2.34  35 2.42  78 2.42  47 2.50
  71  0.077  0.802  0.748-  18 1.48  34 2.30  54 2.38  31 2.52
  72  0.280  0.477  0.697-  46 2.30  49 2.32  76 2.42  84 2.48
  73  0.045  0.395  0.674-  24 1.62  76 2.38  94 2.40  61 2.49
  74  0.272  0.963  0.863-  91 2.28  52 2.30  65 2.31  54 2.36
  75  0.432  0.221  0.471-  41 2.33  58 2.34  53 2.37  45 2.40
  76  0.196  0.340  0.631-  73 2.38  77 2.41  72 2.42  62 2.53  41 3.11
  77  0.216  0.198  0.762-  65 2.35  41 2.37  76 2.41  93 2.55
  78  0.367  0.598  0.280-  63 2.26  55 2.28  70 2.42  51 2.42
  79  0.696  0.731  0.827-  80 2.38  68 2.40  38 2.43
  80  0.582  0.689  0.000-  47 2.36  79 2.38  48 2.43  95 2.47
  81  0.005  0.664  0.209-  83 2.29  42 2.35  60 2.39  82 2.55  66 3.09
  82  0.992  0.523  0.372-  85 2.39  39 2.43  94 2.48  81 2.55
  83  0.854  0.643  0.154-  81 2.29  85 2.30  68 2.47
  84  0.280  0.475  0.966-  70 2.34  86 2.42  37 2.43  72 2.48
  85  0.857  0.493  0.232-  83 2.30  50 2.30  64 2.31  82 2.39
  86  0.119  0.477  0.035-  39 2.31  61 2.34  42 2.39  84 2.42
  87  0.762  0.522  0.848-  44 2.29  68 2.34  50 2.47  48 2.51
  88  0.073  0.933  0.172-  21 1.49  60 2.28  54 2.46  56 2.48
  89  0.526  0.419  0.847-  36 2.33  32 2.33  48 2.52  49 2.60
  90  0.448  0.063  0.158-   8 1.52  58 2.30  33 2.35  91 2.38
  91  0.295  0.041  0.074-  74 2.28  90 2.38  56 2.41  93 2.51
  92  0.145  0.198  0.267-  62 2.28  56 2.45  93 2.47
  93  0.232  0.201  0.038-  37 2.34  92 2.47  91 2.51  77 2.55
  94  0.045  0.556  0.621-  46 2.27  73 2.40  34 2.45  82 2.48
  95  0.580  0.757  0.246-  16 1.56  69 2.30  80 2.47  51 2.59

  LATTYP: Found a simple tetragonal cell.
 ALAT       =    14.5641956660
 C/A-ratio  =     0.6326946071
  
  Lattice vectors:
  
 A1 = (  14.5641956660,   0.0000000000,   0.0000000000)
 A2 = (   0.0000000000,  14.5641956660,   0.0000000000)
 A3 = (   0.0000000000,   0.0000000000,   9.2146880542)


Analysis of symmetry for initial positions (statically):
=====================================================================
 Subroutine PRICEL returns:
 Original cell was already a primitive cell.
 

 Routine SETGRP: Setting up the symmetry group for a 
 simple tetragonal supercell.


 Subroutine GETGRP returns: Found  1 space group operations
 (whereof  1 operations were pure point group operations)
 out of a pool of 16 trial point group operations.


The static configuration has the point symmetry C_1 .


Analysis of symmetry for dynamics (positions and initial velocities):
=====================================================================
 Subroutine PRICEL returns:
 Original cell was already a primitive cell.
 

 Routine SETGRP: Setting up the symmetry group for a 
 simple tetragonal supercell.


 Subroutine GETGRP returns: Found  1 space group operations
 (whereof  1 operations were pure point group operations)
 out of a pool of 16 trial point group operations.


The dynamic configuration has the point symmetry C_1 .


 Subroutine INISYM returns: Found  1 space group operations
 (whereof  1 operations are pure point group operations),
 and found     1 'primitive' translations


----------------------------------------------------------------------------------------

                                     Primitive cell                                     

  volume of cell :    1954.5809

  direct lattice vectors                    reciprocal lattice vectors
    14.564195666  0.000000000  0.000000000     0.068661533  0.000000000  0.000000000
     0.000000000 14.564195666  0.000000000     0.000000000  0.068661533  0.000000000
     0.000000000  0.000000000  9.214688054     0.000000000  0.000000000  0.108522393

  length of vectors
    14.564195666 14.564195666  9.214688054     0.068661533  0.068661533  0.108522393

  position of ions in fractional coordinates (direct lattice)
     0.957114304  0.012434901  0.397061732
     0.803195746  0.896403777  0.261714774
     0.797579232  0.069233483  0.375195555
     0.647354665  0.178922342  0.500581243
     0.849178374  0.034339898  0.186828896
     0.918533389  0.025302324  0.676166134
     0.772620765  0.742217438  0.420882397
     0.498249966  0.972769134  0.129669067
     0.021873161  0.277035553  0.998732670
     0.833798191  0.200480690  0.635804486
     0.671261924  0.040968963  0.216343732
     0.866893050  0.242571583  0.859376894
     0.983480333  0.157225298  0.048683905
     0.888432173  0.197382682  0.857864092
     0.646759369  0.040799919  0.152235213
     0.601702298  0.861935687  0.229987167
     0.808386558  0.108227055  0.419627879
     0.030282757  0.876018168  0.666863595
     0.948359959  0.970379712  0.352500267
     0.975392004  0.165905489  0.646690367
     0.994843816  0.989261634  0.119713222
     0.962085399  0.123241272  0.097630543
     0.985827985  0.136498441  0.582683860
     0.956887721  0.349217363  0.594675584
     0.818081566  0.218967121  0.560966358
     0.112432574  0.017067403  0.656191503
     0.913836940  0.004518226  0.755278959
     0.724420369  0.261033296  0.169008434
     0.767079779  0.885857365  0.201730106
     0.840142517  0.031323597  0.110779659
     0.233342100  0.752379345  0.662369682
     0.461643757  0.276230153  0.899501964
     0.541051506  0.170967904  0.038082570
     0.991451937  0.672394152  0.794180981
     0.217572606  0.732872604  0.022730015
     0.614075106  0.361055984  0.657450362
     0.334421489  0.324678417  0.040076126
     0.635833259  0.639965310  0.625957164
     0.137568187  0.464441714  0.283269492
     0.303126249  0.816468020  0.448005399
     0.371927851  0.228420441  0.705465010
     0.081985303  0.633482975  0.989508266
     0.590141756  0.448742941  0.240295709
     0.699290248  0.489156433  0.626208936
     0.592868305  0.253952919  0.468605120
     0.195497236  0.597351217  0.604963507
     0.445044831  0.711443339  0.866756417
     0.619161553  0.526817970  0.000486847
     0.433337353  0.486896782  0.629770641
     0.863171595  0.428141048  0.004864185
     0.439027334  0.723809281  0.409035008
     0.317693480  0.812986880  0.844883728
     0.378036668  0.331392142  0.302464932
     0.146858780  0.875832781  0.949498230
     0.450084588  0.474506122  0.358705578
     0.191105645  0.036082253  0.277734850
     0.622266427  0.286744294  0.214618226
     0.418961001  0.066371877  0.403214952
     0.472461381  0.642231141  0.619959131
     0.047531633  0.807569485  0.314628122
     0.013934927  0.372126283  0.937022496
     0.219761535  0.321824158  0.360851065
     0.218948583  0.589753131  0.352523057
     0.727015775  0.511954122  0.374183041
     0.208654846  0.046231389  0.673969641
     0.195183453  0.744936435  0.287165445
     0.289237394  0.985547045  0.464473672
     0.839758012  0.660341994  0.888413146
     0.689361790  0.683925857  0.384211596
     0.338942164  0.619510353  0.023635092
     0.076848047  0.801877444  0.748060049
     0.280197417  0.477208640  0.697046928
     0.044763818  0.394665805  0.674070567
     0.272094669  0.963431165  0.862916895
     0.431527435  0.220870419  0.471134777
     0.195931177  0.339845063  0.631196625
     0.216103935  0.197563262  0.761523337
     0.367303497  0.597730915  0.280011649
     0.695555061  0.730709766  0.826776767
     0.581770542  0.689169538  0.000401387
     0.005404686  0.663805281  0.209087924
     0.991582394  0.522620004  0.371921435
     0.853552114  0.642971312  0.154241792
     0.279699620  0.475060220  0.965649618
     0.856676214  0.493179999  0.231973127
     0.119315892  0.476559788  0.035049369
     0.762046889  0.522039128  0.848278309
     0.073172596  0.932801255  0.172170777
     0.525559404  0.418866248  0.846675433
     0.447840042  0.062733639  0.157553896
     0.294851848  0.041467172  0.073941733
     0.145183438  0.197699898  0.266983536
     0.232415856  0.200809579  0.037520858
     0.045428667  0.556387746  0.621411161
     0.580137770  0.757295511  0.246136384

  ion indices of the primitive-cell ions
   primitive index   ion index
                 1           1
                 2           2
                 3           3
                 4           4
                 5           5
                 6           6
                 7           7
                 8           8
                 9           9
                10          10
                11          11
                12          12
                13          13
                14          14
                15          15
                16          16
                17          17
                18          18
                19          19
                20          20
                21          21
                22          22
                23          23
                24          24
                25          25
                26          26
                27          27
                28          28
                29          29
                30          30
                31          31
                32          32
                33          33
                34          34
                35          35
                36          36
                37          37
                38          38
                39          39
                40          40
                41          41
                42          42
                43          43
                44          44
                45          45
                46          46
                47          47
                48          48
                49          49
                50          50
                51          51
                52          52
                53          53
                54          54
                55          55
                56          56
                57          57
                58          58
                59          59
                60          60
                61          61
                62          62
                63          63
                64          64
                65          65
                66          66
                67          67
                68          68
                69          69
                70          70
                71          71
                72          72
                73          73
                74          74
                75          75
                76          76
                77          77
                78          78
                79          79
                80          80
                81          81
                82          82
                83          83
                84          84
                85          85
                86          86
                87          87
                88          88
                89          89
                90          90
                91          91
                92          92
                93          93
                94          94
                95          95

----------------------------------------------------------------------------------------


 -----------------------------------------------------------------------------
|                                                                             |
|           W    W    AA    RRRRR   N    N  II  N    N   GGGG   !!!           |
|           W    W   A  A   R    R  NN   N  II  NN   N  G    G  !!!           |
|           W    W  A    A  R    R  N N  N  II  N N  N  G       !!!           |
|           W WW W  AAAAAA  RRRRR   N  N N  II  N  N N  G  GGG   !            |
|           WW  WW  A    A  R   R   N   NN  II  N   NN  G    G                |
|           W    W  A    A  R    R  N    N  II  N    N   GGGG   !!!           |
|                                                                             |
|     The requested file  could not be found or opened for reading            |
|     k-point information. Automatic k-point generation is used as a          |
|     fallback, which may lead to unwanted results.                           |
|                                                                             |
 -----------------------------------------------------------------------------



Automatic generation of k-mesh.
 Grid dimensions derived from KSPACING:
 generate k-points for:    2    2    3

 Generating k-lattice:

  Cartesian coordinates                     Fractional coordinates (reciprocal lattice)
     0.034330766  0.000000000  0.000000000     0.500000000  0.000000000  0.000000000
     0.000000000  0.034330766  0.000000000     0.000000000  0.500000000  0.000000000
     0.000000000  0.000000000  0.036174131     0.000000000  0.000000000  0.333333333

  Length of vectors
     0.034330766  0.034330766  0.036174131

  Shift w.r.t. Gamma in fractional coordinates (k-lattice)
     0.000000000  0.000000000  0.000000000

 
 Subroutine IBZKPT returns following result:
 ===========================================
 
 Found      8 irreducible k-points:
 
 Following reciprocal coordinates:
            Coordinates               Weight
  0.000000  0.000000  0.000000      1.000000
  0.500000  0.000000  0.000000      1.000000
  0.000000  0.500000  0.000000      1.000000
  0.500000  0.500000  0.000000      1.000000
  0.000000  0.000000  0.333333      2.000000
  0.500000  0.000000  0.333333      2.000000
  0.000000  0.500000  0.333333      2.000000
  0.500000  0.500000  0.333333      2.000000
 
 Following cartesian coordinates:
            Coordinates               Weight
  0.000000  0.000000  0.000000      1.000000
  0.034331  0.000000  0.000000      1.000000
  0.000000  0.034331  0.000000      1.000000
  0.034331  0.034331  0.000000      1.000000
  0.000000  0.000000  0.036174      2.000000
  0.034331  0.000000  0.036174      2.000000
  0.000000  0.034331  0.036174      2.000000
  0.034331  0.034331  0.036174      2.000000
 


--------------------------------------------------------------------------------------------------------




 Dimension of arrays:
   k-points           NKPTS =      8   k-points in BZ     NKDIM =      8   number of bands    NBANDS=    200
   number of dos      NEDOS =   2000   number of ions     NIONS =     95
   non local maximal  LDIM  =      4   non local SUM 2l+1 LMDIM =      8
   total plane-waves  NPLWV = ******
   max r-space proj   IRMAX =      1   max aug-charges    IRDMAX= 417288
   dimension x,y,z NGX =   168 NGY =  168 NGZ =  108
   dimension x,y,z NGXF=   336 NGYF=  336 NGZF=  216
   support grid    NGXF=   672 NGYF=  672 NGZF=  432
   ions per type =              30  65
   NGX,Y,Z   is equivalent  to a cutoff of  19.18, 19.18, 19.48 a.u.
   NGXF,Y,Z  is equivalent  to a cutoff of  38.35, 38.35, 38.97 a.u.

 SYSTEM =  a-Si SPC                                
 POSCAR =   H Si                                   

 Startparameter for this run:
   NWRITE =      2    write-flag & timer
   PREC   = accura    normal or accurate (medium, high low for compatibility)
   ISTART =      1    job   : 0-new  1-cont  2-samecut
   ICHARG =      1    charge: 1-file 2-atom 10-const
   ISPIN  =      1    spin polarized calculation?
   LNONCOLLINEAR =      F non collinear calculations
   LSORBIT =      F    spin-orbit coupling
   INIWAV =      1    electr: 0-lowe 1-rand  2-diag
   LASPH  =      T    aspherical Exc in radial PAW
 Electronic Relaxation 1
   ENCUT  = 1200.0 eV  88.20 Ry    9.39 a.u.  41.14 41.14 26.03*2*pi/ulx,y,z
   ENINI  = 1200.0     initial cutoff
   ENAUG  =  400.0 eV  augmentation charge cutoff
   NELM   =    150;   NELMIN=  2; NELMDL=  0     # of ELM steps 
   EDIFF  = 0.1E-05   stopping-criterion for ELM
   LREAL  =      F    real-space projection
   NLSPLINE    = F    spline interpolate recip. space projectors
   LCOMPAT=      F    compatible to vasp.4.4
   GGA_COMPAT  = T    GGA compatible to vasp.4.4-vasp.4.6
   LMAXPAW     = -100 max onsite density
   LMAXMIX     =    2 max onsite mixed and CHGCAR
   VOSKOWN=      0    Vosko Wilk Nusair interpolation
   ROPT   =    0.00000   0.00000
 Ionic relaxation
   EDIFFG = -.1E-01   stopping-criterion for IOM
   NSW    =      0    number of steps for IOM
   NBLOCK =      1;   KBLOCK =      1    inner block; outer block 
   IBRION =     -1    ionic relax: 0-MD 1-quasi-New 2-CG
   NFREE  =      0    steps in history (QN), initial steepest desc. (CG)
   ISIF   =      2    stress and relaxation
   IWAVPR =     10    prediction:  0-non 1-charg 2-wave 3-comb
   ISYM   =      1    0-nonsym 1-usesym 2-fastsym
   LCORR  =      T    Harris-Foulkes like correction to forces

   POTIM  = 0.5000    time-step for ionic-motion
   TEIN   =    0.0    initial temperature
   TEBEG  =    0.0;   TEEND  =   0.0 temperature during run
   SMASS  =  -3.00    Nose mass-parameter (am)
   estimated Nose-frequenzy (Omega)   =  0.10E-29 period in steps = 0.13E+47 mass=  -0.485E-26a.u.
   SCALEE = 1.0000    scale energy and forces
   NPACO  =    256;   APACO  = 10.0  distance and # of slots for P.C.
   PSTRESS=    0.0 pullay stress

  Mass of Ions in am
   POMASS =   1.00 28.09
  Ionic Valenz
   ZVAL   =   1.00  4.00
  Atomic Wigner-Seitz radii
   RWIGS  =  -1.00 -1.00
  virtual crystal weights 
   VCA    =   1.00  1.00
   NELECT =     290.0000    total number of electrons
   NUPDOWN=      -1.0000    fix difference up-down

 DOS related values:
   EMIN   =  10.00;   EMAX   =-10.00  energy-range for DOS
   EFERMI =   0.00;   METHOD = LEGACY      
   ISMEAR =     0;   SIGMA  =   0.10  broadening in eV -4-tet -1-fermi 0-gaus
   EFERMI_NEDOS =   21; number of points for ismear=-14 and -15

 Electronic relaxation 2 (details)
   IALGO  =     38    algorithm
   LDIAG  =      F    sub-space diagonalisation (order eigenvalues)
   LSUBROT=      F    optimize rotation matrix (better conditioning)
   TURBO    =      0    0=normal 1=particle mesh
   IRESTART =      0    0=no restart 2=restart with 2 vectors
   NREBOOT  =      0    no. of reboots
   NMIN     =      0    reboot dimension
   EREF     =   0.00    reference energy to select bands
   IMIX   =      4    mixing-type and parameters
     AMIX     =   0.40;   BMIX     =  1.00
     AMIX_MAG =   1.60;   BMIX_MAG =  1.00
     AMIN     =   0.10
     WC   =   100.;   INIMIX=   1;  MIXPRE=   1;  MAXMIX= -45

 Intra band minimization:
   WEIMIN = 0.0000     energy-eigenvalue tresh-hold
   EBREAK =  0.13E-08  absolut break condition
   DEPER  =   0.30     relativ break condition  

   TIME   =   0.40     timestep for ELM

  volume/ion in A,a.u.               =      20.57       138.84
  Fermi-wavevector in a.u.,A,eV,Ry     =   0.866675  1.637778 10.219684  0.751126
  Thomas-Fermi vector in A             =   1.985098

 Write flags
   LWAVE        =      F    write WAVECAR
   LDOWNSAMPLE  =      F    k-point downsampling of WAVECAR
   LCHARG       =      F    write CHGCAR
   LVTOT        =      F    write LOCPOT, total local potential
   LVHAR        =      F    write LOCPOT, Hartree potential only
   WRT_POTENTIAL= false  ! write potential to hdf5 file
   LELF         =      F    write electronic localiz. function (ELF)
   LORBIT       =     11    0 simple, 1 ext, 2 COOP (PROOUT), +10 PAW based schemes


 Python interface
   PLUGINS active      =      F    recompile with -DPLUGINS to activate

 Dipole corrections
   LMONO      =      F    monopole corrections only (constant potential shift)
   LDIPOL     =      F    correct potential (dipole corrections)
   IDIPOL     =      0    1-x, 2-y, 3-z, 4-all directions 
   EPSILON    =  1.0000000 bulk dielectric constant
   LVACPOTAV  =      F  vacuum potentials using an averaging scheme for the charge density
   VACPOTFLAT =  0.1000000 required flatness to determine vacuum potential

Coulomb truncation method
  LTRUNCATE          =      F  Coulomb kernel truncation to be used
  IDIMENSIONALITY    =      3  Dimensionality of cutoff (0 molecules / 2 surfaces)
  ISURFACE           =     -1  Direction of surface normal
  LCOARSEN           =      F  Coarsen the charge grid before padding, preferred


 Exchange correlation treatment:
   METAGGA = SCAN    functional components
   XC_C    = 1    coefficients multiplying the functional components
   LIBXC   =     F    Libxc                    
   VOSKOWN =     0    Vosko Wilk Nusair interpolation
   LHFCALC =     F    Hartree Fock is set to
   LHFONE  =     F    Hartree Fock one center treatment
   AEXX    =    0.0000 exact exchange contribution

 Parameters of functionals:
   SCAN:
     P1 =  0.000000E+00
     P2 =  0.000000E+00
     P3 =  0.000000E+00

 Accuracy and mixing parameters for tau-dependent meta-GGA functionals:
   LMAXTAU = 6
   LMIXTAU = T

 Van der Waals corrections
   IVDW    =     0    specifies the selected vdW correction

 Linear response parameters
   LEPSILON=     F    determine dielectric tensor
   LRPA    =     F    only Hartree local field effects (RPA)
   LNABLA  =     F    use nabla operator in PAW spheres
   LVEL    =     F    velocity operator in full k-point grid
   CSHIFT  =0.1000    complex shift for real part using Kramers Kronig
   OMEGAMAX=  -1.0    maximum frequency
   DEG_THRESHOLD= 0.2000000E-02 threshold for treating states as degnerate
   RTIME   =   -0.100 relaxation time in fs
  (WPLASMAI=    0.000 imaginary part of plasma frequency in eV, 0.658/RTIME)
   DFIELD  = 0.0000000 0.0000000 0.0000000 field for delta impulse in time

  Optional k-point grid parameters
   LKPOINTS_OPT  =     F    use optional k-point grid
   KPOINTS_OPT_MODE=     1    mode for optional k-point grid

 Orbital magnetization related:
   ORBITALMAG=     F  switch on orbital magnetization
   LCHIMAG   =     F  perturbation theory with respect to B field
   DQ        =  0.001000  dq finite difference perturbation B field
   LLRAUG    =     F  two centre corrections for induced B field
   LBONE     =     F  B-component reconstruction in AE one-centre
   LVGVCALC  =     T  calculate vGv susceptibility
   LVGVAPPL  =     F  apply vGv susceptibility instead of pGv for G=0

 Random number generation:
   RANDOM_GENERATOR = DEFAULT
   PCG_SEED         = not used


--------------------------------------------------------------------------------------------------------


 Static calculation
 charge density and potential will be updated during run
 non-spin polarized calculation
 Variant of blocked Davidson
 perform Loewdin sub-space diagonalisation
    ordering is kept fixed
    before iterative eigenvector-optimisation
 modified Broyden-mixing scheme, WC =      100.0
 initial mixing is a Kerker type mixing with AMIX =  0.4000 and BMIX =      1.0000
 Hartree-type preconditioning will be used
 using additional bands           55
 reciprocal scheme for non local part
 use partial core corrections
 calculate Harris-corrections to forces   (improved forces if not selfconsistent)
 use gradient corrections 
 use of overlap-Matrix (Vanderbilt PP)
 Gauss-broadening in eV      SIGMA  =   0.10


--------------------------------------------------------------------------------------------------------


  energy-cutoff  :     1200.00
  volume of cell :     1954.58
      direct lattice vectors                 reciprocal lattice vectors
    14.564195666  0.000000000  0.000000000     0.068661533  0.000000000  0.000000000
     0.000000000 14.564195666  0.000000000     0.000000000  0.068661533  0.000000000
     0.000000000  0.000000000  9.214688054     0.000000000  0.000000000  0.108522393

  length of vectors
    14.564195666 14.564195666  9.214688054     0.068661533  0.068661533  0.108522393



 old parameters found on file WAVECAR:
  energy-cutoff  :     1200.00
  volume of cell :     1954.58
      direct lattice vectors                 reciprocal lattice vectors
    14.564195666  0.000000000  0.000000000     0.068661533  0.000000000  0.000000000
     0.000000000 14.564195666  0.000000000     0.000000000  0.068661533  0.000000000
     0.000000000  0.000000000  9.214688054     0.000000000  0.000000000  0.108522393

  length of vectors


 k-points in units of 2pi/SCALE and weight: read from INCAR                         
   0.00000000  0.00000000  0.00000000       0.083
   0.03433077  0.00000000  0.00000000       0.083
   0.00000000  0.03433077  0.00000000       0.083
   0.03433077  0.03433077  0.00000000       0.083
   0.00000000  0.00000000  0.03617413       0.167
   0.03433077  0.00000000  0.03617413       0.167
   0.00000000  0.03433077  0.03617413       0.167
   0.03433077  0.03433077  0.03617413       0.167

 k-points in reciprocal lattice and weights: read from INCAR                         
   0.00000000  0.00000000  0.00000000       0.083
   0.50000000  0.00000000  0.00000000       0.083
   0.00000000  0.50000000  0.00000000       0.083
   0.50000000  0.50000000  0.00000000       0.083
   0.00000000  0.00000000  0.33333333       0.167
   0.50000000  0.00000000  0.33333333       0.167
   0.00000000  0.50000000  0.33333333       0.167
   0.50000000  0.50000000  0.33333333       0.167

 position of ions in fractional coordinates (direct lattice) 
   0.95711430  0.01243490  0.39706173
   0.80319575  0.89640378  0.26171477
   0.79757923  0.06923348  0.37519556
   0.64735466  0.17892234  0.50058124
   0.84917837  0.03433990  0.18682890
   0.91853339  0.02530232  0.67616613
   0.77262077  0.74221744  0.42088240
   0.49824997  0.97276913  0.12966907
   0.02187316  0.27703555  0.99873267
   0.83379819  0.20048069  0.63580449
   0.67126192  0.04096896  0.21634373
   0.86689305  0.24257158  0.85937689
   0.98348033  0.15722530  0.04868391
   0.88843217  0.19738268  0.85786409
   0.64675937  0.04079992  0.15223521
   0.60170230  0.86193569  0.22998717
   0.80838656  0.10822705  0.41962788
   0.03028276  0.87601817  0.66686359
   0.94835996  0.97037971  0.35250027
   0.97539200  0.16590549  0.64669037
   0.99484382  0.98926163  0.11971322
   0.96208540  0.12324127  0.09763054
   0.98582798  0.13649844  0.58268386
   0.95688772  0.34921736  0.59467558
   0.81808157  0.21896712  0.56096636
   0.11243257  0.01706740  0.65619150
   0.91383694  0.00451823  0.75527896
   0.72442037  0.26103330  0.16900843
   0.76707978  0.88585737  0.20173011
   0.84014252  0.03132360  0.11077966
   0.23334210  0.75237935  0.66236968
   0.46164376  0.27623015  0.89950196
   0.54105151  0.17096790  0.03808257
   0.99145194  0.67239415  0.79418098
   0.21757261  0.73287260  0.02273002
   0.61407511  0.36105598  0.65745036
   0.33442149  0.32467842  0.04007613
   0.63583326  0.63996531  0.62595716
   0.13756819  0.46444171  0.28326949
   0.30312625  0.81646802  0.44800540
   0.37192785  0.22842044  0.70546501
   0.08198530  0.63348298  0.98950827
   0.59014176  0.44874294  0.24029571
   0.69929025  0.48915643  0.62620894
   0.59286831  0.25395292  0.46860512
   0.19549724  0.59735122  0.60496351
   0.44504483  0.71144334  0.86675642
   0.61916155  0.52681797  0.00048685
   0.43333735  0.48689678  0.62977064
   0.86317159  0.42814105  0.00486418
   0.43902733  0.72380928  0.40903501
   0.31769348  0.81298688  0.84488373
   0.37803667  0.33139214  0.30246493
   0.14685878  0.87583278  0.94949823
   0.45008459  0.47450612  0.35870558
   0.19110564  0.03608225  0.27773485
   0.62226643  0.28674429  0.21461823
   0.41896100  0.06637188  0.40321495
   0.47246138  0.64223114  0.61995913
   0.04753163  0.80756949  0.31462812
   0.01393493  0.37212628  0.93702250
   0.21976154  0.32182416  0.36085107
   0.21894858  0.58975313  0.35252306
   0.72701578  0.51195412  0.37418304
   0.20865485  0.04623139  0.67396964
   0.19518345  0.74493644  0.28716545
   0.28923739  0.98554704  0.46447367
   0.83975801  0.66034199  0.88841315
   0.68936179  0.68392586  0.38421160
   0.33894216  0.61951035  0.02363509
   0.07684805  0.80187744  0.74806005
   0.28019742  0.47720864  0.69704693
   0.04476382  0.39466580  0.67407057
   0.27209467  0.96343117  0.86291689
   0.43152744  0.22087042  0.47113478
   0.19593118  0.33984506  0.63119662
   0.21610394  0.19756326  0.76152334
   0.36730350  0.59773091  0.28001165
   0.69555506  0.73070977  0.82677677
   0.58177054  0.68916954  0.00040139
   0.00540469  0.66380528  0.20908792
   0.99158239  0.52262000  0.37192143
   0.85355211  0.64297131  0.15424179
   0.27969962  0.47506022  0.96564962
   0.85667621  0.49318000  0.23197313
   0.11931589  0.47655979  0.03504937
   0.76204689  0.52203913  0.84827831
   0.07317260  0.93280126  0.17217078
   0.52555940  0.41886625  0.84667543
   0.44784004  0.06273364  0.15755390
   0.29485185  0.04146717  0.07394173
   0.14518344  0.19769990  0.26698354
   0.23241586  0.20080958  0.03752086
   0.04542867  0.55638775  0.62141116
   0.58013777  0.75729551  0.24613638

 position of ions in cartesian coordinates  (Angst):
  13.93960000  0.18110433  3.65880000
  11.69790000 13.05540000  2.41162000
  11.61610000  1.00833000  3.45731000
   9.42820000  2.60586000  4.61270000
  12.36760000  0.50013300  1.72157000
  13.37770000  0.36850800  6.23066000
  11.25260000 10.80980000  3.87830000
   7.25661000 14.16760000  1.19486000
   0.31856500  4.03480000  9.20301000
  12.14360000  2.91984000  5.85874000
   9.77639000  0.59668000  1.99354000
  12.62560000  3.53286000  7.91889000
  14.32360000  2.28986000  0.44860700
  12.93930000  2.87472000  7.90495000
   9.41953000  0.59421800  1.40280000
   8.76331000 12.55340000  2.11926000
  11.77350000  1.57624000  3.86674000
   0.44104400 12.75850000  6.14494000
  13.81210000 14.13280000  3.24818000
  14.20580000  2.41628000  5.95905000
  14.48910000 14.40780000  1.10312000
  14.01200000  1.79491000  0.89963500
  14.35779167  1.98799000  5.36925000
  13.93630000  5.08607000  5.47975000
  11.91470000  3.18908000  5.16913000
   1.63749000  0.24857300  6.04660000
  13.30930000  0.06580433  6.95966000
  10.55060000  3.80174000  1.55736000
  11.17190000 12.90180000  1.85888000
  12.23600000  0.45620300  1.02080000
   3.39844000 10.95780000  6.10353000
   6.72347000  4.02307000  8.28863000
   7.87998000  2.49001000  0.35091900
  14.43970000  9.79288000  7.31813000
   3.16877000 10.67370000  0.20945000
   8.94351000  5.25849000  6.05820000
   4.87058000  4.72868000  0.36928900
   9.26040000  9.32058000  5.76800000
   2.00357000  6.76422000  2.61024000
   4.41479000 11.89120000  4.12823000
   5.41683000  3.32676000  6.50064000
   1.19405000  9.22617000  9.11801000
   8.59494000  6.53558000  2.21425000
  10.18460000  7.12417000  5.77032000
   8.63465000  3.69862000  4.31805000
   2.84726000  8.69994000  5.57455000
   6.48172000 10.36160000  7.98689000
   9.01759000  7.67268000  0.00448614
   6.31121000  7.09126000  5.80314000
  12.57140000  6.23553000  0.04482195
   6.39408000 10.54170000  3.76913000
   4.62695000 11.84050000  7.78534000
   5.50580000  4.82646000  2.78712000
   2.13888000 12.75580000  8.74933000
   6.55512000  6.91080000  3.30536000
   2.78330000  0.52550900  2.55924000
   9.06281000  4.17620000  1.97764000
   6.10183000  0.96665300  3.71550000
   6.88102000  9.35358000  5.71273000
   0.69226000 11.76160000  2.89920000
   0.20295100  5.41972000  8.63437000
   3.20065000  4.68711000  3.32513000
   3.18881000  8.58928000  3.24839000
  10.58840000  7.45620000  3.44798000
   3.03889000  0.67332300  6.21042000
   2.84269000 10.84940000  2.64614000
   4.21251000 14.35370000  4.27998000
  12.23040000  9.61735000  8.18645000
  10.04000000  9.96083000  3.54039000
   4.93642000  9.02267000  0.21779000
   1.11923000 11.67870000  6.89314000
   4.08085000  6.95016000  6.42307000
   0.65194900  5.74799000  6.21135000
   3.96284000 14.03160000  7.95151000
   6.28485000  3.21680000  4.34136000
   2.85358000  4.94957000  5.81628000
   3.14738000  2.87735000  7.01720000
   5.34948000  8.70547000  2.58022000
  10.13020000 10.64220000  7.61849000
   8.47302000 10.03720000  0.00369866
   0.07871490  9.66779000  1.92668000
  14.44160000  7.61154000  3.42714000
  12.43130000  9.36436000  1.42129000
   4.07360000  6.91887000  8.89816000
  12.47680000  7.18277000  2.13756000
   1.73774000  6.94071000  0.32296900
  11.09860000  7.60308000  7.81662000
   1.06570000 13.58550000  1.58650000
   7.65435000  6.10045000  7.80185000
   6.52243000  0.91366500  1.45181000
   4.29428000  0.60393600  0.68135000
   2.11448000  2.87934000  2.46017000
   3.38495000  2.92463000  0.34574300
   0.66163200  8.10334000  5.72611000
   8.44924000 11.02940000  2.26807000



--------------------------------------------------------------------------------------------------------


 k-point     1 :   0.0000 0.0000 0.0000  plane waves:  184533
 k-point     2 :   0.5000 0.0000 0.0000  plane waves:  184494
 k-point     3 :   0.0000 0.5000 0.0000  plane waves:  184494
 k-point     4 :   0.5000 0.5000 0.0000  plane waves:  184420
 k-point     5 :   0.0000 0.0000 0.3333  plane waves:  184484
 k-point     6 :   0.5000 0.0000 0.3333  plane waves:  184546
 k-point     7 :   0.0000 0.5000 0.3333  plane waves:  184546
 k-point     8 :   0.5000 0.5000 0.3333  plane waves:  184584

 maximum and minimum number of plane-waves per node :     11626    11462

 maximum number of plane-waves:    184584
 maximum index in each direction: 
   IXMAX=   41   IYMAX=   41   IZMAX=   26
   IXMIN=  -41   IYMIN=  -41   IZMIN=  -26


 parallel 3D FFT for wavefunctions:
    minimum data exchange during FFTs selected (reduces bandwidth)
 parallel 3D FFT for charge:
    minimum data exchange during FFTs selected (reduces bandwidth)


 total amount of memory used by VASP MPI-rank0   162007. kBytes
=======================================================================

   base                                    :      30000. kBytes
   nonl-proj                               :      29469. kBytes
   fftplans                                :      36868. kBytes
   grid                                    :      28430. kBytes
   one-center                              :         18. kBytes
   wavefun                                 :      37222. kBytes

     INWAV:  cpu time      6.8075: real time      6.8096
 Broyden mixing: mesh for mixing (old mesh)
   NGX = 83   NGY = 83   NGZ = 53
  (NGX  =336   NGY  =336   NGZ  =216)
  gives a total of 365117 points

 initial charge density was supplied:
 number of electron     289.9999999 magnetization 
 keeping initial charge density in first step


--------------------------------------------------------------------------------------------------------


 Maximum index for augmentation-charges        10997 (set IRDMAX)


--------------------------------------------------------------------------------------------------------


 First call to EWALD:  gamma=   0.142
 Maximum number of real-space cells   2x   2x   4
 Maximum number of reciprocal cells   3x   3x   2

    FEWALD:  cpu time      0.0154: real time      0.0154


--------------------------------------- Ionic step        1  -------------------------------------------




--------------------------------------- Iteration      1(   1)  ---------------------------------------


    POTLOK:  cpu time      0.6735: real time      0.6743
    SETDIJ:  cpu time      1.2842: real time      1.2847
    EDDIAG:  cpu time     15.2166: real time     15.2289
     EDDAV:  cpu time     76.2850: real time     76.3456
       DOS:  cpu time      0.0103: real time      0.0106
    CHARGE:  cpu time      6.4025: real time      6.4073
    MIXING:  cpu time      0.0227: real time      0.0230
    --------------------------------------------
      LOOP:  cpu time     99.8948: real time     99.9745

 eigenvalue-minimisations  :  3488
 total energy-change (2. order) :-0.7744944E+03  (-0.8400576E+00)
 number of electron     289.9999999 magnetization 
 augmentation part      -13.9495172 magnetization 

 Broyden mixing:
  rms(total) = 0.10078E+01    rms(broyden)= 0.44605E+02
  rms(prec ) = 0.11082E+01
  weight for this iteration     100.00
  WARNING: grid for Broyden might be to small

 Free energy of the ion-electron system (eV)
  ---------------------------------------------------
  alpha Z        PSCENC =        92.00548437
  Ewald energy   TEWEN  =     -3913.71652421
  -Hartree energ DENC   =     -3624.89452691
  -exchange      EXHF   =         0.00000000
  -V(xc)+E(xc)   XCENC  =      -226.97565132
  PAW double counting   =     24152.80480975   -23504.91865418
  entropy T*S    EENTRO =        -0.11026409
  eigenvalues    EBANDS =      -822.68423817
  atomic energy  EATOM  =      7073.99518811
  Solvation  Ediel_sol  =         0.00000000
  ---------------------------------------------------
  free energy    TOTEN  =      -774.49437665 eV

  energy without entropy =     -774.38411256  energy(sigma->0) =     -774.43924461


--------------------------------------------------------------------------------------------------------




--------------------------------------- Iteration      1(   2)  ---------------------------------------


    POTLOK:  cpu time      0.6602: real time      0.6819
    SETDIJ:  cpu time      1.2779: real time      1.2784
    EDDIAG:  cpu time     14.6860: real time     14.6982
     EDDAV:  cpu time     69.9674: real time     70.0254
       DOS:  cpu time      0.0034: real time      0.0034
    CHARGE:  cpu time      6.2267: real time      6.2314
    MIXING:  cpu time      0.0153: real time      0.0156
    --------------------------------------------
      LOOP:  cpu time     92.8370: real time     92.9343

 eigenvalue-minimisations  :  3272
 total energy-change (2. order) : 0.5212631E+02  (-0.8035895E+00)
 number of electron     289.9999999 magnetization 
 augmentation part      -13.8949166 magnetization 

 Broyden mixing:
  rms(total) = 0.67674E+00    rms(broyden)= 0.25519E+02
  rms(prec ) = 0.72672E+00
  weight for this iteration     100.00
  WARNING: grid for Broyden might be to small

 eigenvalues of (default mixing * dielectric matrix)
  average eigenvalue GAMMA=   0.6361
  0.6361

 Free energy of the ion-electron system (eV)
  ---------------------------------------------------
  alpha Z        PSCENC =        92.00548437
  Ewald energy   TEWEN  =     -3913.71652421
  -Hartree energ DENC   =     -3615.42890924
  -exchange      EXHF   =         0.00000000
  -V(xc)+E(xc)   XCENC  =      -220.73978744
  PAW double counting   =     28907.31483242   -28259.23837629
  entropy T*S    EENTRO =        -0.10402609
  eigenvalues    EBANDS =      -786.45594459
  atomic energy  EATOM  =      7073.99518811
  Solvation  Ediel_sol  =         0.00000000
  ---------------------------------------------------
  free energy    TOTEN  =      -722.36806295 eV

  energy without entropy =     -722.26403687  energy(sigma->0) =     -722.31604991


--------------------------------------------------------------------------------------------------------




--------------------------------------- Iteration      1(   3)  ---------------------------------------


    POTLOK:  cpu time      0.6582: real time      0.6810
    SETDIJ:  cpu time      1.2805: real time      1.2809
    EDDIAG:  cpu time     14.7714: real time     14.7822
     EDDAV:  cpu time     69.2806: real time     69.3401
       DOS:  cpu time      0.0040: real time      0.0040
    CHARGE:  cpu time      6.2690: real time      6.2737
    MIXING:  cpu time      0.0127: real time      0.0128
    --------------------------------------------
      LOOP:  cpu time     92.2764: real time     92.3748

 eigenvalue-minimisations  :  3232
 total energy-change (2. order) :-0.2233330E+01  (-0.6043497E+00)
 number of electron     289.9999999 magnetization 
 augmentation part      -13.8511276 magnetization 

 Broyden mixing:
  rms(total) = 0.41195E+00    rms(broyden)= 0.16887E+02
  rms(prec ) = 0.44881E+00
  weight for this iteration     100.00
  WARNING: grid for Broyden might be to small

 eigenvalues of (default mixing * dielectric matrix)
  average eigenvalue GAMMA=   0.7232
  0.8226  0.6237

 Free energy of the ion-electron system (eV)
  ---------------------------------------------------
  alpha Z        PSCENC =        92.00548437
  Ewald energy   TEWEN  =     -3913.71652421
  -Hartree energ DENC   =     -3617.50718309
  -exchange      EXHF   =         0.00000000
  -V(xc)+E(xc)   XCENC  =      -224.25212698
  PAW double counting   =     32599.94329354   -31951.93767778
  entropy T*S    EENTRO =        -0.10953124
  eigenvalues    EBANDS =      -783.02231569
  atomic energy  EATOM  =      7073.99518811
  Solvation  Ediel_sol  =         0.00000000
  ---------------------------------------------------
  free energy    TOTEN  =      -724.60139296 eV

  energy without entropy =     -724.49186172  energy(sigma->0) =     -724.54662734


--------------------------------------------------------------------------------------------------------




--------------------------------------- Iteration      1(   4)  ---------------------------------------


    POTLOK:  cpu time      0.6613: real time      0.6817
    SETDIJ:  cpu time      1.2756: real time      1.2760
    EDDIAG:  cpu time     14.9258: real time     14.9369
     EDDAV:  cpu time     71.6683: real time     71.7245
       DOS:  cpu time      0.0028: real time      0.0028
    CHARGE:  cpu time      6.2079: real time      6.2130
    MIXING:  cpu time      0.0134: real time      0.0134
    --------------------------------------------
      LOOP:  cpu time     94.7550: real time     94.8484

 eigenvalue-minimisations  :  3472
 total energy-change (2. order) :-0.2077065E+00  (-0.6301001E-01)
 number of electron     289.9999999 magnetization 
 augmentation part      -13.8446576 magnetization 

 Broyden mixing:
  rms(total) = 0.36023E-01    rms(broyden)= 0.22134E+01
  rms(prec ) = 0.58838E-01
  weight for this iteration     100.00
  WARNING: grid for Broyden might be to small

 eigenvalues of (default mixing * dielectric matrix)
  average eigenvalue GAMMA=   0.9112
  1.3922  0.7219  0.6194

 Free energy of the ion-electron system (eV)
  ---------------------------------------------------
  alpha Z        PSCENC =        92.00548437
  Ewald energy   TEWEN  =     -3913.71652421
  -Hartree energ DENC   =     -3622.12921257
  -exchange      EXHF   =         0.00000000
  -V(xc)+E(xc)   XCENC  =      -224.20274238
  PAW double counting   =     38555.48923459   -37907.54883737
  entropy T*S    EENTRO =        -0.10467945
  eigenvalues    EBANDS =      -778.59701055
  atomic energy  EATOM  =      7073.99518811
  Solvation  Ediel_sol  =         0.00000000
  ---------------------------------------------------
  free energy    TOTEN  =      -724.80909947 eV

  energy without entropy =     -724.70442001  energy(sigma->0) =     -724.75675974


--------------------------------------------------------------------------------------------------------




--------------------------------------- Iteration      1(   5)  ---------------------------------------


    POTLOK:  cpu time      0.6599: real time      0.6814
    SETDIJ:  cpu time      1.2766: real time      1.2770
    EDDIAG:  cpu time     14.6421: real time     14.6535
     EDDAV:  cpu time     77.4914: real time     77.5568
       DOS:  cpu time      0.0031: real time      0.0031
    CHARGE:  cpu time      6.3508: real time      6.3554
    MIXING:  cpu time      0.0132: real time      0.0132
    --------------------------------------------
      LOOP:  cpu time    100.4371: real time    100.5404

 eigenvalue-minimisations  :  3992
 total energy-change (2. order) :-0.2733885E-01  (-0.5458406E-02)
 number of electron     289.9999999 magnetization 
 augmentation part      -13.8451593 magnetization 

 Broyden mixing:
  rms(total) = 0.36621E-01    rms(broyden)= 0.61976E+00
  rms(prec ) = 0.63129E-01
  weight for this iteration     100.00
  WARNING: grid for Broyden might be to small

 eigenvalues of (default mixing * dielectric matrix)
  average eigenvalue GAMMA=   0.9184
  1.7866  0.7560  0.6193  0.5118

 Free energy of the ion-electron system (eV)
  ---------------------------------------------------
  alpha Z        PSCENC =        92.00548437
  Ewald energy   TEWEN  =     -3913.71652421
  -Hartree energ DENC   =     -3622.68318437
  -exchange      EXHF   =         0.00000000
  -V(xc)+E(xc)   XCENC  =      -225.05528776
  PAW double counting   =     38393.44167569   -37745.48290570
  entropy T*S    EENTRO =        -0.10942204
  eigenvalues    EBANDS =      -777.23146240
  atomic energy  EATOM  =      7073.99518811
  Solvation  Ediel_sol  =         0.00000000
  ---------------------------------------------------
  free energy    TOTEN  =      -724.83643832 eV

  energy without entropy =     -724.72701628  energy(sigma->0) =     -724.78172730


--------------------------------------------------------------------------------------------------------




--------------------------------------- Iteration      1(   6)  ---------------------------------------


    POTLOK:  cpu time      0.6587: real time      0.6837
    SETDIJ:  cpu time      1.2780: real time      1.2785
    EDDIAG:  cpu time     14.6590: real time     14.6717
     EDDAV:  cpu time     71.0545: real time     71.1187
       DOS:  cpu time      0.0033: real time      0.0033
    CHARGE:  cpu time      6.3930: real time      6.3985
    MIXING:  cpu time      0.0134: real time      0.0134
    --------------------------------------------
      LOOP:  cpu time     94.0599: real time     94.1678

 eigenvalue-minimisations  :  3464
 total energy-change (2. order) :-0.1554812E-03  (-0.1457360E-02)
 number of electron     289.9999999 magnetization 
 augmentation part      -13.8460015 magnetization 

 Broyden mixing:
  rms(total) = 0.19900E-01    rms(broyden)= 0.30850E+00
  rms(prec ) = 0.24653E-01
  weight for this iteration     100.00
  WARNING: grid for Broyden might be to small

 eigenvalues of (default mixing * dielectric matrix)
  average eigenvalue GAMMA=   0.9929
  2.3766  0.9300  0.6419  0.6303  0.3856

 Free energy of the ion-electron system (eV)
  ---------------------------------------------------
  alpha Z        PSCENC =        92.00548437
  Ewald energy   TEWEN  =     -3913.71652421
  -Hartree energ DENC   =     -3622.68851045
  -exchange      EXHF   =         0.00000000
  -V(xc)+E(xc)   XCENC  =      -225.29350388
  PAW double counting   =     38361.26181984   -37713.29745790
  entropy T*S    EENTRO =        -0.10698572
  eigenvalues    EBANDS =      -776.99610396
  atomic energy  EATOM  =      7073.99518811
  Solvation  Ediel_sol  =         0.00000000
  ---------------------------------------------------
  free energy    TOTEN  =      -724.83659380 eV

  energy without entropy =     -724.72960808  energy(sigma->0) =     -724.78310094


--------------------------------------------------------------------------------------------------------




--------------------------------------- Iteration      1(   7)  ---------------------------------------


    POTLOK:  cpu time      0.6603: real time      0.6839
    SETDIJ:  cpu time      1.2795: real time      1.2801
    EDDIAG:  cpu time     14.7807: real time     14.7935
     EDDAV:  cpu time     69.7650: real time     69.8249
       DOS:  cpu time      0.0053: real time      0.0053
    CHARGE:  cpu time      6.2951: real time      6.2999
    MIXING:  cpu time      0.0133: real time      0.0133
    --------------------------------------------
      LOOP:  cpu time     92.7993: real time     92.9010

 eigenvalue-minimisations  :  3360
 total energy-change (2. order) :-0.9484198E-03  (-0.5588949E-03)
 number of electron     289.9999999 magnetization 
 augmentation part      -13.8450979 magnetization 

 Broyden mixing:
  rms(total) = 0.13092E-01    rms(broyden)= 0.15332E+00
  rms(prec ) = 0.16241E-01
  weight for this iteration     100.00
  WARNING: grid for Broyden might be to small

 eigenvalues of (default mixing * dielectric matrix)
  average eigenvalue GAMMA=   0.9642
  2.5631  1.0072  0.6578  0.5999  0.5972  0.3600

 Free energy of the ion-electron system (eV)
  ---------------------------------------------------
  alpha Z        PSCENC =        92.00548437
  Ewald energy   TEWEN  =     -3913.71652421
  -Hartree energ DENC   =     -3622.92962749
  -exchange      EXHF   =         0.00000000
  -V(xc)+E(xc)   XCENC  =      -225.28774722
  PAW double counting   =     38348.16925818   -37700.19827152
  entropy T*S    EENTRO =        -0.10727035
  eigenvalues    EBANDS =      -776.76803208
  atomic energy  EATOM  =      7073.99518811
  Solvation  Ediel_sol  =         0.00000000
  ---------------------------------------------------
  free energy    TOTEN  =      -724.83754222 eV

  energy without entropy =     -724.73027186  energy(sigma->0) =     -724.78390704


--------------------------------------------------------------------------------------------------------




--------------------------------------- Iteration      1(   8)  ---------------------------------------


    POTLOK:  cpu time      0.6585: real time      0.6828
    SETDIJ:  cpu time      1.2802: real time      1.2808
    EDDIAG:  cpu time     14.7759: real time     14.7884
     EDDAV:  cpu time     69.7783: real time     69.8397
       DOS:  cpu time      0.0035: real time      0.0035
    CHARGE:  cpu time      6.2216: real time      6.2269
    MIXING:  cpu time      0.0134: real time      0.0134
    --------------------------------------------
      LOOP:  cpu time     92.7314: real time     92.8356

 eigenvalue-minimisations  :  3376
 total energy-change (2. order) :-0.5183466E-03  (-0.2061395E-03)
 number of electron     289.9999999 magnetization 
 augmentation part      -13.8438698 magnetization 

 Broyden mixing:
  rms(total) = 0.50935E-02    rms(broyden)= 0.99892E-01
  rms(prec ) = 0.71622E-02
  weight for this iteration     100.00
  WARNING: grid for Broyden might be to small

 eigenvalues of (default mixing * dielectric matrix)
  average eigenvalue GAMMA=   0.9961
  2.6356  1.3090  0.8723  0.6364  0.6364  0.5228  0.3600

 Free energy of the ion-electron system (eV)
  ---------------------------------------------------
  alpha Z        PSCENC =        92.00548437
  Ewald energy   TEWEN  =     -3913.71652421
  -Hartree energ DENC   =     -3623.23410314
  -exchange      EXHF   =         0.00000000
  -V(xc)+E(xc)   XCENC  =      -225.20022638
  PAW double counting   =     38341.26825227   -37693.28814797
  entropy T*S    EENTRO =        -0.10760014
  eigenvalues    EBANDS =      -776.56038347
  atomic energy  EATOM  =      7073.99518811
  Solvation  Ediel_sol  =         0.00000000
  ---------------------------------------------------
  free energy    TOTEN  =      -724.83806056 eV

  energy without entropy =     -724.73046042  energy(sigma->0) =     -724.78426049


--------------------------------------------------------------------------------------------------------




--------------------------------------- Iteration      1(   9)  ---------------------------------------


    POTLOK:  cpu time      0.6561: real time      0.6808
    SETDIJ:  cpu time      1.2756: real time      1.2772
    EDDIAG:  cpu time     14.7346: real time     14.7462
     EDDAV:  cpu time     72.4719: real time     72.5360
       DOS:  cpu time      0.0040: real time      0.0040
    CHARGE:  cpu time      6.2294: real time      6.2351
    MIXING:  cpu time      0.0137: real time      0.0137
    --------------------------------------------
      LOOP:  cpu time     95.3855: real time     95.4932

 eigenvalue-minimisations  :  3528
 total energy-change (2. order) :-0.1148584E-03  (-0.4391527E-04)
 number of electron     289.9999999 magnetization 
 augmentation part      -13.8436932 magnetization 

 Broyden mixing:
  rms(total) = 0.19255E-02    rms(broyden)= 0.48295E-01
  rms(prec ) = 0.29236E-02
  weight for this iteration     100.00
  WARNING: grid for Broyden might be to small

 eigenvalues of (default mixing * dielectric matrix)
  average eigenvalue GAMMA=   1.0266
  2.7131  1.7148  0.9666  0.6662  0.6662  0.6323  0.4881  0.3655

 Free energy of the ion-electron system (eV)
  ---------------------------------------------------
  alpha Z        PSCENC =        92.00548437
  Ewald energy   TEWEN  =     -3913.71652421
  -Hartree energ DENC   =     -3623.32297001
  -exchange      EXHF   =         0.00000000
  -V(xc)+E(xc)   XCENC  =      -225.18361807
  PAW double counting   =     38352.68575983   -37704.70146633
  entropy T*S    EENTRO =        -0.10718631
  eigenvalues    EBANDS =      -776.49284280
  atomic energy  EATOM  =      7073.99518811
  Solvation  Ediel_sol  =         0.00000000
  ---------------------------------------------------
  free energy    TOTEN  =      -724.83817542 eV

  energy without entropy =     -724.73098912  energy(sigma->0) =     -724.78458227


--------------------------------------------------------------------------------------------------------




--------------------------------------- Iteration      1(  10)  ---------------------------------------


    POTLOK:  cpu time      0.6534: real time      0.6813
    SETDIJ:  cpu time      1.2774: real time      1.2780
    EDDIAG:  cpu time     14.7218: real time     14.7334
     EDDAV:  cpu time     72.6520: real time     72.7162
       DOS:  cpu time      0.0050: real time      0.0050
    CHARGE:  cpu time      6.2897: real time      6.2941
    MIXING:  cpu time      0.0139: real time      0.0139
    --------------------------------------------
      LOOP:  cpu time     95.6130: real time     95.7215

 eigenvalue-minimisations  :  3568
 total energy-change (2. order) :-0.8790710E-05  (-0.9065588E-05)
 number of electron     289.9999999 magnetization 
 augmentation part      -13.8437254 magnetization 

 Broyden mixing:
  rms(total) = 0.10100E-02    rms(broyden)= 0.24125E-01
  rms(prec ) = 0.13841E-02
  weight for this iteration     100.00
  WARNING: grid for Broyden might be to small

 eigenvalues of (default mixing * dielectric matrix)
  average eigenvalue GAMMA=   1.1285
  3.1173  2.3658  1.1433  0.8371  0.3668  0.6306  0.6306  0.5770  0.4878

 Free energy of the ion-electron system (eV)
  ---------------------------------------------------
  alpha Z        PSCENC =        92.00548437
  Ewald energy   TEWEN  =     -3913.71652421
  -Hartree energ DENC   =     -3623.29870084
  -exchange      EXHF   =         0.00000000
  -V(xc)+E(xc)   XCENC  =      -225.18917526
  PAW double counting   =     38359.20767584   -37711.22181795
  entropy T*S    EENTRO =        -0.10735553
  eigenvalues    EBANDS =      -776.51295874
  atomic energy  EATOM  =      7073.99518811
  Solvation  Ediel_sol  =         0.00000000
  ---------------------------------------------------
  free energy    TOTEN  =      -724.83818421 eV

  energy without entropy =     -724.73082868  energy(sigma->0) =     -724.78450645


--------------------------------------------------------------------------------------------------------




--------------------------------------- Iteration      1(  11)  ---------------------------------------


    POTLOK:  cpu time      0.6539: real time      0.6808
    SETDIJ:  cpu time      1.2782: real time      1.2788
    EDDIAG:  cpu time     14.8796: real time     14.8914
     EDDAV:  cpu time     74.5732: real time     74.6354
       DOS:  cpu time      0.0048: real time      0.0048
    CHARGE:  cpu time      6.1585: real time      6.1644
    MIXING:  cpu time      0.0142: real time      0.0142
    --------------------------------------------
      LOOP:  cpu time     97.5623: real time     97.6698

 eigenvalue-minimisations  :  3704
 total energy-change (2. order) :-0.1894757E-04  (-0.2152629E-05)
 number of electron     289.9999999 magnetization 
 augmentation part      -13.8438124 magnetization 

 Broyden mixing:
  rms(total) = 0.62117E-03    rms(broyden)= 0.15415E-01
  rms(prec ) = 0.87137E-03
  weight for this iteration     100.00
  WARNING: grid for Broyden might be to small

 eigenvalues of (default mixing * dielectric matrix)
  average eigenvalue GAMMA=   1.1808
  3.6079  2.5095  1.3221  0.9781  0.7235  0.3676  0.6397  0.5894  0.5894  0.4809

 Free energy of the ion-electron system (eV)
  ---------------------------------------------------
  alpha Z        PSCENC =        92.00548437
  Ewald energy   TEWEN  =     -3913.71652421
  -Hartree energ DENC   =     -3623.26706341
  -exchange      EXHF   =         0.00000000
  -V(xc)+E(xc)   XCENC  =      -225.19688135
  PAW double counting   =     38355.90788899   -37707.92105921
  entropy T*S    EENTRO =        -0.10729645
  eigenvalues    EBANDS =      -776.53794000
  atomic energy  EATOM  =      7073.99518811
  Solvation  Ediel_sol  =         0.00000000
  ---------------------------------------------------
  free energy    TOTEN  =      -724.83820316 eV

  energy without entropy =     -724.73090671  energy(sigma->0) =     -724.78455494


--------------------------------------------------------------------------------------------------------




--------------------------------------- Iteration      1(  12)  ---------------------------------------


    POTLOK:  cpu time      0.6584: real time      0.6806
    SETDIJ:  cpu time      1.2775: real time      1.2782
    EDDIAG:  cpu time     14.8104: real time     14.8217
     EDDAV:  cpu time     69.5365: real time     69.5980
       DOS:  cpu time      0.0048: real time      0.0048
    CHARGE:  cpu time      6.1845: real time      6.1900
    MIXING:  cpu time      0.0143: real time      0.0143
    --------------------------------------------
      LOOP:  cpu time     92.4865: real time     92.5877

 eigenvalue-minimisations  :  3360
 total energy-change (2. order) :-0.1088951E-04  (-0.1577983E-05)
 number of electron     289.9999999 magnetization 
 augmentation part      -13.8438477 magnetization 

 Broyden mixing:
  rms(total) = 0.26796E-03    rms(broyden)= 0.68680E-02
  rms(prec ) = 0.44358E-03
  weight for this iteration     100.00
  WARNING: grid for Broyden might be to small

 eigenvalues of (default mixing * dielectric matrix)
  average eigenvalue GAMMA=   1.1935
  3.7602  2.5789  1.4982  1.1147  0.8805  0.3681  0.6882  0.6320  0.5711  0.5711
  0.4658

 Free energy of the ion-electron system (eV)
  ---------------------------------------------------
  alpha Z        PSCENC =        92.00548437
  Ewald energy   TEWEN  =     -3913.71652421
  -Hartree energ DENC   =     -3623.23363561
  -exchange      EXHF   =         0.00000000
  -V(xc)+E(xc)   XCENC  =      -225.20042901
  PAW double counting   =     38353.07686203   -37705.08919256
  entropy T*S    EENTRO =        -0.10731784
  eigenvalues    EBANDS =      -776.56864933
  atomic energy  EATOM  =      7073.99518811
  Solvation  Ediel_sol  =         0.00000000
  ---------------------------------------------------
  free energy    TOTEN  =      -724.83821405 eV

  energy without entropy =     -724.73089621  energy(sigma->0) =     -724.78455513


--------------------------------------------------------------------------------------------------------




--------------------------------------- Iteration      1(  13)  ---------------------------------------


    POTLOK:  cpu time      0.6585: real time      0.6822
    SETDIJ:  cpu time      1.2782: real time      1.2787
    EDDIAG:  cpu time     14.8126: real time     14.8255
     EDDAV:  cpu time     68.3222: real time     68.3802
       DOS:  cpu time      0.0035: real time      0.0035
    CHARGE:  cpu time      6.2263: real time      6.2320
    MIXING:  cpu time      0.0144: real time      0.0144
    --------------------------------------------
      LOOP:  cpu time     91.3156: real time     91.4165

 eigenvalue-minimisations  :  3208
 total energy-change (2. order) :-0.6517694E-05  (-0.4219731E-06)
 number of electron     289.9999999 magnetization 
 augmentation part      -13.8438868 magnetization 

 Broyden mixing:
  rms(total) = 0.15453E-03    rms(broyden)= 0.44103E-02
  rms(prec ) = 0.28450E-03
  weight for this iteration     100.00
  WARNING: grid for Broyden might be to small

 eigenvalues of (default mixing * dielectric matrix)
  average eigenvalue GAMMA=   1.2210
  3.8569  2.5819  1.8391  1.2543  1.0231  0.8139  0.3681  0.4669  0.6685  0.6301
  0.5748  0.5748

 Free energy of the ion-electron system (eV)
  ---------------------------------------------------
  alpha Z        PSCENC =        92.00548437
  Ewald energy   TEWEN  =     -3913.71652421
  -Hartree energ DENC   =     -3623.20694998
  -exchange      EXHF   =         0.00000000
  -V(xc)+E(xc)   XCENC  =      -225.20535339
  PAW double counting   =     38352.91200677   -37704.92435687
  entropy T*S    EENTRO =        -0.10730415
  eigenvalues    EBANDS =      -776.59041121
  atomic energy  EATOM  =      7073.99518811
  Solvation  Ediel_sol  =         0.00000000
  ---------------------------------------------------
  free energy    TOTEN  =      -724.83822057 eV

  energy without entropy =     -724.73091642  energy(sigma->0) =     -724.78456849


--------------------------------------------------------------------------------------------------------




--------------------------------------- Iteration      1(  14)  ---------------------------------------


    POTLOK:  cpu time      0.6787: real time      0.6789
    SETDIJ:  cpu time      1.2787: real time      1.2795
    EDDIAG:  cpu time     14.8636: real time     14.8754
     EDDAV:  cpu time     59.8245: real time     59.8760
       DOS:  cpu time      0.0030: real time      0.0030
    CHARGE:  cpu time      6.1415: real time      6.1471
    MIXING:  cpu time      0.0148: real time      0.0148
    --------------------------------------------
      LOOP:  cpu time     82.8049: real time     82.8748

 eigenvalue-minimisations  :  2536
 total energy-change (2. order) :-0.3468016E-05  (-0.2734569E-06)
 number of electron     289.9999999 magnetization 
 augmentation part      -13.8438987 magnetization 

 Broyden mixing:
  rms(total) = 0.87426E-04    rms(broyden)= 0.16835E-02
  rms(prec ) = 0.17972E-03
  weight for this iteration     100.00
  WARNING: grid for Broyden might be to small

 eigenvalues of (default mixing * dielectric matrix)
  average eigenvalue GAMMA=   1.2418
  3.9276  2.5744  2.2891  1.3677  1.0825  0.9051  0.3682  0.7410  0.4667  0.6313
  0.6066  0.5914  0.5914

 Free energy of the ion-electron system (eV)
  ---------------------------------------------------
  alpha Z        PSCENC =        92.00548437
  Ewald energy   TEWEN  =     -3913.71652421
  -Hartree energ DENC   =     -3623.18785361
  -exchange      EXHF   =         0.00000000
  -V(xc)+E(xc)   XCENC  =      -225.20753222
  PAW double counting   =     38353.29892437   -37705.31141458
  entropy T*S    EENTRO =        -0.10730984
  eigenvalues    EBANDS =      -776.60718643
  atomic energy  EATOM  =      7073.99518811
  Solvation  Ediel_sol  =         0.00000000
  ---------------------------------------------------
  free energy    TOTEN  =      -724.83822404 eV

  energy without entropy =     -724.73091419  energy(sigma->0) =     -724.78456912


--------------------------------------------------------------------------------------------------------




--------------------------------------- Iteration      1(  15)  ---------------------------------------


    POTLOK:  cpu time      0.6574: real time      0.6832
    SETDIJ:  cpu time      1.2780: real time      1.2789
    EDDIAG:  cpu time     14.8160: real time     14.8268
     EDDAV:  cpu time     66.0217: real time     66.0799
       DOS:  cpu time      0.0032: real time      0.0032
    CHARGE:  cpu time      6.1564: real time      6.1623
    MIXING:  cpu time      0.0153: real time      0.0153
    --------------------------------------------
      LOOP:  cpu time     88.9480: real time     89.0495

 eigenvalue-minimisations  :  3056
 total energy-change (2. order) :-0.2818539E-05  (-0.4035188E-06)
 number of electron     289.9999999 magnetization 
 augmentation part      -13.8439074 magnetization 

 Broyden mixing:
  rms(total) = 0.57469E-04    rms(broyden)= 0.16508E-02
  rms(prec ) = 0.97508E-04
  weight for this iteration     100.00
  WARNING: grid for Broyden might be to small

 eigenvalues of (default mixing * dielectric matrix)
  average eigenvalue GAMMA=   1.2453
  3.9570  2.5631  2.5631  1.4348  1.1872  0.9724  0.8337  0.3682  0.4661  0.6862
  0.6357  0.6098  0.5785  0.5785

 Free energy of the ion-electron system (eV)
  ---------------------------------------------------
  alpha Z        PSCENC =        92.00548437
[...]
   0.553E+02 -.414E+01 -.196E+02   -.532E+02 0.343E+01 0.190E+02   -.203E+01 0.358E+00 -.739E-01   0.109E-03 0.762E-04 -.211E-04
   -.736E+02 0.711E+02 0.186E+02   0.737E+02 -.716E+02 -.180E+02   -.424E-01 -.189E+00 -.917E+00   -.162E-03 0.887E-04 -.856E-04
   -.874E+02 0.491E+02 -.367E+02   0.876E+02 -.488E+02 0.353E+02   0.291E+00 0.369E+00 0.164E+01   -.199E-03 0.118E-03 -.560E-04
   -.369E+02 -.638E+02 -.919E+01   0.386E+02 0.627E+02 0.848E+01   -.877E+00 0.153E+01 0.208E+01   -.187E-04 -.954E-04 -.563E-05
   0.990E+02 -.651E+02 -.448E+02   -.989E+02 0.649E+02 0.470E+02   -.155E+00 -.772E+00 -.127E+01   0.751E-04 -.123E-03 -.418E-04
   0.625E+02 0.710E+02 0.431E+01   -.615E+02 -.718E+02 -.404E+01   -.107E+01 0.127E+01 -.110E+01   0.518E-04 0.569E-04 0.301E-04
   0.449E+02 0.438E+02 -.104E+02   -.435E+02 -.456E+02 0.975E+01   -.162E+01 0.262E+01 0.202E+01   0.603E-04 -.369E-04 0.156E-04
   0.161E+02 -.541E+01 -.433E+01   -.153E+02 0.551E+01 0.460E+01   -.894E+00 0.636E+00 0.415E+00   0.456E-05 -.381E-04 0.584E-05
   -.340E+02 0.234E+02 -.751E+01   0.346E+02 -.234E+02 0.712E+01   -.164E+01 0.643E+00 0.785E-01   -.611E-05 -.530E-04 0.171E-04
   0.325E+02 -.935E+01 0.123E+02   -.347E+02 0.757E+01 -.119E+02   0.264E+01 0.150E+01 -.116E+01   0.163E-03 0.112E-03 0.201E-04
   0.104E+02 -.615E+02 -.720E+01   -.125E+02 0.620E+02 0.767E+01   0.183E+01 0.162E+00 -.727E+00   0.467E-04 -.611E-04 -.329E-05
   -.256E+02 0.515E+01 -.196E+02   0.245E+02 -.261E+01 0.178E+02   0.250E+00 -.264E+01 0.184E+01   -.146E-04 0.863E-04 -.934E-05
   0.885E+01 -.840E+02 0.217E+02   -.108E+02 0.829E+02 -.205E+02   0.134E+01 0.116E+01 -.574E+00   -.325E-04 -.108E-03 -.356E-04
   -.361E+02 -.792E+02 -.168E+01   0.368E+02 0.804E+02 0.354E+01   0.582E+00 -.231E+01 -.953E+00   -.710E-04 -.204E-03 -.327E-04
   -.442E+02 -.231E+02 0.582E+01   0.447E+02 0.225E+02 -.551E+01   0.330E+00 0.952E+00 -.203E+00   0.353E-04 -.400E-04 0.283E-04
   0.870E+02 -.645E+02 0.255E+02   -.883E+02 0.671E+02 -.257E+02   0.202E+01 -.186E+01 -.285E+00   0.988E-04 -.856E-04 0.210E-04
   -.407E+00 0.218E+02 -.515E+01   0.250E+00 -.205E+02 0.549E+01   -.639E-01 -.230E+01 0.882E+00   0.555E-04 -.141E-03 -.279E-04
   0.760E+02 0.657E+02 0.112E+02   -.753E+02 -.652E+02 -.108E+02   -.210E+01 -.796E+00 0.381E+00   0.799E-04 0.284E-04 -.150E-04
   -.470E+02 -.331E+02 0.169E+02   0.450E+02 0.334E+02 -.154E+02   0.168E+01 -.355E+00 -.142E+01   -.277E-04 0.102E-03 0.242E-04
   -.465E+02 0.615E+02 -.136E+02   0.469E+02 -.627E+02 0.133E+02   -.147E+00 0.707E+00 0.381E-02   -.150E-03 0.104E-03 0.827E-04
   0.419E+02 0.577E+02 0.398E+01   -.430E+02 -.563E+02 -.581E+01   0.911E+00 -.146E+01 0.567E+00   0.142E-03 -.573E-04 0.226E-04
   0.625E+02 0.409E+02 0.533E+00   -.613E+02 -.409E+02 -.286E+00   -.568E+00 0.411E+00 0.445E+00   0.214E-03 0.538E-04 -.191E-04
   -.449E+02 -.246E+02 0.154E+02   0.434E+02 0.244E+02 -.140E+02   0.216E+01 0.115E+01 -.177E+01   -.333E-05 -.368E-04 0.928E-05
   -.314E+02 -.141E+03 0.155E+02   0.313E+02 0.142E+03 -.161E+02   0.329E+00 -.132E+01 0.270E+00   -.440E-04 -.263E-03 0.673E-04
   -.357E+02 -.837E+02 -.123E+02   0.366E+02 0.837E+02 0.101E+02   -.795E+00 0.214E+00 0.226E+01   -.258E-04 -.127E-03 -.350E-06
   0.602E+02 -.526E+02 -.232E+02   -.621E+02 0.526E+02 0.218E+02   0.171E+01 0.165E+00 0.202E+01   0.390E-04 -.827E-04 0.390E-04
   0.693E+02 0.316E+02 -.304E+02   -.675E+02 -.308E+02 0.287E+02   -.485E+00 0.171E+00 0.117E+01   0.396E-05 -.214E-04 -.279E-05
   0.485E+02 -.812E+02 -.100E+02   -.462E+02 0.802E+02 0.116E+02   -.274E+01 0.150E+01 -.266E+01   0.427E-04 -.119E-03 0.999E-05
   -.900E+01 0.229E+02 0.879E+00   0.766E+01 -.222E+02 -.151E+01   0.609E+00 -.131E+01 -.503E+00   0.365E-04 -.124E-03 0.305E-05
   0.143E+02 0.688E+02 -.251E+02   -.157E+02 -.658E+02 0.237E+02   0.142E+01 -.338E+01 0.192E+01   0.136E-04 -.229E-04 0.263E-04
   0.442E+02 0.426E+02 0.105E+02   -.437E+02 -.423E+02 -.913E+01   0.213E+00 0.751E-02 -.168E+01   0.150E-04 -.618E-04 0.324E-04
   -.255E+02 0.328E+02 0.101E+02   0.266E+02 -.312E+02 -.113E+02   -.646E+00 -.200E+01 0.234E+01   -.658E-04 -.407E-04 -.190E-04
   0.773E+02 -.474E+02 -.711E-02   -.791E+02 0.465E+02 0.600E-01   0.264E+01 0.114E+01 -.600E+00   0.172E-03 0.375E-04 -.289E-04
   -.433E+02 0.241E+02 -.211E+02   0.434E+02 -.264E+02 0.209E+02   -.278E+00 0.254E+01 -.554E+00   -.374E-04 -.925E-04 0.212E-04
   -.768E+02 0.357E+02 0.158E+02   0.768E+02 -.373E+02 -.150E+02   -.518E-01 0.108E+01 -.105E+01   -.125E-03 0.215E-03 -.658E-04
   -.270E+02 0.172E+02 0.997E+01   0.267E+02 -.163E+02 -.854E+01   0.362E+00 0.769E+00 -.727E+00   0.129E-04 0.114E-03 -.146E-04
   0.101E+03 0.342E+02 -.172E+02   -.103E+03 -.327E+02 0.167E+02   0.161E+01 -.210E+01 -.641E+00   0.129E-03 0.270E-04 0.118E-04
   0.481E+02 0.357E+02 0.126E+02   -.468E+02 -.356E+02 -.102E+02   -.158E+01 -.812E+00 -.266E+01   0.126E-03 0.170E-04 -.184E-04
   0.857E+02 -.508E+01 0.305E+01   -.831E+02 0.427E+01 -.259E+01   -.393E+01 0.405E+00 -.449E+00   0.621E-05 -.442E-04 -.400E-04
   -.337E+02 -.918E+02 0.351E+01   0.363E+02 0.925E+02 -.292E+01   -.324E+01 -.206E+00 -.750E+00   -.113E-03 -.173E-03 -.692E-04
 -----------------------------------------------------------------------------------------------
   -.832E+01 -.796E+01 -.118E+01   -.149E-12 0.142E-13 -.209E-13   0.832E+01 0.796E+01 0.118E+01   0.702E-03 -.506E-03 -.412E-03


 POSITION                                       TOTAL-FORCE (eV/Angst)
 -----------------------------------------------------------------------------------
     13.93960      0.18110      3.65880        -0.102028     -0.017562      0.008575
     11.69790     13.05540      2.41162        -0.806909     -0.367681     -0.814131
     11.61610      1.00833      3.45731        -0.264900     -0.706169     -0.466066
      9.42820      2.60586      4.61270         1.133888     -1.815713      0.767621
     12.36760      0.50013      1.72157         0.172191      0.143974      0.811445
     13.37770      0.36851      6.23066        -0.212508     -0.700015      1.544189
     11.25260     10.80980      3.87830        -0.340595     -0.215125     -0.172807
      7.25661     14.16760      1.19486        -0.331227      0.327104     -0.024959
      0.31857      4.03480      9.20301         0.100029      0.374170     -0.181666
     12.14360      2.91984      5.85874        -0.463103      0.458036     -1.062018
      9.77639      0.59668      1.99354         1.247266     -0.035557      2.054001
     12.62560      3.53286      7.91889        -0.286268      0.448273      0.005003
     14.32360      2.28986      0.44861         0.036705      0.091970     -0.071950
     12.93930      2.87472      7.90495         0.187791     -0.505026      0.034933
      9.41953      0.59422      1.40280        -1.102395     -0.027837     -1.948964
      8.76331     12.55340      2.11926        -0.279351     -1.117086      0.158416
     11.77350      1.57624      3.86674         0.153076      0.705033      0.539085
      0.44104     12.75850      6.14494        -0.006723     -0.042881     -0.219710
     13.81210     14.13280      3.24818        -0.040612      0.214588      0.316385
     14.20580      2.41628      5.95905         0.173260     -0.010113     -0.163633
     14.48910     14.40780      1.10312         0.094780     -0.205819     -0.016561
     14.01200      1.79491      0.89964        -0.074318     -0.053983      0.024607
     14.35779      1.98799      5.36925         0.132768      0.171748      0.053444
     13.93630      5.08607      5.47975         1.401273      0.606897      0.483195
     11.91470      3.18908      5.16913         0.249081     -0.301580      1.003134
      1.63749      0.24857      6.04660        -0.233586     -0.093243     -0.025203
     13.30930      0.06580      6.95966         0.073091      0.526798     -1.412812
     10.55060      3.80174      1.55736        -1.081191      0.667471      0.557405
     11.17190     12.90180      1.85888         0.799278      0.161051      0.881134
     12.23600      0.45620      1.02080        -0.220545      0.010704     -1.033291
      3.39844     10.95780      6.10353        -1.216592     -0.027101     -0.888871
      6.72347      4.02307      8.28863        -1.111828      0.456410      0.120479
      7.87998      2.49001      0.35092         0.887195      0.930422      0.807124
     14.43970      9.79288      7.31813        -0.344715     -0.926907     -0.590651
      3.16877     10.67370      0.20945        -0.416862     -0.669330      1.010103
      8.94351      5.25849      6.05820         0.156065      0.530473     -0.017307
      4.87058      4.72868      0.36929         0.800494      0.156293      0.872371
      9.26040      9.32058      5.76800        -0.282201      0.689677      0.083930
      2.00357      6.76422      2.61024        -0.720556     -0.960712      0.125969
      4.41479     11.89120      4.12823        -0.349119      0.103990     -0.142226
      5.41683      3.32676      6.50064         0.037447      0.016620      0.252889
      1.19405      9.22617      9.11801         0.459671     -0.351580      0.702887
      8.59494      6.53558      2.21425         1.839114      0.187678     -0.445902
     10.18460      7.12417      5.77032         0.228760      0.019014     -0.972939
      8.63465      3.69862      4.31805        -1.480926      1.419613     -0.890028
      2.84726      8.69994      5.57455         0.995265      0.351583     -0.396236
      6.48172     10.36160      7.98689        -0.469141     -1.181276     -0.208612
      9.01759      7.67268      0.00449        -0.510693     -0.463485     -0.113858
      6.31121      7.09126      5.80314         0.754743     -0.196079     -0.125137
     12.57140      6.23553      0.04482         0.100191      0.307583     -0.398136
      6.39408     10.54170      3.76913        -0.153384      0.061939     -1.040986
      4.62695     11.84050      7.78534         0.704704     -0.427583      0.628886
      5.50580      4.82646      2.78712        -0.729494      0.542991     -0.642458
      2.13888     12.75580      8.74933        -0.477464     -0.069155      0.534292
      6.55512      6.91080      3.30536        -0.055258     -1.386954      0.460016
      2.78330      0.52551      2.55924        -0.033697     -0.313026     -0.706854
      9.06281      4.17620      1.97764         0.133661     -0.684902     -0.252978
      6.10183      0.96665      3.71550         0.349153      0.823293      0.238923
      6.88102      9.35358      5.71273         0.820496      0.489784      1.489427
      0.69226     11.76160      2.89920         0.179065     -1.049729      0.669593
      0.20295      5.41972      8.63437        -0.093130      0.594336     -0.847551
      3.20065      4.68711      3.32513        -0.325798      1.020343      1.461862
      3.18881      8.58928      3.24839        -0.059090      0.782995      0.716027
     10.58840      7.45620      3.44798        -1.096948      0.729403     -0.297958
      3.03889      0.67332      6.21042         0.474902     -0.251469     -0.731777
      2.84269     10.84940      2.64614        -0.213782      0.589734     -0.291669
      4.21251     14.35370      4.27998        -0.838811     -0.208469      0.076158
     12.23040      9.61735      8.18645        -0.613973      0.116796      0.525027
     10.04000      9.96083      3.54039         1.320900     -1.159105      0.901380
      4.93642      9.02267      0.21779         0.750948      0.397524      0.117930
      1.11923     11.67870      6.89314         0.866190      0.705503     -0.488560
      4.08085      6.95016      6.42307        -0.225283     -1.164453      1.256185
      0.65195      5.74799      6.21135        -1.535567     -0.374991      0.753707
      3.96284     14.03160      7.95151        -0.328713     -0.173202      0.076001
      6.28485      3.21680      4.34136         0.259287     -0.424389     -0.210146
      2.85358      4.94957      5.81628        -0.077685     -0.105299     -1.196733
      3.14738      2.87735      7.01720         0.798663      0.456212      0.671815
      5.34948      8.70547      2.58022         0.745195      1.033234     -0.428740
     10.13020     10.64220      7.61849         0.291475     -0.369604     -0.337408
      8.47302     10.03720      0.00370         0.093016      0.179070      0.188351
      0.07871      9.66779      1.92668        -0.155435      0.143746      0.715557
     14.44160      7.61154      3.42714         1.272117      1.087286     -0.492528
     12.43130      9.36436      1.42129        -0.368372      0.422912     -1.320401
      4.07360      6.91887      8.89816        -0.714482     -0.664700     -1.179016
     12.47680      7.18277      2.13756         0.161844     -0.491055      0.578148
      1.73774      6.94071      0.32297         0.683291      0.316234     -0.334551
     11.09860      7.60308      7.81662         0.410189     -0.412371      1.322111
      1.06570     13.58550      1.58650         0.925064      0.267691     -0.622810
      7.65435      6.10045      7.80185        -0.074486      0.259880     -0.908454
      6.52243      0.91367      1.45181        -0.022459     -0.574544     -0.329632
      4.29428      0.60394      0.68135         0.017356      1.717517      0.628744
      2.11448      2.87934      2.46017         0.090383     -0.799018     -1.155492
      3.38495      2.92463      0.34574        -0.315902     -0.831064     -0.394235
      0.66163      8.10334      5.72611        -1.564353     -0.388074     -0.030374
      8.44924     11.02940      2.26807        -0.738862      0.499412     -0.183480
 -----------------------------------------------------------------------------------
    total drift:                               -0.000283     -0.000338     -0.004232


--------------------------------------------------------------------------------------------------------



  FREE ENERGIE OF THE ION-ELECTRON SYSTEM (eV)
  ---------------------------------------------------
  free  energy   TOTEN  =      -724.83822760 eV

  energy  without entropy=     -724.73092004  energy(sigma->0) =     -724.78457382



--------------------------------------------------------------------------------------------------------


    POTLOK:  cpu time      1.9191: real time      1.9198


--------------------------------------------------------------------------------------------------------


     LOOP+:  cpu time   1632.5660: real time   1634.2500
    4ORBIT:  cpu time      0.0000: real time      0.0000



 total charge

# of ion       s       p       d       tot
------------------------------------------
    1        0.613   0.032   0.000   0.644
    2        0.589   0.027   0.000   0.617
    3        0.636   0.037   0.000   0.672
    4        0.617   0.021   0.000   0.638
    5        0.638   0.038   0.000   0.676
    6        0.578   0.026   0.000   0.604
    7        0.549   0.015   0.000   0.563
    8        0.556   0.014   0.000   0.569
    9        0.556   0.016   0.000   0.572
   10        0.590   0.029   0.000   0.618
   11        0.655   0.042   0.000   0.697
   12        0.625   0.035   0.000   0.660
   13        0.621   0.034   0.000   0.654
   14        0.622   0.035   0.000   0.658
   15        0.653   0.043   0.000   0.697
   16        0.530   0.013   0.000   0.543
   17        0.633   0.037   0.000   0.670
   18        0.568   0.017   0.000   0.584
   19        0.609   0.033   0.000   0.643
   20        0.613   0.032   0.000   0.645
   21        0.570   0.016   0.000   0.586
   22        0.616   0.034   0.000   0.650
   23        0.614   0.032   0.000   0.646
   24        0.516   0.011   0.000   0.526
   25        0.596   0.028   0.000   0.624
   26        0.575   0.016   0.000   0.591
   27        0.582   0.025   0.000   0.608
   28        0.523   0.011   0.000   0.534
   29        0.588   0.027   0.000   0.616
   30        0.639   0.038   0.000   0.677
   31        0.752   0.918   0.000   1.669
   32        0.753   0.952   0.000   1.705
   33        0.815   0.817   0.000   1.632
   34        0.744   0.943   0.000   1.688
   35        0.747   0.928   0.000   1.675
   36        0.790   0.882   0.000   1.672
   37        0.765   0.886   0.000   1.650
   38        0.764   0.897   0.000   1.661
   39        0.755   0.930   0.000   1.685
   40        0.753   0.887   0.000   1.639
   41        0.785   0.865   0.000   1.650
   42        0.763   0.921   0.000   1.684
   43        0.752   0.874   0.000   1.626
   44        0.751   0.970   0.000   1.721
   45        0.748   0.982   0.000   1.730
   46        0.749   0.972   0.000   1.722
   47        0.759   0.868   0.000   1.626
   48        0.770   0.821   0.000   1.591
   49        0.757   0.874   0.000   1.630
   50        0.798   0.820   0.000   1.618
   51        0.749   0.887   0.000   1.636
   52        0.766   0.912   0.000   1.678
   53        0.760   0.899   0.000   1.659
   54        0.785   0.871   0.000   1.656
   55        0.749   0.927   0.000   1.676
   56        0.757   0.876   0.000   1.633
   57        0.740   0.875   0.000   1.615
   58        0.778   0.904   0.000   1.682
   59        0.751   0.925   0.000   1.676
   60        0.799   0.883   0.000   1.682
   61        0.737   0.938   0.000   1.675
   62        0.758   0.885   0.000   1.642
   63        0.753   0.991   0.000   1.744
   64        0.772   0.855   0.000   1.627
   65        0.740   0.961   0.000   1.701
   66        0.762   0.900   0.000   1.662
   67        0.743   0.915   0.000   1.659
   68        0.753   0.891   0.000   1.644
   69        0.741   0.928   0.000   1.670
   70        0.761   0.876   0.000   1.637
   71        0.746   0.945   0.000   1.691
   72        0.753   0.925   0.000   1.677
   73        0.742   0.896   0.000   1.639
   74        0.754   0.989   0.000   1.743
   75        0.743   0.930   0.000   1.673
   76        0.748   0.882   0.000   1.630
   77        0.758   0.885   0.000   1.643
   78        0.755   0.957   0.000   1.711
   79        0.804   0.820   0.000   1.624
   80        0.749   0.893   0.000   1.642
   81        0.763   0.902   0.000   1.665
   82        0.763   0.855   0.000   1.618
   83        0.815   0.851   0.000   1.665
   84        0.752   0.903   0.000   1.655
   85        0.751   0.954   0.000   1.705
   86        0.748   0.944   0.000   1.692
   87        0.766   0.866   0.000   1.632
   88        0.751   0.934   0.000   1.686
   89        0.769   0.866   0.000   1.635
   90        0.742   0.956   0.000   1.698
   91        0.765   0.909   0.000   1.675
   92        0.799   0.837   0.000   1.636
   93        0.764   0.848   0.000   1.613
   94        0.749   0.906   0.000   1.655
   95        0.736   0.901   0.000   1.637
--------------------------------------------------
tot         67.275  59.475   0.000 126.751


 total amount of memory used by VASP MPI-rank0   162007. kBytes
=======================================================================

   base                                    :      30000. kBytes
   nonl-proj                               :      29469. kBytes
   fftplans                                :      36868. kBytes
   grid                                    :      28430. kBytes
   one-center                              :         18. kBytes
   wavefun                                 :      37222. kBytes

  
  
 General timing and accounting informations for this job:
 ========================================================
  
                  Total CPU time used (sec):     1691.199
                            User time (sec):     1683.657
                          System time (sec):        7.542
                         Elapsed time (sec):     1693.134
  
                   Maximum memory used (kb):      319272.
                   Average memory used (kb):          N/A
  
                          Minor page faults:       250848
                          Major page faults:         1152
                 Voluntary context switches:         2584
