 vasp.6.5.0 16Dec24 (build Jan 20 2025 08:32:48) complex                         
 executed on        HPECrayEX_GCC date 2025.07.22  11:03:27
 running  128 mpi-ranks, with    1 threads/rank, on    1 nodes
 distrk:  each k-point on  128 cores,    1 groups
 distr:  one band on NCORE=  16 cores,    8 groups


--------------------------------------------------------------------------------------------------------


 INCAR:
   SYSTEM = a-Si SPC
   NCORE = 16
   ISTART = 1
   ICHARG = 1
   ISPIN = 1
   ISYM = 1
   EDIFF = 1E-6
   NELM = 150
   EDIFFG = -0.01
   NSW = 0
   ISIF = 2
   IBRION = -1
   PREC = Accurate
   ENCUT = 1200
   KSPACING = 0.23
   KGAMMA = .TRUE.
   METAGGA = SCAN
   LASPH = .TRUE.
   LDIAG = .FALSE.
   LMIXTAU = .TRUE.
   ADDGRID = .TRUE.
   ALGO = Normal
   ISMEAR = 0
   SIGMA = 0.1
   LORBIT = 11
   NEDOS = 2000
   LWAVE = .FALSE.
   LCHARG = .FALSE.

 POTCAR:    PAW_PBE H 15Jun2001                   
 POTCAR:    PAW_PBE Si 05Jan2001                  
 POTCAR:    PAW_PBE H 15Jun2001                   
   SHA256 =  030f79b5d3ab3cf0e668861823c8fb652ff669f3e15e46930bd03bfd63a607b6 H/POTCAR              
   COPYR  = (c) Copyright 15Jun2001 Georg Kresse                                                    
   COPYR  = This file is part of the software VASP. Any use, copying, and all other rights are regul
   COPYR  = If you do not have a valid VASP license, you may not use, copy or distribute this file. 
   VRHFIN =H: ultrasoft test                                                                        
   LEXCH  = PE                                                                                      
   EATOM  =    12.4884 eV,    0.9179 Ry                                                             
                                                                                                    
   TITEL  = PAW_PBE H 15Jun2001                                                                     
   LULTRA =        F    use ultrasoft PP ?                                                          
   IUNSCR =        0    unscreen: 0-lin 1-nonlin 2-no                                               
   RPACOR =    0.000    partial core radius                                                         
   POMASS =    1.000; ZVAL   =    1.000    mass and valenz                                          
   RCORE  =    1.100    outmost cutoff radius                                                       
   RWIGS  =    0.700; RWIGS  =    0.370    wigner-seitz radius (au A)                               
   ENMAX  =  250.000; ENMIN  =  200.000 eV                                                          
   RCLOC  =    0.701    cutoff for local pot                                                        
   LCOR   =        T    correct aug charges                                                         
   LPAW   =        T    paw PP                                                                      
   EAUG   =  400.000                                                                                
   RMAX   =    1.123    core radius for proj-oper                                                   
   RAUG   =    1.200    factor for augmentation sphere                                              
   RDEP   =    1.112    radius for radial grids                                                     
   RDEPT  =    0.926    core radius for aug-charge                                                  
                                                                                                    
   Atomic configuration                                                                             
    2 entries                                                                                       
     n  l   j            E        occ.                                                              
     1  0  0.50        -6.4927   1.0000                                                             
     2  1  0.50        -3.4015   0.0000                                                             
   Description                                                                                      
     l       E           TYP  RCUT    TYP  RCUT                                                     
     0     -6.4927494     23  1.100                                                                 
     0      6.8029130     23  1.100                                                                 
     1     -4.0817478     23  1.100                                                                 
  local pseudopotential read in
  atomic valenz-charges read in
  non local Contribution for L=           0  read in
    real space projection operators read in
  non local Contribution for L=           0  read in
    real space projection operators read in
  non local Contribution for L=           1  read in
    real space projection operators read in
    PAW grid and wavefunctions read in

   number of l-projection  operators is LMAX  =           3
   number of lm-projection operators is LMMAX =           5

 POTCAR:    PAW_PBE Si 05Jan2001                  
   SHA256 =  79d9987ad8750f624c4d6acb2a16d13abf6a777132adc04dc6c8399be72b42bb Si/POTCAR             
   COPYR  = (c) Copyright 05Jan2001 Georg Kresse                                                    
   COPYR  = This file is part of the software VASP. Any use, copying, and all other rights are regul
   COPYR  = If you do not have a valid VASP license, you may not use, copy or distribute this file. 
   VRHFIN =Si: s2p2                                                                                 
   LEXCH  = PE                                                                                      
   EATOM  =   103.0669 eV,    7.5752 Ry                                                             
                                                                                                    
   TITEL  = PAW_PBE Si 05Jan2001                                                                    
   LULTRA =        F    use ultrasoft PP ?                                                          
   IUNSCR =        1    unscreen: 0-lin 1-nonlin 2-no                                               
   RPACOR =    1.500    partial core radius                                                         
   POMASS =   28.085; ZVAL   =    4.000    mass and valenz                                          
   RCORE  =    1.900    outmost cutoff radius                                                       
   RWIGS  =    2.480; RWIGS  =    1.312    wigner-seitz radius (au A)                               
   ENMAX  =  245.345; ENMIN  =  184.009 eV                                                          
   ICORE  =        2    local potential                                                             
   LCOR   =        T    correct aug charges                                                         
   LPAW   =        T    paw PP                                                                      
   EAUG   =  322.069                                                                                
   DEXC   =    0.000                                                                                
   RMAX   =    1.950    core radius for proj-oper                                                   
   RAUG   =    1.300    factor for augmentation sphere                                              
   RDEP   =    1.993    radius for radial grids                                                     
   RDEPT  =    1.837    core radius for aug-charge                                                  
                                                                                                    
   Atomic configuration                                                                             
    6 entries                                                                                       
     n  l   j            E        occ.                                                              
     1  0  0.50     -1785.8828   2.0000                                                             
     2  0  0.50      -139.4969   2.0000                                                             
     2  1  1.50       -95.5546   6.0000                                                             
     3  0  0.50       -10.8127   2.0000                                                             
     3  1  0.50        -4.0811   2.0000                                                             
     3  2  1.50        -4.0817   0.0000                                                             
   Description                                                                                      
     l       E           TYP  RCUT    TYP  RCUT                                                     
     0    -10.8127223     23  1.900                                                                 
     0     -7.6451159     23  1.900                                                                 
     1     -4.0811372     23  1.900                                                                 
     1      2.4879257     23  1.900                                                                 
     2     -4.0817478      7  1.900                                                                 
  local pseudopotential read in
  partial core-charges read in
  partial kinetic energy density read in
  atomic valenz-charges read in
  non local Contribution for L=           0  read in
    real space projection operators read in
  non local Contribution for L=           0  read in
    real space projection operators read in
  non local Contribution for L=           1  read in
    real space projection operators read in
  non local Contribution for L=           1  read in
    real space projection operators read in
    PAW grid and wavefunctions read in

   number of l-projection  operators is LMAX  =           4
   number of lm-projection operators is LMMAX =           8

 -----------------------------------------------------------------------------
|                                                                             |
|               ----> ADVICE to this user running VASP <----                  |
|                                                                             |
|     You have a (more or less) 'large supercell' and for larger cells it     |
|     might be more efficient to use real-space projection operators.         |
|     Therefore, try LREAL= Auto in the INCAR file.                           |
|     Mind: For very accurate calculation, you might also keep the            |
|     reciprocal projection scheme (i.e. LREAL=.FALSE.).                      |
|                                                                             |
 -----------------------------------------------------------------------------

 -----------------------------------------------------------------------------
|                                                                             |
|               ----> ADVICE to this user running VASP <----                  |
|                                                                             |
|     You enforced a specific xc type in the INCAR file but a different       |
|     type was found in the POTCAR file.                                      |
|     I HOPE YOU KNOW WHAT YOU ARE DOING!                                     |
|                                                                             |
 -----------------------------------------------------------------------------

  PAW_PBE H 15Jun2001                   :
 energy of atom  1       EATOM=  -12.4884
 kinetic energy error for atom=    0.0000 (will be added to EATOM!!)
  PAW_PBE Si 05Jan2001                  :
 energy of atom  2       EATOM= -103.0669
 kinetic energy error for atom=    0.0001 (will be added to EATOM!!)


 POSCAR:  H Si
  positions in cartesian coordinates
  No initial velocities read in


 exchange-correlation table for SCAN
   RHO(1)=    0.500       N(1)  =     2000
   RHO(2)=  100.500       N(2)  =     4000



--------------------------------------------------------------------------------------------------------


 ion  position               nearest neighbor table
   1  0.697  0.847  0.163-  31 1.49
   2  0.634  0.681  0.657-  41 1.52
   3  0.465  0.696  0.103-  84 1.59
   4  0.670  0.878  0.668-  55 1.46
   5  0.483  0.027  0.865-  42 1.53
   6  0.270  0.302  0.861-  81 2.39  54 2.39  99 2.39  73 2.43
   7  0.053  0.656  0.772-  30 2.34  85 2.35  66 2.42  87 2.49  11 3.15
   8  0.126  0.478  0.954-  83 2.22  33 2.28  73 2.37  66 2.41
   9  0.677  0.499  0.207-  53 2.37  17 2.43  38 2.45  19 2.53
  10  0.515  0.357  0.691-  32 2.31  77 2.39  35 2.50  54 2.62
  11  0.876  0.605  0.919-  87 2.35  83 2.37  91 2.38  53 2.48   7 3.15
  12  0.619  0.122  0.442-  82 2.31  65 2.35  76 2.42  29 2.43  60 3.07
  13  0.683  0.159  0.077-  45 2.29  82 2.39  49 2.48
  14  0.002  0.318  0.396-  18 2.33  61 2.40  37 2.46  25 2.58
  15  0.930  0.234  0.068-  49 2.27  21 2.30  80 2.44  37 2.48
  16  0.854  0.519  0.621-  87 2.28  40 2.38  70 2.46  25 2.47
  17  0.725  0.347  0.274-  37 2.32  92 2.33  82 2.42   9 2.43
  18  0.938  0.242  0.559-  14 2.33  28 2.34  78 2.37  27 2.48
  19  0.723  0.623  0.356-  40 2.33  90 2.36   9 2.53
  20  0.023  0.568  0.224-  33 2.30  46 2.32  95 2.36  97 2.46
  21  0.083  0.204  0.103-  15 2.30  73 2.35  61 2.40  22 2.42
  22  0.161  0.090  0.982-  94 2.37  48 2.38  21 2.42  99 2.66
  23  0.432  0.545  0.874-  35 2.28  84 2.31  54 2.41  39 2.47
  24  0.806  0.042  0.678-  76 2.32  78 2.40  55 2.40  44 2.56
  25  0.998  0.463  0.529-  46 2.35  51 2.43  16 2.47  14 2.58
  26  0.155  0.009  0.658-  72 2.32  59 2.34  86 2.37  48 2.43
  27  0.775  0.286  0.595-  70 2.32  92 2.33  76 2.41  18 2.48
  28  0.027  0.239  0.733-  18 2.34  80 2.37  81 2.41  48 2.43
  29  0.695  0.976  0.406-  60 2.39  55 2.39  12 2.43  31 2.44
  30  0.093  0.697  0.969-  33 2.23   7 2.34  91 2.43 100 2.44  85 2.97
  31  0.766  0.883  0.250-   1 1.49  29 2.44  71 2.45  90 2.52
  32  0.512  0.326  0.488-  10 2.31  34 2.45  92 2.46  65 2.50
  33  0.144  0.590  0.095-  30 2.23   8 2.28  43 2.30  20 2.30
  34  0.451  0.454  0.367-  69 2.29  38 2.43  32 2.45  88 2.54
  35  0.568  0.501  0.792-  41 2.26  23 2.28  68 2.38  10 2.50  54 3.03
  36  0.847  0.778  0.566-  50 2.26  55 2.38  90 2.50  87 2.57
  37  0.882  0.330  0.241-  17 2.32  97 2.35  14 2.46  15 2.48
  38  0.513  0.470  0.167-  52 2.34  34 2.43  84 2.44   9 2.45
  39  0.307  0.623  0.762-  66 2.27  96 2.37  23 2.47  98 2.58
  40  0.711  0.522  0.517-  41 2.28  19 2.33  92 2.36  16 2.38
  41  0.595  0.586  0.627-   2 1.52  35 2.26  40 2.28  88 2.38
  42  0.452  0.122  0.823-   5 1.53 101 2.19  99 2.41  77 2.42
  43  0.288  0.608  0.179-  33 2.30  69 2.37  84 2.40  63 2.50
  44  0.910  0.032  0.863-  89 2.40  49 2.43  48 2.45  24 2.56
  45  0.619  0.277  0.971-  52 2.27  13 2.29  77 2.43  68 2.58
  46  0.079  0.574  0.418-  20 2.32  58 2.35  25 2.35  62 2.37  51 3.15
  47  0.151  0.988  0.364-  75 2.22  72 2.33  67 2.43  79 2.43
  48  0.064  0.087  0.810-  22 2.38  28 2.43  26 2.43  44 2.45
  49  0.843  0.107  0.037-  15 2.27  44 2.43  71 2.47  13 2.48
  50  0.991  0.838  0.560-  36 2.26  72 2.32  62 2.39  85 2.43
  51  0.150  0.434  0.612-  58 2.33  66 2.34  81 2.35  25 2.43  46 3.15
  52  0.489  0.336  0.055-  45 2.27  54 2.31  38 2.34  64 2.46
  53  0.768  0.505  0.032-  68 2.36   9 2.37  97 2.37  11 2.48
  54  0.414  0.380  0.883-  52 2.31   6 2.39  23 2.41  10 2.62  35 3.03
  55  0.744  0.905  0.589-   4 1.46  36 2.38  29 2.39  24 2.40
  56  0.374  0.120  0.303-  67 2.35  65 2.36  64 2.47
  57  0.245  0.341  0.213-  61 2.27  69 2.35  73 2.39  64 2.50
  58  0.226  0.517  0.463-  69 2.24  51 2.33  96 2.35  46 2.35
  59  0.200  0.863  0.722-  98 2.25  85 2.29  26 2.34  74 2.43
  60  0.815  0.081  0.354-  82 2.29  78 2.32  71 2.35  29 2.39  12 3.07
  61  0.134  0.252  0.298-  67 2.24  57 2.27  21 2.40  14 2.40
  62  0.090  0.734  0.456-  93 2.26  74 2.30  46 2.37  50 2.39
  63  0.236  0.770  0.210-  79 2.31 100 2.38  93 2.47  43 2.50
  64  0.370  0.236  0.142-  99 2.42  52 2.46  56 2.47  57 2.50
  65  0.464  0.162  0.470- 101 2.29  12 2.35  56 2.36  32 2.50
  66  0.174  0.541  0.766-  39 2.27  51 2.34   8 2.41   7 2.42
  67  0.223  0.140  0.372-  61 2.24  56 2.35  47 2.43  86 2.49
  68  0.695  0.421  0.879-  70 2.30  53 2.36  35 2.38  45 2.58
  69  0.304  0.475  0.299-  58 2.24  34 2.29  57 2.35  43 2.37
  70  0.813  0.387  0.747-  68 2.30  27 2.32  16 2.46  80 2.61
  71  0.883  0.998  0.198-  60 2.35  31 2.45  49 2.47  75 2.54
  72  0.040  0.985  0.516-  50 2.32  26 2.32  47 2.33  78 2.37
  73  0.166  0.330  0.026-  21 2.35   8 2.37  57 2.39   6 2.43
  74  0.228  0.783  0.534-  62 2.30  59 2.43  96 2.43  79 2.45
  75  0.049  0.946  0.227-  47 2.22  94 2.26  93 2.31  71 2.54
  76  0.690  0.147  0.635-  24 2.32  27 2.41  12 2.42  77 2.46
  77  0.581  0.220  0.772-  10 2.39  42 2.42  45 2.43  76 2.46
  78  0.910  0.084  0.520-  60 2.32  72 2.37  18 2.37  24 2.40
  79  0.273  0.874  0.360-  63 2.31  47 2.43  74 2.45
  80  0.944  0.321  0.881-  28 2.37  83 2.39  15 2.44  70 2.61
  81  0.181  0.285  0.682-  51 2.35   6 2.39  28 2.41  86 2.46
  82  0.705  0.182  0.287-  60 2.29  12 2.31  13 2.39  17 2.42
  83  0.973  0.476  0.942-   8 2.22  97 2.34  11 2.37  80 2.39
  84  0.429  0.595  0.070-   3 1.59  23 2.31  43 2.40  38 2.44
  85  0.052  0.818  0.761-  59 2.29  89 2.32   7 2.35  50 2.43  30 2.97
  86  0.237  0.141  0.594- 101 2.31  26 2.37  81 2.46  67 2.49
  87  0.887  0.652  0.719-  16 2.28  11 2.35   7 2.49  36 2.57
  88  0.463  0.594  0.503-  41 2.38  96 2.38  34 2.54
  89  0.974  0.886  0.918-  85 2.32  44 2.40  94 2.41  91 2.44
  90  0.833  0.742  0.348-  95 2.25  19 2.36  36 2.50  31 2.52
  91  0.935  0.740  0.012-  95 2.36  11 2.38  30 2.43  89 2.44
  92  0.675  0.367  0.470-  17 2.33  27 2.33  40 2.36  32 2.46
  93  0.073  0.793  0.270-  95 2.21  62 2.26  75 2.31  63 2.47
  94  0.100  0.945  0.036-  75 2.26  22 2.37 100 2.37  89 2.41
  95  0.949  0.713  0.220-  93 2.21  90 2.25  20 2.36  91 2.36
  96  0.309  0.638  0.551-  58 2.35  39 2.37  88 2.38  74 2.43
  97  0.907  0.466  0.132-  83 2.34  37 2.35  53 2.37  20 2.46
  98  0.299  0.789  0.843-  59 2.25 100 2.39  39 2.58
  99  0.327  0.165  0.954-   6 2.39  42 2.41  64 2.42  22 2.66
 100  0.203  0.819  0.012-  94 2.37  63 2.38  98 2.39  30 2.44
 101  0.390  0.123  0.644-  42 2.19  65 2.29  86 2.31

  LATTYP: Found a simple tetragonal cell.
 ALAT       =    14.5295791732
 C/A-ratio  =     0.7690058218
  
  Lattice vectors:
  
 A1 = (  14.5295791732,   0.0000000000,   0.0000000000)
 A2 = (   0.0000000000,  14.5295791732,   0.0000000000)
 A3 = (   0.0000000000,   0.0000000000,  11.1733309726)


Analysis of symmetry for initial positions (statically):
=====================================================================
 Subroutine PRICEL returns:
 Original cell was already a primitive cell.
 

 Routine SETGRP: Setting up the symmetry group for a 
 simple tetragonal supercell.


 Subroutine GETGRP returns: Found  1 space group operations
 (whereof  1 operations were pure point group operations)
 out of a pool of 16 trial point group operations.


The static configuration has the point symmetry C_1 .


Analysis of symmetry for dynamics (positions and initial velocities):
=====================================================================
 Subroutine PRICEL returns:
 Original cell was already a primitive cell.
 

 Routine SETGRP: Setting up the symmetry group for a 
 simple tetragonal supercell.


 Subroutine GETGRP returns: Found  1 space group operations
 (whereof  1 operations were pure point group operations)
 out of a pool of 16 trial point group operations.


The dynamic configuration has the point symmetry C_1 .


 Subroutine INISYM returns: Found  1 space group operations
 (whereof  1 operations are pure point group operations),
 and found     1 'primitive' translations


----------------------------------------------------------------------------------------

                                     Primitive cell                                     

  volume of cell :    2358.7871

  direct lattice vectors                    reciprocal lattice vectors
    14.529579173  0.000000000  0.000000000     0.068825118  0.000000000  0.000000000
     0.000000000 14.529579173  0.000000000     0.000000000  0.068825118  0.000000000
     0.000000000  0.000000000 11.173330973     0.000000000  0.000000000  0.089498826

  length of vectors
    14.529579173 14.529579173 11.173330973     0.068825118  0.068825118  0.089498826

  position of ions in fractional coordinates (direct lattice)
     0.696785494  0.846645306  0.163207373
     0.633769904  0.680682481  0.657183611
     0.464711326  0.695808177  0.102587134
     0.669541071  0.878146562  0.668342325
     0.483380139  0.027137193  0.865031209
     0.270384982  0.301531789  0.860556268
     0.053105392  0.656414744  0.772237037
     0.125689807  0.477752309  0.954406526
     0.676591516  0.499231940  0.207259590
     0.514978439  0.357487986  0.690577413
     0.875792743  0.605420150  0.919493034
     0.618952545  0.122061347  0.441901346
     0.682644685  0.158718293  0.077170720
     0.001855477  0.317612089  0.395782602
     0.930081996  0.234498877  0.067952520
     0.853823765  0.518884264  0.620503413
     0.725086382  0.347314946  0.273700833
     0.937590816  0.241892071  0.559294271
     0.723124867  0.622530762  0.355696973
     0.022852210  0.567934549  0.224225883
     0.083376124  0.204241979  0.102543279
     0.161426561  0.090150581  0.981685768
     0.431501142  0.545286268  0.873765399
     0.806293139  0.042107482  0.677736122
     0.997596916  0.462664467  0.528754587
     0.154688582  0.009407705  0.657988206
     0.775328718  0.286108768  0.594787715
     0.026572208  0.238812147  0.733420501
     0.695243811  0.976008997  0.406420432
     0.092951763  0.696806141  0.968556291
     0.765603729  0.882902378  0.249842237
     0.511641797  0.326246200  0.488259948
     0.144475623  0.589582114  0.095243755
     0.451274598  0.453536191  0.367234266
     0.568454867  0.501046170  0.792284774
     0.846796721  0.778357024  0.565628103
     0.882131536  0.330288988  0.240687402
     0.513476675  0.469948917  0.166564474
     0.307384677  0.622836346  0.762087870
     0.710777640  0.521706782  0.517484000
     0.595241603  0.586303973  0.626650192
     0.452072281  0.122242357  0.823145759
     0.287653204  0.608454649  0.178552842
     0.910053887  0.032275539  0.862944991
     0.619216145  0.277217939  0.970945909
     0.078602414  0.574371074  0.418205637
     0.150761421  0.988486991  0.364477702
     0.064097589  0.087344581  0.810497785
     0.842694744  0.106883343  0.037250396
     0.990703160  0.837739335  0.560072016
     0.149830905  0.434378720  0.611990284
     0.489368612  0.335526579  0.055049564
     0.768439324  0.505442719  0.032086850
     0.413699525  0.380291124  0.882820891
     0.744467536  0.905139773  0.589014146
     0.373944072  0.119774288  0.302587474
     0.244609975  0.340501947  0.213348195
     0.225993469  0.517370112  0.463018594
     0.199964498  0.862929329  0.721733744
     0.814910044  0.081474486  0.354442199
     0.133749916  0.251730622  0.297997080
     0.089922770  0.734377773  0.455895383
     0.235508542  0.770483430  0.210426954
     0.370171767  0.236094932  0.141887858
     0.463711297  0.161538058  0.470408512
     0.173790305  0.541259310  0.765652608
     0.222760065  0.139542927  0.371502465
     0.695250694  0.421004623  0.878543742
     0.304416250  0.475091530  0.299488130
     0.812831525  0.387186713  0.747484346
     0.883101971  0.997544377  0.198060901
     0.040242804  0.985403626  0.516052913
     0.166030961  0.329906320  0.026069934
     0.227567499  0.783154134  0.534391223
     0.048834587  0.945918656  0.226876838
     0.690494878  0.146758552  0.634558308
     0.580893631  0.220334668  0.772493898
     0.910384247  0.083590170  0.520398976
     0.273153816  0.874230413  0.359827343
     0.943950257  0.320810393  0.881464088
     0.181149775  0.285113557  0.682348891
     0.705250983  0.181959847  0.287039738
     0.973028870  0.475820388  0.941778242
     0.429456347  0.595307675  0.070257652
     0.052276807  0.817752521  0.760577130
     0.236984840  0.140937323  0.593683300
     0.886969942  0.652496530  0.718731954
     0.462665843  0.593673079  0.502520691
     0.973930479  0.886288574  0.917944705
     0.833059227  0.742306427  0.347541840
     0.935264527  0.740055846  0.012270289
     0.675497197  0.367473134  0.469945803
     0.073384094  0.792555645  0.269545403
     0.100283703  0.944776159  0.035882227
     0.949490679  0.713076399  0.220072242
     0.309434977  0.637778279  0.551166883
     0.907094407  0.466266085  0.132085947
     0.298945341  0.788611966  0.842892780
     0.327234529  0.164773527  0.954451276
     0.203112559  0.819204731  0.011780372
     0.389683000  0.122754416  0.644384384

  ion indices of the primitive-cell ions
   primitive index   ion index
                 1           1
                 2           2
                 3           3
                 4           4
                 5           5
                 6           6
                 7           7
                 8           8
                 9           9
                10          10
                11          11
                12          12
                13          13
                14          14
                15          15
                16          16
                17          17
                18          18
                19          19
                20          20
                21          21
                22          22
                23          23
                24          24
                25          25
                26          26
                27          27
                28          28
                29          29
                30          30
                31          31
                32          32
                33          33
                34          34
                35          35
                36          36
                37          37
                38          38
                39          39
                40          40
                41          41
                42          42
                43          43
                44          44
                45          45
                46          46
                47          47
                48          48
                49          49
                50          50
                51          51
                52          52
                53          53
                54          54
                55          55
                56          56
                57          57
                58          58
                59          59
                60          60
                61          61
                62          62
                63          63
                64          64
                65          65
                66          66
                67          67
                68          68
                69          69
                70          70
                71          71
                72          72
                73          73
                74          74
                75          75
                76          76
                77          77
                78          78
                79          79
                80          80
                81          81
                82          82
                83          83
                84          84
                85          85
                86          86
                87          87
                88          88
                89          89
                90          90
                91          91
                92          92
                93          93
                94          94
                95          95
                96          96
                97          97
                98          98
                99          99
               100         100
               101         101

----------------------------------------------------------------------------------------


 -----------------------------------------------------------------------------
|                                                                             |
|           W    W    AA    RRRRR   N    N  II  N    N   GGGG   !!!           |
|           W    W   A  A   R    R  NN   N  II  NN   N  G    G  !!!           |
|           W    W  A    A  R    R  N N  N  II  N N  N  G       !!!           |
|           W WW W  AAAAAA  RRRRR   N  N N  II  N  N N  G  GGG   !            |
|           WW  WW  A    A  R   R   N   NN  II  N   NN  G    G                |
|           W    W  A    A  R    R  N    N  II  N    N   GGGG   !!!           |
|                                                                             |
|     The requested file  could not be found or opened for reading            |
|     k-point information. Automatic k-point generation is used as a          |
|     fallback, which may lead to unwanted results.                           |
|                                                                             |
 -----------------------------------------------------------------------------



Automatic generation of k-mesh.
 Grid dimensions derived from KSPACING:
 generate k-points for:    2    2    3

 Generating k-lattice:

  Cartesian coordinates                     Fractional coordinates (reciprocal lattice)
     0.034412559  0.000000000  0.000000000     0.500000000  0.000000000  0.000000000
     0.000000000  0.034412559  0.000000000     0.000000000  0.500000000  0.000000000
     0.000000000  0.000000000  0.029832942     0.000000000  0.000000000  0.333333333

  Length of vectors
     0.034412559  0.034412559  0.029832942

  Shift w.r.t. Gamma in fractional coordinates (k-lattice)
     0.000000000  0.000000000  0.000000000

 
 Subroutine IBZKPT returns following result:
 ===========================================
 
 Found      8 irreducible k-points:
 
 Following reciprocal coordinates:
            Coordinates               Weight
  0.000000  0.000000  0.000000      1.000000
  0.500000  0.000000  0.000000      1.000000
  0.000000  0.500000  0.000000      1.000000
  0.500000  0.500000  0.000000      1.000000
  0.000000  0.000000  0.333333      2.000000
  0.500000  0.000000  0.333333      2.000000
  0.000000  0.500000  0.333333      2.000000
  0.500000  0.500000  0.333333      2.000000
 
 Following cartesian coordinates:
            Coordinates               Weight
  0.000000  0.000000  0.000000      1.000000
  0.034413  0.000000  0.000000      1.000000
  0.000000  0.034413  0.000000      1.000000
  0.034413  0.034413  0.000000      1.000000
  0.000000  0.000000  0.029833      2.000000
  0.034413  0.000000  0.029833      2.000000
  0.000000  0.034413  0.029833      2.000000
  0.034413  0.034413  0.029833      2.000000
 


--------------------------------------------------------------------------------------------------------




 Dimension of arrays:
   k-points           NKPTS =      8   k-points in BZ     NKDIM =      8   number of bands    NBANDS=    248
   number of dos      NEDOS =   2000   number of ions     NIONS =    101
   non local maximal  LDIM  =      4   non local SUM 2l+1 LMDIM =      8
   total plane-waves  NPLWV = ******
   max r-space proj   IRMAX =      1   max aug-charges    IRDMAX= 403418
   dimension x,y,z NGX =   168 NGY =  168 NGZ =  126
   dimension x,y,z NGXF=   336 NGYF=  336 NGZF=  252
   support grid    NGXF=   672 NGYF=  672 NGZF=  504
   ions per type =               5  96
   NGX,Y,Z   is equivalent  to a cutoff of  19.22, 19.22, 18.75 a.u.
   NGXF,Y,Z  is equivalent  to a cutoff of  38.44, 38.44, 37.49 a.u.

 SYSTEM =  a-Si SPC                                
 POSCAR =   H Si                                   

 Startparameter for this run:
   NWRITE =      2    write-flag & timer
   PREC   = accura    normal or accurate (medium, high low for compatibility)
   ISTART =      1    job   : 0-new  1-cont  2-samecut
   ICHARG =      1    charge: 1-file 2-atom 10-const
   ISPIN  =      1    spin polarized calculation?
   LNONCOLLINEAR =      F non collinear calculations
   LSORBIT =      F    spin-orbit coupling
   INIWAV =      1    electr: 0-lowe 1-rand  2-diag
   LASPH  =      T    aspherical Exc in radial PAW
 Electronic Relaxation 1
   ENCUT  = 1200.0 eV  88.20 Ry    9.39 a.u.  41.04 41.04 31.56*2*pi/ulx,y,z
   ENINI  = 1200.0     initial cutoff
   ENAUG  =  400.0 eV  augmentation charge cutoff
   NELM   =    150;   NELMIN=  2; NELMDL=  0     # of ELM steps 
   EDIFF  = 0.1E-05   stopping-criterion for ELM
   LREAL  =      F    real-space projection
   NLSPLINE    = F    spline interpolate recip. space projectors
   LCOMPAT=      F    compatible to vasp.4.4
   GGA_COMPAT  = T    GGA compatible to vasp.4.4-vasp.4.6
   LMAXPAW     = -100 max onsite density
   LMAXMIX     =    2 max onsite mixed and CHGCAR
   VOSKOWN=      0    Vosko Wilk Nusair interpolation
   ROPT   =    0.00000   0.00000
 Ionic relaxation
   EDIFFG = -.1E-01   stopping-criterion for IOM
   NSW    =      0    number of steps for IOM
   NBLOCK =      1;   KBLOCK =      1    inner block; outer block 
   IBRION =     -1    ionic relax: 0-MD 1-quasi-New 2-CG
   NFREE  =      0    steps in history (QN), initial steepest desc. (CG)
   ISIF   =      2    stress and relaxation
   IWAVPR =     10    prediction:  0-non 1-charg 2-wave 3-comb
   ISYM   =      1    0-nonsym 1-usesym 2-fastsym
   LCORR  =      T    Harris-Foulkes like correction to forces

   POTIM  = 0.5000    time-step for ionic-motion
   TEIN   =    0.0    initial temperature
   TEBEG  =    0.0;   TEEND  =   0.0 temperature during run
   SMASS  =  -3.00    Nose mass-parameter (am)
   estimated Nose-frequenzy (Omega)   =  0.10E-29 period in steps = 0.13E+47 mass=  -0.482E-26a.u.
   SCALEE = 1.0000    scale energy and forces
   NPACO  =    256;   APACO  = 10.0  distance and # of slots for P.C.
   PSTRESS=    0.0 pullay stress

  Mass of Ions in am
   POMASS =   1.00 28.09
  Ionic Valenz
   ZVAL   =   1.00  4.00
  Atomic Wigner-Seitz radii
   RWIGS  =  -1.00 -1.00
  virtual crystal weights 
   VCA    =   1.00  1.00
   NELECT =     389.0000    total number of electrons
   NUPDOWN=      -1.0000    fix difference up-down

 DOS related values:
   EMIN   =  10.00;   EMAX   =-10.00  energy-range for DOS
   EFERMI =   0.00;   METHOD = LEGACY      
   ISMEAR =     0;   SIGMA  =   0.10  broadening in eV -4-tet -1-fermi 0-gaus
   EFERMI_NEDOS =   21; number of points for ismear=-14 and -15

 Electronic relaxation 2 (details)
   IALGO  =     38    algorithm
   LDIAG  =      F    sub-space diagonalisation (order eigenvalues)
   LSUBROT=      F    optimize rotation matrix (better conditioning)
   TURBO    =      0    0=normal 1=particle mesh
   IRESTART =      0    0=no restart 2=restart with 2 vectors
   NREBOOT  =      0    no. of reboots
   NMIN     =      0    reboot dimension
   EREF     =   0.00    reference energy to select bands
   IMIX   =      4    mixing-type and parameters
     AMIX     =   0.40;   BMIX     =  1.00
     AMIX_MAG =   1.60;   BMIX_MAG =  1.00
     AMIN     =   0.10
     WC   =   100.;   INIMIX=   1;  MIXPRE=   1;  MAXMIX= -45

 Intra band minimization:
   WEIMIN = 0.0000     energy-eigenvalue tresh-hold
   EBREAK =  0.10E-08  absolut break condition
   DEPER  =   0.30     relativ break condition  

   TIME   =   0.40     timestep for ELM

  volume/ion in A,a.u.               =      23.35       157.60
  Fermi-wavevector in a.u.,A,eV,Ry     =   0.897763  1.696526 10.966006  0.805979
  Thomas-Fermi vector in A             =   2.020388

 Write flags
   LWAVE        =      F    write WAVECAR
   LDOWNSAMPLE  =      F    k-point downsampling of WAVECAR
   LCHARG       =      F    write CHGCAR
   LVTOT        =      F    write LOCPOT, total local potential
   LVHAR        =      F    write LOCPOT, Hartree potential only
   WRT_POTENTIAL= false  ! write potential to hdf5 file
   LELF         =      F    write electronic localiz. function (ELF)
   LORBIT       =     11    0 simple, 1 ext, 2 COOP (PROOUT), +10 PAW based schemes


 Python interface
   PLUGINS active      =      F    recompile with -DPLUGINS to activate

 Dipole corrections
   LMONO      =      F    monopole corrections only (constant potential shift)
   LDIPOL     =      F    correct potential (dipole corrections)
   IDIPOL     =      0    1-x, 2-y, 3-z, 4-all directions 
   EPSILON    =  1.0000000 bulk dielectric constant
   LVACPOTAV  =      F  vacuum potentials using an averaging scheme for the charge density
   VACPOTFLAT =  0.1000000 required flatness to determine vacuum potential

Coulomb truncation method
  LTRUNCATE          =      F  Coulomb kernel truncation to be used
  IDIMENSIONALITY    =      3  Dimensionality of cutoff (0 molecules / 2 surfaces)
  ISURFACE           =     -1  Direction of surface normal
  LCOARSEN           =      F  Coarsen the charge grid before padding, preferred


 Exchange correlation treatment:
   METAGGA = SCAN    functional components
   XC_C    = 1    coefficients multiplying the functional components
   LIBXC   =     F    Libxc                    
   VOSKOWN =     0    Vosko Wilk Nusair interpolation
   LHFCALC =     F    Hartree Fock is set to
   LHFONE  =     F    Hartree Fock one center treatment
   AEXX    =    0.0000 exact exchange contribution

 Parameters of functionals:
   SCAN:
     P1 =  0.000000E+00
     P2 =  0.000000E+00
     P3 =  0.000000E+00

 Accuracy and mixing parameters for tau-dependent meta-GGA functionals:
   LMAXTAU = 6
   LMIXTAU = T

 Van der Waals corrections
   IVDW    =     0    specifies the selected vdW correction

 Linear response parameters
   LEPSILON=     F    determine dielectric tensor
   LRPA    =     F    only Hartree local field effects (RPA)
   LNABLA  =     F    use nabla operator in PAW spheres
   LVEL    =     F    velocity operator in full k-point grid
   CSHIFT  =0.1000    complex shift for real part using Kramers Kronig
   OMEGAMAX=  -1.0    maximum frequency
   DEG_THRESHOLD= 0.2000000E-02 threshold for treating states as degnerate
   RTIME   =   -0.100 relaxation time in fs
  (WPLASMAI=    0.000 imaginary part of plasma frequency in eV, 0.658/RTIME)
   DFIELD  = 0.0000000 0.0000000 0.0000000 field for delta impulse in time

  Optional k-point grid parameters
   LKPOINTS_OPT  =     F    use optional k-point grid
   KPOINTS_OPT_MODE=     1    mode for optional k-point grid

 Orbital magnetization related:
   ORBITALMAG=     F  switch on orbital magnetization
   LCHIMAG   =     F  perturbation theory with respect to B field
   DQ        =  0.001000  dq finite difference perturbation B field
   LLRAUG    =     F  two centre corrections for induced B field
   LBONE     =     F  B-component reconstruction in AE one-centre
   LVGVCALC  =     T  calculate vGv susceptibility
   LVGVAPPL  =     F  apply vGv susceptibility instead of pGv for G=0

 Random number generation:
   RANDOM_GENERATOR = DEFAULT
   PCG_SEED         = not used


--------------------------------------------------------------------------------------------------------


 Static calculation
 charge density and potential will be updated during run
 non-spin polarized calculation
 Variant of blocked Davidson
 perform Loewdin sub-space diagonalisation
    ordering is kept fixed
    before iterative eigenvector-optimisation
 modified Broyden-mixing scheme, WC =      100.0
 initial mixing is a Kerker type mixing with AMIX =  0.4000 and BMIX =      1.0000
 Hartree-type preconditioning will be used
 using additional bands           53
 reciprocal scheme for non local part
 use partial core corrections
 calculate Harris-corrections to forces   (improved forces if not selfconsistent)
 use gradient corrections 
 use of overlap-Matrix (Vanderbilt PP)
 Gauss-broadening in eV      SIGMA  =   0.10


--------------------------------------------------------------------------------------------------------


  energy-cutoff  :     1200.00
  volume of cell :     2358.79
      direct lattice vectors                 reciprocal lattice vectors
    14.529579173  0.000000000  0.000000000     0.068825118  0.000000000  0.000000000
     0.000000000 14.529579173  0.000000000     0.000000000  0.068825118  0.000000000
     0.000000000  0.000000000 11.173330973     0.000000000  0.000000000  0.089498826

  length of vectors
    14.529579173 14.529579173 11.173330973     0.068825118  0.068825118  0.089498826



 old parameters found on file WAVECAR:
  energy-cutoff  :     1200.00
  volume of cell :     2358.79
      direct lattice vectors                 reciprocal lattice vectors
    14.529579173  0.000000000  0.000000000     0.068825118  0.000000000  0.000000000
     0.000000000 14.529579173  0.000000000     0.000000000  0.068825118  0.000000000
     0.000000000  0.000000000 11.173330973     0.000000000  0.000000000  0.089498826

  length of vectors


 k-points in units of 2pi/SCALE and weight: read from INCAR                         
   0.00000000  0.00000000  0.00000000       0.083
   0.03441256  0.00000000  0.00000000       0.083
   0.00000000  0.03441256  0.00000000       0.083
   0.03441256  0.03441256  0.00000000       0.083
   0.00000000  0.00000000  0.02983294       0.167
   0.03441256  0.00000000  0.02983294       0.167
   0.00000000  0.03441256  0.02983294       0.167
   0.03441256  0.03441256  0.02983294       0.167

 k-points in reciprocal lattice and weights: read from INCAR                         
   0.00000000  0.00000000  0.00000000       0.083
   0.50000000  0.00000000  0.00000000       0.083
   0.00000000  0.50000000  0.00000000       0.083
   0.50000000  0.50000000  0.00000000       0.083
   0.00000000  0.00000000  0.33333333       0.167
   0.50000000  0.00000000  0.33333333       0.167
   0.00000000  0.50000000  0.33333333       0.167
   0.50000000  0.50000000  0.33333333       0.167

 position of ions in fractional coordinates (direct lattice) 
   0.69678549  0.84664531  0.16320737
   0.63376990  0.68068248  0.65718361
   0.46471133  0.69580818  0.10258713
   0.66954107  0.87814656  0.66834232
   0.48338014  0.02713719  0.86503121
   0.27038498  0.30153179  0.86055627
   0.05310539  0.65641474  0.77223704
   0.12568981  0.47775231  0.95440653
   0.67659152  0.49923194  0.20725959
   0.51497844  0.35748799  0.69057741
   0.87579274  0.60542015  0.91949303
   0.61895254  0.12206135  0.44190135
   0.68264469  0.15871829  0.07717072
   0.00185548  0.31761209  0.39578260
   0.93008200  0.23449888  0.06795252
   0.85382377  0.51888426  0.62050341
   0.72508638  0.34731495  0.27370083
   0.93759082  0.24189207  0.55929427
   0.72312487  0.62253076  0.35569697
   0.02285221  0.56793455  0.22422588
   0.08337612  0.20424198  0.10254328
   0.16142656  0.09015058  0.98168577
   0.43150114  0.54528627  0.87376540
   0.80629314  0.04210748  0.67773612
   0.99759692  0.46266447  0.52875459
   0.15468858  0.00940771  0.65798821
   0.77532872  0.28610877  0.59478772
   0.02657221  0.23881215  0.73342050
   0.69524381  0.97600900  0.40642043
   0.09295176  0.69680614  0.96855629
   0.76560373  0.88290238  0.24984224
   0.51164180  0.32624620  0.48825995
   0.14447562  0.58958211  0.09524376
   0.45127460  0.45353619  0.36723427
   0.56845487  0.50104617  0.79228477
   0.84679672  0.77835702  0.56562810
   0.88213154  0.33028899  0.24068740
   0.51347667  0.46994892  0.16656447
   0.30738468  0.62283635  0.76208787
   0.71077764  0.52170678  0.51748400
   0.59524160  0.58630397  0.62665019
   0.45207228  0.12224236  0.82314576
   0.28765320  0.60845465  0.17855284
   0.91005389  0.03227554  0.86294499
   0.61921614  0.27721794  0.97094591
   0.07860241  0.57437107  0.41820564
   0.15076142  0.98848699  0.36447770
   0.06409759  0.08734458  0.81049778
   0.84269474  0.10688334  0.03725040
   0.99070316  0.83773934  0.56007202
   0.14983091  0.43437872  0.61199028
   0.48936861  0.33552658  0.05504956
   0.76843932  0.50544272  0.03208685
   0.41369952  0.38029112  0.88282089
   0.74446754  0.90513977  0.58901415
   0.37394407  0.11977429  0.30258747
   0.24460998  0.34050195  0.21334820
   0.22599347  0.51737011  0.46301859
   0.19996450  0.86292933  0.72173374
   0.81491004  0.08147449  0.35444220
   0.13374992  0.25173062  0.29799708
   0.08992277  0.73437777  0.45589538
   0.23550854  0.77048343  0.21042695
   0.37017177  0.23609493  0.14188786
   0.46371130  0.16153806  0.47040851
   0.17379031  0.54125931  0.76565261
   0.22276006  0.13954293  0.37150247
   0.69525069  0.42100462  0.87854374
   0.30441625  0.47509153  0.29948813
   0.81283153  0.38718671  0.74748435
   0.88310197  0.99754438  0.19806090
   0.04024280  0.98540363  0.51605291
   0.16603096  0.32990632  0.02606993
   0.22756750  0.78315413  0.53439122
   0.04883459  0.94591866  0.22687684
   0.69049488  0.14675855  0.63455831
   0.58089363  0.22033467  0.77249390
   0.91038425  0.08359017  0.52039898
   0.27315382  0.87423041  0.35982734
   0.94395026  0.32081039  0.88146409
   0.18114978  0.28511356  0.68234889
   0.70525098  0.18195985  0.28703974
   0.97302887  0.47582039  0.94177824
   0.42945635  0.59530768  0.07025765
   0.05227681  0.81775252  0.76057713
   0.23698484  0.14093732  0.59368330
   0.88696994  0.65249653  0.71873195
   0.46266584  0.59367308  0.50252069
   0.97393048  0.88628857  0.91794470
   0.83305923  0.74230643  0.34754184
   0.93526453  0.74005585  0.01227029
   0.67549720  0.36747313  0.46994580
   0.07338409  0.79255565  0.26954540
   0.10028370  0.94477616  0.03588223
   0.94949068  0.71307640  0.22007224
   0.30943498  0.63777828  0.55116688
   0.90709441  0.46626609  0.13208595
   0.29894534  0.78861197  0.84289278
   0.32723453  0.16477353  0.95445128
   0.20311256  0.81920473  0.01178037
   0.38968300  0.12275442  0.64438438

 position of ions in cartesian coordinates  (Angst):
  10.12400000 12.30140000  1.82357000
   9.20841000  9.89003000  7.34293000
   6.75206000 10.10980000  1.14624000
   9.72815000 12.75910000  7.46761000
   7.02331000  0.39429200  9.66528000
   3.92858000  4.38113000  9.61528000
   0.77159900  9.53743000  8.62846000
   1.82622000  6.94154000 10.66390000
   9.83059000  7.25363000  2.31578000
   7.48242000  5.19415000  7.71605000
  12.72490000  8.79650000 10.27380000
   8.99312000  1.77350000  4.93751000
   9.91854000  2.30611000  0.86225400
   0.02695930  4.61477000  4.42221000
  13.51370000  3.40717000  0.75925600
  12.40570000  7.53917000  6.93309000
  10.53520000  5.04634000  3.05815000
  13.62280000  3.51459000  6.24918000
  10.50670000  9.04511000  3.97432000
   0.33203300  8.25185000  2.50535000
   1.21142000  2.96755000  1.14575000
   2.34546000  1.30985000 10.96870000
   6.26953000  7.92278000  9.76287000
  11.71510000  0.61180400  7.57257000
  14.49466337  6.72232000  5.90795000
   2.24756000  0.13669000  7.35192000
  11.26520000  4.15704000  6.64576000
   0.38608300  3.46984000  8.19475000
  10.10160000 14.18100000  4.54107000
   1.35055000 10.12430000 10.82200000
  11.12390000 12.82820000  2.79157000
   7.43394000  4.74022000  5.45549000
   2.09917000  8.56638000  1.06419000
   6.55683000  6.58969000  4.10323000
   8.25941000  7.27999000  8.85246000
  12.30360000 11.30920000  6.31995000
  12.81700000  4.79896000  2.68928000
   7.46060000  6.82816000  1.86108000
   4.46617000  9.04955000  8.51506000
  10.32730000  7.58018000  5.78202000
   8.64861000  8.51875000  7.00177000
   6.56842000  1.77613000  9.19728000
   4.17948000  8.84059000  1.99503000
  13.22270000  0.46895000  9.64197000
   8.99695000  4.02786000 10.84870000
   1.14206000  8.34537000  4.67275000
   2.19050000 14.36230000  4.07243000
   0.93131100  1.26908000  9.05596000
  12.24400000  1.55297000  0.41621100
  14.39450000 12.17200000  6.25787000
   2.17698000  6.31134000  6.83797000
   7.11032000  4.87506000  0.61508700
  11.16510000  7.34387000  0.35851700
   6.01088000  5.52547000  9.86405000
  10.81680000 13.15130000  6.58125000
   5.43325000  1.74027000  3.38091000
   3.55408000  4.94735000  2.38381000
   3.28359000  7.51717000  5.17346000
   2.90540000 12.53800000  8.06417000
  11.84030000  1.18379000  3.96030000
   1.94333000  3.65754000  3.32962000
   1.30654000 10.67020000  5.09387000
   3.42184000 11.19480000  2.35117000
   5.37844000  3.43036000  1.58536000
   6.73753000  2.34708000  5.25603000
   2.52510000  7.86427000  8.55489000
   3.23661000  2.02750000  4.15092000
  10.10170000  6.11702000  9.81626000
   4.42304000  6.90288000  3.34628000
  11.81010000  5.62566000  8.35189000
  12.83110000 14.49390000  2.21300000
   0.58471100 14.31750000  5.76603000
   2.41236000  4.79340000  0.29128800
   3.30646000 11.37890000  5.97093000
   0.70954600 13.74380000  2.53497000
  10.03260000  2.13234000  7.09013000
   8.44014000  3.20137000  8.63133000
  13.22750000  1.21453000  5.81459000
   3.96881000 12.70220000  4.02047000
  13.71520000  4.66124000  9.84889000
   2.63203000  4.14258000  7.62411000
  10.24700000  2.64380000  3.20719000
  14.13770000  6.91347000 10.52280000
   6.23982000  8.64957000  0.78501200
   0.75956000 11.88160000  8.49818000
   3.44329000  2.04776000  6.63342000
  12.88730000  9.48050000  8.03063000
   6.72234000  8.62582000  5.61483000
  14.15080000 12.87740000 10.25650000
  12.10400000 10.78540000  3.88320000
  13.58900000 10.75270000  0.13710000
   9.81469000  5.33923000  5.25086000
   1.06624000 11.51550000  3.01172000
   1.45708000 13.72720000  0.40092400
  13.79570000 10.36070000  2.45894000
   4.49596000  9.26665000  6.15837000
  13.17970000  6.77465000  1.47584000
   4.34355000 11.45820000  9.41792000
   4.75458000  2.39409000 10.66440000
   2.95114000 11.90270000  0.13162600
   5.66193000  1.78357000  7.19992000



--------------------------------------------------------------------------------------------------------


 k-point     1 :   0.0000 0.0000 0.0000  plane waves:  222599
 k-point     2 :   0.5000 0.0000 0.0000  plane waves:  222702
 k-point     3 :   0.0000 0.5000 0.0000  plane waves:  222702
 k-point     4 :   0.5000 0.5000 0.0000  plane waves:  222676
 k-point     5 :   0.0000 0.0000 0.3333  plane waves:  222507
 k-point     6 :   0.5000 0.0000 0.3333  plane waves:  222626
 k-point     7 :   0.0000 0.5000 0.3333  plane waves:  222626
 k-point     8 :   0.5000 0.5000 0.3333  plane waves:  222736

 maximum and minimum number of plane-waves per node :     13976    13860

 maximum number of plane-waves:    222736
 maximum index in each direction: 
   IXMAX=   41   IYMAX=   41   IZMAX=   31
   IXMIN=  -41   IYMIN=  -41   IZMIN=  -31


 parallel 3D FFT for wavefunctions:
    minimum data exchange during FFTs selected (reduces bandwidth)
 parallel 3D FFT for charge:
    minimum data exchange during FFTs selected (reduces bandwidth)


 total amount of memory used by VASP MPI-rank0   198417. kBytes
=======================================================================

   base                                    :      30000. kBytes
   nonl-proj                               :      36769. kBytes
   fftplans                                :      42991. kBytes
   grid                                    :      33148. kBytes
   one-center                              :         21. kBytes
   wavefun                                 :      55488. kBytes

     INWAV:  cpu time     10.4604: real time     10.4668
 Broyden mixing: mesh for mixing (old mesh)
   NGX = 83   NGY = 83   NGZ = 63
  (NGX  =336   NGY  =336   NGZ  =252)
  gives a total of 434007 points

 initial charge density was supplied:
 number of electron     388.9999999 magnetization 
 keeping initial charge density in first step


--------------------------------------------------------------------------------------------------------


 Maximum index for augmentation-charges        11231 (set IRDMAX)


--------------------------------------------------------------------------------------------------------


 First call to EWALD:  gamma=   0.133
 Maximum number of real-space cells   3x   3x   3
 Maximum number of reciprocal cells   3x   3x   2

    FEWALD:  cpu time      0.0190: real time      0.0193


--------------------------------------- Ionic step        1  -------------------------------------------




--------------------------------------- Iteration      1(   1)  ---------------------------------------


    POTLOK:  cpu time      0.7570: real time      0.7580
    SETDIJ:  cpu time      1.3028: real time      1.3034
    EDDIAG:  cpu time     22.4410: real time     22.4600
     EDDAV:  cpu time    105.1462: real time    105.2463
       DOS:  cpu time      0.0100: real time      0.0101
    CHARGE:  cpu time      9.9458: real time      9.9543
    MIXING:  cpu time      0.0236: real time      0.0238
    --------------------------------------------
      LOOP:  cpu time    139.6264: real time    139.7559

 eigenvalue-minimisations  :  3968
 total energy-change (2. order) :-0.1007851E+04  (-0.1097155E+01)
 number of electron     388.9999999 magnetization 
 augmentation part      -21.3960298 magnetization 

 Broyden mixing:
  rms(total) = 0.12473E+01    rms(broyden)= 0.44969E+02
  rms(prec ) = 0.13303E+01
  weight for this iteration     100.00
  WARNING: grid for Broyden might be to small

 Free energy of the ion-electron system (eV)
  ---------------------------------------------------
  alpha Z        PSCENC =       135.24634820
  Ewald energy   TEWEN  =     -6990.65272442
  -Hartree energ DENC   =     -4041.89362134
  -exchange      EXHF   =         0.00000000
  -V(xc)+E(xc)   XCENC  =      -453.43246737
  PAW double counting   =     36404.19130264   -35447.20085815
  entropy T*S    EENTRO =        -0.12263497
  eigenvalues    EBANDS =      -570.84445043
  atomic energy  EATOM  =      9956.85804497
  Solvation  Ediel_sol  =         0.00000000
  ---------------------------------------------------
  free energy    TOTEN  =     -1007.85106088 eV

  energy without entropy =    -1007.72842591  energy(sigma->0) =    -1007.78974340


--------------------------------------------------------------------------------------------------------




--------------------------------------- Iteration      1(   2)  ---------------------------------------


    POTLOK:  cpu time      0.7400: real time      0.7652
    SETDIJ:  cpu time      1.2862: real time      1.2874
    EDDIAG:  cpu time     22.6262: real time     22.6452
     EDDAV:  cpu time    105.3940: real time    105.4864
       DOS:  cpu time      0.0038: real time      0.0038
    CHARGE:  cpu time      9.8070: real time      9.8149
    MIXING:  cpu time      0.0164: real time      0.0168
    --------------------------------------------
      LOOP:  cpu time    139.8735: real time    140.0196

 eigenvalue-minimisations  :  3968
 total energy-change (2. order) : 0.6931289E+02  (-0.1023523E+01)
 number of electron     388.9999999 magnetization 
 augmentation part      -21.3103133 magnetization 

 Broyden mixing:
  rms(total) = 0.83124E+00    rms(broyden)= 0.26049E+02
  rms(prec ) = 0.87647E+00
  weight for this iteration     100.00
  WARNING: grid for Broyden might be to small

 eigenvalues of (default mixing * dielectric matrix)
  average eigenvalue GAMMA=   0.6332
  0.6332

 Free energy of the ion-electron system (eV)
  ---------------------------------------------------
  alpha Z        PSCENC =       135.24634820
  Ewald energy   TEWEN  =     -6990.65272442
  -Hartree energ DENC   =     -4032.53168069
  -exchange      EXHF   =         0.00000000
  -V(xc)+E(xc)   XCENC  =      -442.96206908
  PAW double counting   =     43697.02073396   -42739.77267462
  entropy T*S    EENTRO =        -0.11974180
  eigenvalues    EBANDS =      -521.62441050
  atomic energy  EATOM  =      9956.85804497
  Solvation  Ediel_sol  =         0.00000000
  ---------------------------------------------------
  free energy    TOTEN  =      -938.53817398 eV

  energy without entropy =     -938.41843218  energy(sigma->0) =     -938.47830308


--------------------------------------------------------------------------------------------------------




--------------------------------------- Iteration      1(   3)  ---------------------------------------


    POTLOK:  cpu time      0.7388: real time      0.7643
    SETDIJ:  cpu time      1.2853: real time      1.2865
    EDDIAG:  cpu time     22.6658: real time     22.6837
     EDDAV:  cpu time    105.4203: real time    105.5184
       DOS:  cpu time      0.0059: real time      0.0059
    CHARGE:  cpu time      9.8916: real time      9.9236
    MIXING:  cpu time      0.0146: real time      0.0146
    --------------------------------------------
      LOOP:  cpu time    140.0222: real time    140.1969

 eigenvalue-minimisations  :  3968
 total energy-change (2. order) :-0.3827626E+01  (-0.8615835E+00)
 number of electron     388.9999999 magnetization 
 augmentation part      -21.2391571 magnetization 

 Broyden mixing:
  rms(total) = 0.47129E+00    rms(broyden)= 0.23353E+02
  rms(prec ) = 0.55429E+00
  weight for this iteration     100.00
  WARNING: grid for Broyden might be to small

 eigenvalues of (default mixing * dielectric matrix)
  average eigenvalue GAMMA=   0.6208
  0.6681  0.5736

 Free energy of the ion-electron system (eV)
  ---------------------------------------------------
  alpha Z        PSCENC =       135.24634820
  Ewald energy   TEWEN  =     -6990.65272442
  -Hartree energ DENC   =     -4036.57766694
  -exchange      EXHF   =         0.00000000
  -V(xc)+E(xc)   XCENC  =      -448.53873382
  PAW double counting   =     50080.13490258   -49122.98875274
  entropy T*S    EENTRO =        -0.11767636
  eigenvalues    EBANDS =      -515.72954169
  atomic energy  EATOM  =      9956.85804497
  Solvation  Ediel_sol  =         0.00000000
  ---------------------------------------------------
  free energy    TOTEN  =      -942.36580024 eV

  energy without entropy =     -942.24812388  energy(sigma->0) =     -942.30696206


--------------------------------------------------------------------------------------------------------




--------------------------------------- Iteration      1(   4)  ---------------------------------------


    POTLOK:  cpu time      0.7384: real time      0.7663
    SETDIJ:  cpu time      1.2835: real time      1.2840
    EDDIAG:  cpu time     22.6297: real time     22.6477
     EDDAV:  cpu time    114.9767: real time    115.0822
       DOS:  cpu time      0.0040: real time      0.0040
    CHARGE:  cpu time      9.8207: real time      9.8279
    MIXING:  cpu time      0.0149: real time      0.0149
    --------------------------------------------
      LOOP:  cpu time    149.4679: real time    149.6270

 eigenvalue-minimisations  :  4584
 total energy-change (2. order) :-0.3563313E+00  (-0.2643553E+00)
 number of electron     388.9999999 magnetization 
 augmentation part      -21.2277597 magnetization 

 Broyden mixing:
  rms(total) = 0.18567E+00    rms(broyden)= 0.23425E+01
  rms(prec ) = 0.36007E+00
  weight for this iteration     100.00
  WARNING: grid for Broyden might be to small

 eigenvalues of (default mixing * dielectric matrix)
  average eigenvalue GAMMA=   0.7146
  1.1070  0.6315  0.4052

 Free energy of the ion-electron system (eV)
  ---------------------------------------------------
  alpha Z        PSCENC =       135.24634820
  Ewald energy   TEWEN  =     -6990.65272442
  -Hartree energ DENC   =     -4041.95346150
  -exchange      EXHF   =         0.00000000
  -V(xc)+E(xc)   XCENC  =      -449.43411398
  PAW double counting   =     57741.90978000   -56784.81776784
  entropy T*S    EENTRO =        -0.08134463
  eigenvalues    EBANDS =      -509.79689232
  atomic energy  EATOM  =      9956.85804497
  Solvation  Ediel_sol  =         0.00000000
  ---------------------------------------------------
  free energy    TOTEN  =      -942.72213152 eV

  energy without entropy =     -942.64078688  energy(sigma->0) =     -942.68145920


--------------------------------------------------------------------------------------------------------




--------------------------------------- Iteration      1(   5)  ---------------------------------------


    POTLOK:  cpu time      0.7458: real time      0.7664
    SETDIJ:  cpu time      1.2918: real time      1.2924
    EDDIAG:  cpu time     22.6826: real time     22.7026
     EDDAV:  cpu time    114.6422: real time    114.7449
       DOS:  cpu time      0.0040: real time      0.0158
    CHARGE:  cpu time      9.9832: real time      9.9918
    MIXING:  cpu time      0.0148: real time      0.0148
    --------------------------------------------
      LOOP:  cpu time    149.3644: real time    149.5287

 eigenvalue-minimisations  :  4560
 total energy-change (2. order) : 0.1096397E+00  (-0.7115884E-01)
 number of electron     388.9999999 magnetization 
 augmentation part      -21.2289016 magnetization 

 Broyden mixing:
  rms(total) = 0.44912E-01    rms(broyden)= 0.18861E+01
  rms(prec ) = 0.68668E-01
  weight for this iteration     100.00
  WARNING: grid for Broyden might be to small

 eigenvalues of (default mixing * dielectric matrix)
  average eigenvalue GAMMA=   0.9672
  2.1524  0.7223  0.6201  0.3741

 Free energy of the ion-electron system (eV)
  ---------------------------------------------------
  alpha Z        PSCENC =       135.24634820
  Ewald energy   TEWEN  =     -6990.65272442
  -Hartree energ DENC   =     -4042.89442114
  -exchange      EXHF   =         0.00000000
  -V(xc)+E(xc)   XCENC  =      -450.34913528
  PAW double counting   =     58478.29848049   -57521.20064029
  entropy T*S    EENTRO =        -0.12381353
  eigenvalues    EBANDS =      -507.79463079
  atomic energy  EATOM  =      9956.85804497
  Solvation  Ediel_sol  =         0.00000000
  ---------------------------------------------------
  free energy    TOTEN  =      -942.61249178 eV

  energy without entropy =     -942.48867825  energy(sigma->0) =     -942.55058502


--------------------------------------------------------------------------------------------------------




--------------------------------------- Iteration      1(   6)  ---------------------------------------


    POTLOK:  cpu time      0.7459: real time      0.7662
    SETDIJ:  cpu time      1.2854: real time      1.2860
    EDDIAG:  cpu time     22.6623: real time     22.6838
     EDDAV:  cpu time    107.7106: real time    107.8045
       DOS:  cpu time      0.0036: real time      0.0036
    CHARGE:  cpu time      9.8843: real time      9.8934
    MIXING:  cpu time      0.0154: real time      0.0154
    --------------------------------------------
      LOOP:  cpu time    142.3076: real time    142.4530

 eigenvalue-minimisations  :  4112
 total energy-change (2. order) :-0.1471879E-01  (-0.8433431E-02)
 number of electron     388.9999999 magnetization 
 augmentation part      -21.2290153 magnetization 

 Broyden mixing:
  rms(total) = 0.25879E-01    rms(broyden)= 0.29221E+00
  rms(prec ) = 0.33925E-01
  weight for this iteration     100.00
  WARNING: grid for Broyden might be to small

 eigenvalues of (default mixing * dielectric matrix)
  average eigenvalue GAMMA=   1.0142
  2.5359  0.9166  0.3817  0.6185  0.6185

 Free energy of the ion-electron system (eV)
  ---------------------------------------------------
  alpha Z        PSCENC =       135.24634820
  Ewald energy   TEWEN  =     -6990.65272442
  -Hartree energ DENC   =     -4042.98002563
  -exchange      EXHF   =         0.00000000
  -V(xc)+E(xc)   XCENC  =      -450.70084645
  PAW double counting   =     58064.96966629   -57107.84261624
  entropy T*S    EENTRO =        -0.12370180
  eigenvalues    EBANDS =      -507.40135550
  atomic energy  EATOM  =      9956.85804497
  Solvation  Ediel_sol  =         0.00000000
  ---------------------------------------------------
  free energy    TOTEN  =      -942.62721057 eV

  energy without entropy =     -942.50350878  energy(sigma->0) =     -942.56535968


--------------------------------------------------------------------------------------------------------




--------------------------------------- Iteration      1(   7)  ---------------------------------------


    POTLOK:  cpu time      0.7390: real time      0.7666
    SETDIJ:  cpu time      1.2866: real time      1.2872
    EDDIAG:  cpu time     22.7041: real time     22.7238
     EDDAV:  cpu time    120.9280: real time    121.0429
       DOS:  cpu time      0.0044: real time      0.0044
    CHARGE:  cpu time      9.7914: real time      9.8003
    MIXING:  cpu time      0.0153: real time      0.0153
    --------------------------------------------
      LOOP:  cpu time    155.4688: real time    155.6405

 eigenvalue-minimisations  :  4968
 total energy-change (2. order) :-0.1713329E-02  (-0.8219388E-03)
 number of electron     388.9999999 magnetization 
 augmentation part      -21.2279430 magnetization 

 Broyden mixing:
  rms(total) = 0.17809E-01    rms(broyden)= 0.19729E+00
  rms(prec ) = 0.24919E-01
  weight for this iteration     100.00
  WARNING: grid for Broyden might be to small

 eigenvalues of (default mixing * dielectric matrix)
  average eigenvalue GAMMA=   0.9593
  2.5848  1.0085  0.6786  0.6246  0.3723  0.4869

 Free energy of the ion-electron system (eV)
  ---------------------------------------------------
  alpha Z        PSCENC =       135.24634820
  Ewald energy   TEWEN  =     -6990.65272442
  -Hartree energ DENC   =     -4043.15740177
  -exchange      EXHF   =         0.00000000
  -V(xc)+E(xc)   XCENC  =      -450.62573472
  PAW double counting   =     58039.76371051   -57082.61943863
  entropy T*S    EENTRO =        -0.12464603
  eigenvalues    EBANDS =      -507.31708201
  atomic energy  EATOM  =      9956.85804497
  Solvation  Ediel_sol  =         0.00000000
  ---------------------------------------------------
  free energy    TOTEN  =      -942.62892390 eV

  energy without entropy =     -942.50427788  energy(sigma->0) =     -942.56660089


--------------------------------------------------------------------------------------------------------




--------------------------------------- Iteration      1(   8)  ---------------------------------------


    POTLOK:  cpu time      0.7450: real time      0.7683
    SETDIJ:  cpu time      1.2853: real time      1.2860
    EDDIAG:  cpu time     22.6191: real time     22.6391
     EDDAV:  cpu time    109.7377: real time    109.8391
       DOS:  cpu time      0.0051: real time      0.0051
    CHARGE:  cpu time      9.7812: real time      9.7899
    MIXING:  cpu time      0.0165: real time      0.0165
    --------------------------------------------
      LOOP:  cpu time    144.1899: real time    144.3441

 eigenvalue-minimisations  :  4240
 total energy-change (2. order) :-0.5872007E-03  (-0.2745499E-03)
 number of electron     388.9999999 magnetization 
 augmentation part      -21.2270365 magnetization 

 Broyden mixing:
  rms(total) = 0.10349E-01    rms(broyden)= 0.10081E+00
  rms(prec ) = 0.13314E-01
  weight for this iteration     100.00
  WARNING: grid for Broyden might be to small

 eigenvalues of (default mixing * dielectric matrix)
  average eigenvalue GAMMA=   0.9411
  2.5696  1.2087  0.8436  0.6355  0.6355  0.3839  0.3112

 Free energy of the ion-electron system (eV)
  ---------------------------------------------------
  alpha Z        PSCENC =       135.24634820
  Ewald energy   TEWEN  =     -6990.65272442
  -Hartree energ DENC   =     -4043.35967125
  -exchange      EXHF   =         0.00000000
  -V(xc)+E(xc)   XCENC  =      -450.59173447
  PAW double counting   =     58039.88484074   -57082.73141482
  entropy T*S    EENTRO =        -0.12407111
  eigenvalues    EBANDS =      -507.15912895
  atomic energy  EATOM  =      9956.85804497
  Solvation  Ediel_sol  =         0.00000000
  ---------------------------------------------------
  free energy    TOTEN  =      -942.62951110 eV

  energy without entropy =     -942.50544000  energy(sigma->0) =     -942.56747555


--------------------------------------------------------------------------------------------------------




--------------------------------------- Iteration      1(   9)  ---------------------------------------


    POTLOK:  cpu time      0.7394: real time      0.7679
    SETDIJ:  cpu time      1.2848: real time      1.2853
    EDDIAG:  cpu time     22.6605: real time     22.6801
     EDDAV:  cpu time    111.6067: real time    111.7143
       DOS:  cpu time      0.0043: real time      0.0043
    CHARGE:  cpu time      9.7456: real time      9.7543
    MIXING:  cpu time      0.0157: real time      0.0157
    --------------------------------------------
      LOOP:  cpu time    146.0570: real time    146.2220

 eigenvalue-minimisations  :  4360
 total energy-change (2. order) :-0.2107481E-03  (-0.1099654E-03)
 number of electron     388.9999999 magnetization 
 augmentation part      -21.2266043 magnetization 

 Broyden mixing:
  rms(total) = 0.61158E-02    rms(broyden)= 0.10098E+00
  rms(prec ) = 0.84243E-02
  weight for this iteration     100.00
  WARNING: grid for Broyden might be to small

 eigenvalues of (default mixing * dielectric matrix)
  average eigenvalue GAMMA=   1.0298
  2.5653  1.9020  0.9657  0.7891  0.6461  0.6282  0.3832  0.3589

 Free energy of the ion-electron system (eV)
  ---------------------------------------------------
  alpha Z        PSCENC =       135.24634820
  Ewald energy   TEWEN  =     -6990.65272442
  -Hartree energ DENC   =     -4043.53309957
  -exchange      EXHF   =         0.00000000
  -V(xc)+E(xc)   XCENC  =      -450.54864619
  PAW double counting   =     58048.89059215   -57091.72986546
  entropy T*S    EENTRO =        -0.12418599
  eigenvalues    EBANDS =      -507.03618554
  atomic energy  EATOM  =      9956.85804497
  Solvation  Ediel_sol  =         0.00000000
  ---------------------------------------------------
  free energy    TOTEN  =      -942.62972185 eV

  energy without entropy =     -942.50553586  energy(sigma->0) =     -942.56762886


--------------------------------------------------------------------------------------------------------




--------------------------------------- Iteration      1(  10)  ---------------------------------------


    POTLOK:  cpu time      0.7393: real time      0.7663
    SETDIJ:  cpu time      1.2886: real time      1.2899
    EDDIAG:  cpu time     22.6158: real time     22.6353
     EDDAV:  cpu time    109.4946: real time    109.5922
       DOS:  cpu time      0.0050: real time      0.0050
    CHARGE:  cpu time      9.8022: real time      9.8111
    MIXING:  cpu time      0.0159: real time      0.0160
    --------------------------------------------
      LOOP:  cpu time    143.9612: real time    144.1155

 eigenvalue-minimisations  :  4232
 total energy-change (2. order) :-0.8462696E-04  (-0.4940622E-04)
 number of electron     388.9999999 magnetization 
 augmentation part      -21.2261350 magnetization 

 Broyden mixing:
  rms(total) = 0.19479E-02    rms(broyden)= 0.34361E-01
  rms(prec ) = 0.28404E-02
  weight for this iteration     100.00
  WARNING: grid for Broyden might be to small

 eigenvalues of (default mixing * dielectric matrix)
  average eigenvalue GAMMA=   1.0590
  2.4795  2.4795  0.9163  0.9163  0.7273  0.6372  0.6110  0.3758  0.3879

 Free energy of the ion-electron system (eV)
  ---------------------------------------------------
  alpha Z        PSCENC =       135.24634820
  Ewald energy   TEWEN  =     -6990.65272442
  -Hartree energ DENC   =     -4043.59978170
  -exchange      EXHF   =         0.00000000
  -V(xc)+E(xc)   XCENC  =      -450.50155322
  PAW double counting   =     58058.41465893   -57101.24757277
  entropy T*S    EENTRO =        -0.12409497
  eigenvalues    EBANDS =      -507.02313149
  atomic energy  EATOM  =      9956.85804497
  Solvation  Ediel_sol  =         0.00000000
  ---------------------------------------------------
  free energy    TOTEN  =      -942.62980648 eV

  energy without entropy =     -942.50571151  energy(sigma->0) =     -942.56775899


--------------------------------------------------------------------------------------------------------




--------------------------------------- Iteration      1(  11)  ---------------------------------------


    POTLOK:  cpu time      0.7405: real time      0.7659
    SETDIJ:  cpu time      1.2831: real time      1.2847
    EDDIAG:  cpu time     22.6341: real time     22.6518
     EDDAV:  cpu time    113.8901: real time    113.9942
       DOS:  cpu time      0.0058: real time      0.0058
    CHARGE:  cpu time      9.7959: real time      9.8058
    MIXING:  cpu time      0.0164: real time      0.0164
    --------------------------------------------
      LOOP:  cpu time    148.3659: real time    148.5246

 eigenvalue-minimisations  :  4520
 total energy-change (2. order) :-0.3400123E-04  (-0.9489730E-05)
 number of electron     388.9999999 magnetization 
 augmentation part      -21.2262553 magnetization 

 Broyden mixing:
  rms(total) = 0.99063E-03    rms(broyden)= 0.17312E-01
  rms(prec ) = 0.14842E-02
  weight for this iteration     100.00
  WARNING: grid for Broyden might be to small

 eigenvalues of (default mixing * dielectric matrix)
  average eigenvalue GAMMA=   1.1048
  2.7250  2.7250  1.1220  0.8984  0.8984  0.6880  0.6283  0.5982  0.3753  0.3891

 Free energy of the ion-electron system (eV)
  ---------------------------------------------------
  alpha Z        PSCENC =       135.24634820
  Ewald energy   TEWEN  =     -6990.65272442
  -Hartree energ DENC   =     -4043.53357373
  -exchange      EXHF   =         0.00000000
  -V(xc)+E(xc)   XCENC  =      -450.51383629
  PAW double counting   =     58060.14743339   -57102.97817482
  entropy T*S    EENTRO =        -0.12407942
  eigenvalues    EBANDS =      -507.07927836
  atomic energy  EATOM  =      9956.85804497
  Solvation  Ediel_sol  =         0.00000000
  ---------------------------------------------------
  free energy    TOTEN  =      -942.62984048 eV

  energy without entropy =     -942.50576106  energy(sigma->0) =     -942.56780077


--------------------------------------------------------------------------------------------------------




--------------------------------------- Iteration      1(  12)  ---------------------------------------


    POTLOK:  cpu time      0.7380: real time      0.7661
    SETDIJ:  cpu time      1.2880: real time      1.2886
    EDDIAG:  cpu time     22.5989: real time     22.6186
     EDDAV:  cpu time    113.7935: real time    113.8954
       DOS:  cpu time      0.0063: real time      0.0063
    CHARGE:  cpu time      9.7592: real time      9.7673
    MIXING:  cpu time      0.0164: real time      0.0164
    --------------------------------------------
      LOOP:  cpu time    148.2003: real time    148.3588

 eigenvalue-minimisations  :  4496
 total energy-change (2. order) :-0.2188016E-04  (-0.3308557E-05)
 number of electron     388.9999999 magnetization 
 augmentation part      -21.2263473 magnetization 

 Broyden mixing:
  rms(total) = 0.53872E-03    rms(broyden)= 0.13961E-01
  rms(prec ) = 0.86914E-03
  weight for this iteration     100.00
  WARNING: grid for Broyden might be to small

 eigenvalues of (default mixing * dielectric matrix)
  average eigenvalue GAMMA=   1.1457
  3.0910  2.6338  1.4677  0.9952  0.9952  0.3748  0.3896  0.7479  0.6647  0.6213
  0.6213

 Free energy of the ion-electron system (eV)
  ---------------------------------------------------
  alpha Z        PSCENC =       135.24634820
  Ewald energy   TEWEN  =     -6990.65272442
  -Hartree energ DENC   =     -4043.45430743
  -exchange      EXHF   =         0.00000000
  -V(xc)+E(xc)   XCENC  =      -450.52235658
  PAW double counting   =     58055.21819547   -57098.04799362
  entropy T*S    EENTRO =        -0.12413978
  eigenvalues    EBANDS =      -507.15092917
  atomic energy  EATOM  =      9956.85804497
  Solvation  Ediel_sol  =         0.00000000
  ---------------------------------------------------
  free energy    TOTEN  =      -942.62986236 eV

  energy without entropy =     -942.50572258  energy(sigma->0) =     -942.56779247


--------------------------------------------------------------------------------------------------------




--------------------------------------- Iteration      1(  13)  ---------------------------------------


    POTLOK:  cpu time      0.7411: real time      0.7651
    SETDIJ:  cpu time      1.2851: real time      1.2862
    EDDIAG:  cpu time     22.6955: real time     22.7147
     EDDAV:  cpu time    109.1289: real time    109.2265
       DOS:  cpu time      0.0068: real time      0.0068
    CHARGE:  cpu time      9.8527: real time      9.8611
    MIXING:  cpu time      0.0166: real time      0.0166
    --------------------------------------------
      LOOP:  cpu time    143.7266: real time    143.8770

 eigenvalue-minimisations  :  4192
 total energy-change (2. order) :-0.1057264E-04  (-0.1367184E-05)
 number of electron     388.9999999 magnetization 
 augmentation part      -21.2264350 magnetization 

 Broyden mixing:
  rms(total) = 0.28313E-03    rms(broyden)= 0.27655E-02
  rms(prec ) = 0.52010E-03
  weight for this iteration     100.00
  WARNING: grid for Broyden might be to small

 eigenvalues of (default mixing * dielectric matrix)
  average eigenvalue GAMMA=   1.1467
  3.1720  2.6340  1.7699  1.0280  0.9306  0.9306  0.3747  0.3896  0.6909  0.6263
  0.6263  0.5874

 Free energy of the ion-electron system (eV)
  ---------------------------------------------------
  alpha Z        PSCENC =       135.24634820
  Ewald energy   TEWEN  =     -6990.65272442
  -Hartree energ DENC   =     -4043.39429201
  -exchange      EXHF   =         0.00000000
  -V(xc)+E(xc)   XCENC  =      -450.53194117
  PAW double counting   =     58052.54408507   -57095.37378204
  entropy T*S    EENTRO =        -0.12411708
  eigenvalues    EBANDS =      -507.20149445
  atomic energy  EATOM  =      9956.85804497
  Solvation  Ediel_sol  =         0.00000000
  ---------------------------------------------------
  free energy    TOTEN  =      -942.62987293 eV

  energy without entropy =     -942.50575585  energy(sigma->0) =     -942.56781439


--------------------------------------------------------------------------------------------------------




--------------------------------------- Iteration      1(  14)  ---------------------------------------


    POTLOK:  cpu time      0.7644: real time      0.7654
    SETDIJ:  cpu time      1.2860: real time      1.2868
    EDDIAG:  cpu time     22.6020: real time     22.6211
     EDDAV:  cpu time    106.2179: real time    106.3113
       DOS:  cpu time      0.0036: real time      0.0036
    CHARGE:  cpu time      9.8920: real time      9.9009
    MIXING:  cpu time      0.0179: real time      0.0179
    --------------------------------------------
      LOOP:  cpu time    140.7837: real time    140.9069

 eigenvalue-minimisations  :  4016
 total energy-change (2. order) :-0.5422124E-05  (-0.5255906E-06)
 number of electron     388.9999999 magnetization 
 augmentation part      -21.2264499 magnetization 

 Broyden mixing:
  rms(total) = 0.16542E-03    rms(broyden)= 0.19848E-02
  rms(prec ) = 0.30256E-03
  weight for this iteration     100.00
  WARNING: grid for Broyden might be to small

 eigenvalues of (default mixing * dielectric matrix)
  average eigenvalue GAMMA=   1.1958
  3.4253  2.6316  2.3003  1.1502  1.1037  0.8401  0.8401  0.3747  0.3894  0.6660
  0.6381  0.6237  0.5620

 Free energy of the ion-electron system (eV)
  ---------------------------------------------------
  alpha Z        PSCENC =       135.24634820
  Ewald energy   TEWEN  =     -6990.65272442
  -Hartree energ DENC   =     -4043.36451960
[...]
   0.282E+02 -.229E+02 -.142E+02   -.259E+02 0.234E+02 0.139E+02   -.253E+01 -.802E+00 0.133E+01   -.196E-04 -.831E-04 -.646E-05
   -.379E+02 -.622E+01 0.253E+01   0.380E+02 0.643E+01 0.449E-01   -.525E+00 -.458E+00 -.262E+01   0.379E-04 0.970E-05 0.404E-04
   0.195E+02 -.136E+01 -.140E+02   -.210E+02 0.595E+00 0.126E+02   0.207E+01 0.347E+00 0.171E+01   -.690E-04 -.436E-04 -.592E-06
   0.408E+02 0.314E+02 0.312E+02   -.434E+02 -.295E+02 -.295E+02   0.242E+01 -.195E+01 -.168E+01   -.896E-05 0.154E-04 0.354E-04
   0.109E+02 -.945E+01 0.685E+01   -.908E+01 0.811E+01 -.651E+01   -.177E+01 0.118E+01 -.459E+00   0.432E-04 -.276E-04 0.292E-04
   -.192E+02 0.496E+01 0.289E+01   0.198E+02 -.486E+01 -.250E+01   0.113E+00 0.844E+00 -.107E+01   0.207E-04 -.384E-04 -.453E-04
   -.112E+03 -.303E+02 -.510E+01   0.109E+03 0.304E+02 0.415E+01   0.353E+01 0.150E+00 0.642E+00   0.130E-04 0.999E-04 -.372E-04
   0.184E+02 -.261E+02 0.639E+01   -.132E+02 0.246E+02 -.676E+01   -.633E+01 0.179E+01 -.250E+00   0.190E-04 -.306E-04 0.225E-04
   0.521E+02 0.669E+02 -.406E+02   -.501E+02 -.658E+02 0.396E+02   -.190E+01 0.117E+00 0.126E+01   -.483E-04 0.435E-04 -.166E-04
   -.355E+01 0.738E+02 -.147E+02   0.209E+01 -.721E+02 0.154E+02   0.122E+01 -.170E+01 -.306E+00   -.571E-04 -.142E-05 -.262E-04
   0.993E+01 0.232E+02 0.251E+01   -.117E+02 -.211E+02 -.168E+01   0.175E+01 -.120E+01 -.181E+00   -.302E-04 -.137E-04 0.106E-04
   -.150E+03 -.267E+02 0.705E+01   0.150E+03 0.259E+02 -.714E+01   0.304E+00 0.131E+01 0.889E+00   -.275E-04 0.390E-04 0.103E-03
   0.293E+02 0.221E+02 0.371E+01   -.284E+02 -.214E+02 -.402E+01   -.203E+01 0.123E+00 -.203E+00   -.644E-04 -.265E-04 -.195E-04
   -.438E+02 0.107E+02 0.219E+02   0.423E+02 -.101E+02 -.209E+02   0.138E+01 -.918E+00 -.620E+00   0.784E-04 -.849E-04 0.884E-05
   0.577E+02 0.344E+02 0.325E+02   -.572E+02 -.356E+02 -.316E+02   -.915E+00 0.218E+01 -.167E+01   -.735E-05 -.110E-04 -.159E-04
   0.244E+02 -.159E+01 0.217E+02   -.219E+02 0.741E+00 -.181E+02   -.278E+01 0.120E+00 -.339E+01   -.416E-04 -.381E-04 0.959E-06
   -.596E+02 -.910E+02 -.653E+00   0.592E+02 0.913E+02 0.502E+00   0.651E+00 0.645E+00 0.103E+01   -.227E-04 -.120E-03 0.303E-04
   0.161E+02 -.204E+02 -.241E+01   -.152E+02 0.207E+02 0.404E+00   -.124E+01 -.291E+00 0.479E+00   0.246E-04 0.814E-04 -.325E-04
   -.469E+02 0.193E+02 0.473E+01   0.482E+02 -.205E+02 -.527E+01   -.129E+01 0.164E+01 -.229E+00   0.136E-03 -.857E-04 0.601E-04
   0.814E+02 -.538E+02 0.160E+01   -.814E+02 0.497E+02 0.234E-01   0.330E+00 0.421E+01 -.187E+01   -.365E-04 0.215E-04 -.651E-04
   -.337E+02 -.895E+02 0.150E+02   0.338E+02 0.901E+02 -.155E+02   0.340E+00 -.105E+01 -.582E+00   0.576E-04 -.209E-04 -.436E-04
   0.840E+02 -.754E+01 -.507E+01   -.817E+02 0.863E+01 0.394E+01   -.240E+01 -.969E+00 0.134E+01   0.388E-04 0.200E-04 -.274E-04
   0.869E+02 -.161E+02 0.593E+01   -.860E+02 0.157E+02 -.699E+01   -.218E+01 0.957E+00 0.192E+01   -.101E-03 -.785E-04 0.525E-04
   0.111E+03 -.457E+02 0.297E+01   -.109E+03 0.437E+02 -.181E+01   -.189E+01 0.196E+01 -.518E+00   0.198E-04 0.313E-04 0.842E-05
   0.330E+02 -.827E+01 0.678E+01   -.306E+02 0.865E+01 -.774E+01   -.221E+01 -.326E+00 0.920E+00   -.121E-04 0.228E-04 -.178E-05
   -.141E+02 -.219E+02 0.828E+01   0.117E+02 0.204E+02 -.665E+01   0.369E+01 0.173E+01 -.170E+01   0.700E-04 0.605E-04 0.239E-04
   -.431E+02 -.159E+02 0.389E+01   0.424E+02 0.155E+02 -.142E+01   0.129E+01 0.457E-01 -.314E+01   0.467E-04 0.373E-05 -.113E-04
   0.801E+02 -.145E+02 0.640E+01   -.767E+02 0.149E+02 -.606E+01   -.330E+01 -.147E+01 -.174E+01   -.432E-04 0.130E-04 0.305E-04
   -.851E+02 -.576E+02 0.910E+01   0.839E+02 0.564E+02 -.816E+01   0.172E+01 0.155E+01 -.601E+00   0.140E-04 0.467E-04 -.370E-04
   0.329E+02 -.154E+02 -.301E+02   -.329E+02 0.135E+02 0.282E+02   0.795E+00 0.186E+01 0.210E+01   -.814E-04 -.138E-04 0.116E-04
   -.147E+03 -.422E+02 -.136E+02   0.149E+03 0.447E+02 0.141E+02   -.465E+00 -.289E+01 0.273E+00   -.414E-04 0.902E-04 -.728E-04
   -.483E+02 0.974E+02 -.136E+02   0.495E+02 -.928E+02 0.130E+02   -.199E+01 -.405E+01 0.460E+00   0.101E-04 0.850E-05 -.128E-03
   -.114E+03 -.437E+02 -.134E+01   0.113E+03 0.430E+02 0.147E+01   0.124E+01 0.106E+00 -.922E-01   -.197E-04 0.529E-04 -.140E-05
   -.346E+02 0.821E+02 0.657E+00   0.343E+02 -.822E+02 -.436E-01   -.494E+00 -.539E-01 -.199E+01   0.127E-04 -.118E-04 0.837E-05
 -----------------------------------------------------------------------------------------------
   -.186E+00 0.757E+00 0.524E+01   0.171E-12 -.711E-13 0.251E-13   0.186E+00 -.771E+00 -.525E+01   0.319E-03 -.446E-03 -.182E-03


 POSITION                                       TOTAL-FORCE (eV/Angst)
 -----------------------------------------------------------------------------------
     10.12400     12.30140      1.82357         0.175796      0.005323     -0.265980
      9.20841      9.89003      7.34293        -0.392773     -0.242304     -0.076139
      6.75206     10.10980      1.14624        -0.017432     -1.323018     -0.507656
      9.72815     12.75910      7.46761        -0.586631     -0.219374      0.189925
      7.02331      0.39429      9.66528         0.069921      0.524448     -0.330775
      3.92858      4.38113      9.61528        -0.217440     -0.529020      1.041754
      0.77160      9.53743      8.62846         0.076958     -0.037768     -0.347566
      1.82622      6.94154     10.66390         0.829444     -0.277934     -0.257929
      9.83059      7.25363      2.31578        -0.139893      0.575311     -0.734909
      7.48242      5.19415      7.71605        -0.337178      0.213601      2.128448
     12.72490      8.79650     10.27380        -0.805854      0.335510      0.147045
      8.99312      1.77350      4.93751        -0.433058     -1.054765      0.475159
      9.91854      2.30611      0.86225         1.079101     -0.769688      0.345937
      0.02696      4.61477      4.42221        -0.795696      0.965833      0.155679
     13.51370      3.40717      0.75926        -0.398701      1.109983      0.174667
     12.40570      7.53917      6.93309         0.249639     -1.753415      0.230749
     10.53520      5.04634      3.05815         0.047347     -0.127826      0.258088
     13.62280      3.51459      6.24918        -0.638346     -0.855003     -0.532017
     10.50670      9.04511      3.97432        -0.988501     -1.125516     -0.748788
      0.33203      8.25185      2.50535        -1.206419      0.132368     -0.152012
      1.21142      2.96755      1.14575         0.728594     -0.062466     -0.150717
      2.34546      1.30985     10.96870        -0.050571      0.519286      0.013015
      6.26953      7.92278      9.76287        -1.398325     -0.205184      0.067103
     11.71510      0.61180      7.57257         1.293510     -1.039379      0.214728
     14.49466      6.72232      5.90795         0.367052     -0.381422     -0.752444
      2.24756      0.13669      7.35192        -0.787820      1.044773      1.146492
     11.26520      4.15704      6.64576         0.396162     -0.594635      0.305792
      0.38608      3.46984      8.19475         0.816545     -0.106880      0.512283
     10.10160     14.18100      4.54107         0.332343     -0.351578      0.060629
      1.35055     10.12430     10.82200        -0.722033      1.297744      0.103776
     11.12390     12.82820      2.79157         0.067147     -0.111168      0.597254
      7.43394      4.74022      5.45549        -0.058382      0.417878     -0.623771
      2.09917      8.56638      1.06419         0.141510     -0.996052      0.049379
      6.55683      6.58969      4.10323         0.767203      0.727705      0.472673
      8.25941      7.27999      8.85246         0.695480     -1.115260     -0.488685
     12.30360     11.30920      6.31995        -0.252196     -0.190947     -0.370849
     12.81700      4.79896      2.68928         1.285036     -0.113657     -0.449656
      7.46060      6.82816      1.86108         0.712719      0.946836      0.932357
      4.46617      9.04955      8.51506         0.955891      0.944991      0.450103
     10.32730      7.58018      5.78202         0.680279      0.000774     -0.420346
      8.64861      8.51875      7.00177         0.196499      1.245519     -0.118610
      6.56842      1.77613      9.19728         0.520371     -0.769601      1.458221
      4.17948      8.84059      1.99503         0.188491      0.417305     -0.023029
     13.22270      0.46895      9.64197        -0.573529     -0.091033     -0.551082
      8.99695      4.02786     10.84870         1.294557      0.248571     -1.220738
      1.14206      8.34537      4.67275        -0.403723      0.128201      0.295551
      2.19050     14.36230      4.07243         0.745219      1.118743      0.056544
      0.93131      1.26908      9.05596        -0.301383      0.564004     -0.186620
     12.24400      1.55297      0.41621        -0.458475     -1.248412     -0.043578
     14.39450     12.17200      6.25787         1.021214     -0.522567      0.787029
      2.17698      6.31134      6.83797        -0.204417     -0.153912     -0.026855
      7.11032      4.87506      0.61509        -0.871061     -0.428331      0.791819
     11.16510      7.34387      0.35852        -0.176576      0.806626      0.415007
      6.01088      5.52547      9.86405        -0.922183      0.522565     -1.833158
     10.81680     13.15130      6.58125         0.358971      0.466041      0.175183
      5.43325      1.74027      3.38091        -0.045104      0.437195     -0.254003
      3.55408      4.94735      2.38381         0.927566      0.273778     -1.370809
      3.28359      7.51717      5.17346        -0.872503      0.278475      0.501361
      2.90540     12.53800      8.06417         0.301222     -0.063349     -1.469201
     11.84030      1.18379      3.96030         0.903650     -0.804190      0.128520
      1.94333      3.65754      3.32962        -1.117141      0.235640     -0.044059
      1.30654     10.67020      5.09387        -0.739904      0.225109      1.002360
      3.42184     11.19480      2.35117        -0.441329     -0.543013     -0.695198
      5.37844      3.43036      1.58536         0.015502     -0.235374      0.337864
      6.73753      2.34708      5.25603         0.447477      0.534537     -0.573470
      2.52510      7.86427      8.55489        -1.185616     -0.385562      0.620198
      3.23661      2.02750      4.15092         0.218540     -1.823890      1.672091
     10.10170      6.11702      9.81626        -0.267144     -0.324812      1.059769
      4.42304      6.90288      3.34628        -0.391608     -0.264768     -0.143103
     11.81010      5.62566      8.35189         0.675405     -0.407196      0.405562
     12.83110     14.49390      2.21300        -0.051448     -0.126961      0.006777
      0.58471     14.31750      5.76603         0.018702     -0.132490     -0.114385
      2.41236      4.79340      0.29129         0.808340      1.002156     -0.711456
      3.30646     11.37890      5.97093         0.880039      0.148217     -0.309519
      0.70955     13.74380      2.53497        -1.427159      0.315498     -0.649272
     10.03260      2.13234      7.09013         0.005294      1.275604      0.329341
      8.44014      3.20137      8.63133        -0.218122     -0.094476      0.408527
     13.22750      1.21453      5.81459         0.046334      0.861429      0.639525
      3.96881     12.70220      4.02047        -0.267881      0.439785      0.847258
     13.71520      4.66124      9.84889        -1.209186      0.764946     -0.526811
      2.63203      4.14258      7.62411        -0.078259     -0.434356      0.463587
     10.24700      2.64380      3.20719        -0.476310      1.057055     -0.870113
     14.13770      6.91347     10.52280        -0.497489     -0.726721      0.054355
      6.23982      8.64957      0.78501         0.317342      0.998546      0.950780
      0.75956     11.88160      8.49818        -0.441297     -0.096903     -1.514309
      3.44329      2.04776      6.63342        -0.005181      0.516998     -0.765507
     12.88730      9.48050      8.03063         0.480873      0.249720     -0.375684
      6.72234      8.62582      5.61483         0.368181     -0.694221     -1.036247
     14.15080     12.87740     10.25650        -0.200615      0.053941      0.271070
     12.10400     10.78540      3.88320        -1.445248      0.544035      0.950731
     13.58900     10.75270      0.13710         0.583471      0.042337      0.615849
      9.81469      5.33923      5.25086         0.080260      0.055359      0.010747
      1.06624     11.51550      3.01172         1.452375      0.390270     -0.145763
      1.45708     13.72720      0.40092         0.652105     -0.380835     -0.846308
     13.79570     10.36070      2.45894         0.017368     -1.105172     -1.490507
      4.49596      9.26665      6.15837         0.588770      0.378948      0.341126
     13.17970      6.77465      1.47584         0.852836      0.051081      0.284173
      4.34355     11.45820      9.41792         0.438096     -0.542650      0.767416
      4.75458      2.39409     10.66440        -0.977219      0.349468     -0.154350
      2.95114     11.90270      0.13163         0.131562     -0.684136      0.054068
      5.66193      1.78357      7.19992        -0.809953     -0.090884     -1.501464
 -----------------------------------------------------------------------------------
    total drift:                               -0.000395     -0.014579     -0.005646


--------------------------------------------------------------------------------------------------------



  FREE ENERGIE OF THE ION-ELECTRON SYSTEM (eV)
  ---------------------------------------------------
  free  energy   TOTEN  =      -942.62988364 eV

  energy  without entropy=     -942.50576879  energy(sigma->0) =     -942.56782621



--------------------------------------------------------------------------------------------------------


    POTLOK:  cpu time      2.0172: real time      2.0187


--------------------------------------------------------------------------------------------------------


     LOOP+:  cpu time   2629.3551: real time   2632.0631
    4ORBIT:  cpu time      0.0000: real time      0.0000



 total charge

# of ion       s       p       d       tot
------------------------------------------
    1        0.566   0.015   0.000   0.581
    2        0.555   0.014   0.000   0.569
    3        0.522   0.012   0.000   0.534
    4        0.583   0.017   0.000   0.599
    5        0.547   0.014   0.000   0.560
    6        0.751   0.918   0.000   1.668
    7        0.754   0.908   0.000   1.662
    8        0.764   0.970   0.000   1.734
    9        0.760   0.854   0.000   1.614
   10        0.756   0.885   0.000   1.641
   11        0.767   0.869   0.000   1.636
   12        0.760   0.899   0.000   1.659
   13        0.790   0.839   0.000   1.629
   14        0.747   0.881   0.000   1.628
   15        0.756   0.921   0.000   1.677
   16        0.754   0.908   0.000   1.662
   17        0.757   0.922   0.000   1.680
   18        0.750   0.930   0.000   1.680
   19        0.788   0.829   0.000   1.617
   20        0.756   0.937   0.000   1.694
   21        0.757   0.932   0.000   1.689
   22        0.756   0.867   0.000   1.623
   23        0.747   0.945   0.000   1.692
   24        0.749   0.907   0.000   1.656
   25        0.757   0.864   0.000   1.621
   26        0.758   0.924   0.000   1.682
   27        0.751   0.931   0.000   1.682
   28        0.751   0.923   0.000   1.674
   29        0.756   0.911   0.000   1.667
   30        0.767   0.934   0.000   1.700
   31        0.748   0.888   0.000   1.636
   32        0.767   0.862   0.000   1.629
   33        0.756   1.019   0.000   1.775
   34        0.749   0.898   0.000   1.646
   35        0.756   0.945   0.000   1.700
   36        0.749   0.895   0.000   1.644
   37        0.750   0.910   0.000   1.661
   38        0.751   0.902   0.000   1.653
   39        0.756   0.889   0.000   1.645
   40        0.750   0.962   0.000   1.712
   41        0.745   0.980   0.000   1.725
   42        0.740   0.965   0.000   1.705
   43        0.747   0.919   0.000   1.666
   44        0.756   0.857   0.000   1.613
   45        0.754   0.915   0.000   1.669
   46        0.755   0.949   0.000   1.704
   47        0.758   0.941   0.000   1.699
   48        0.754   0.893   0.000   1.647
   49        0.752   0.896   0.000   1.647
   50        0.757   0.958   0.000   1.715
   51        0.759   0.917   0.000   1.676
   52        0.747   0.958   0.000   1.706
   53        0.758   0.909   0.000   1.667
   54        0.761   0.884   0.000   1.645
   55        0.742   0.958   0.000   1.700
   56        0.793   0.829   0.000   1.623
   57        0.756   0.930   0.000   1.686
   58        0.757   0.981   0.000   1.738
   59        0.753   0.964   0.000   1.717
   60        0.757   0.967   0.000   1.724
   61        0.751   0.965   0.000   1.717
   62        0.759   0.971   0.000   1.731
   63        0.762   0.884   0.000   1.646
   64        0.756   0.852   0.000   1.609
   65        0.756   0.917   0.000   1.672
   66        0.758   0.922   0.000   1.680
   67        0.756   0.935   0.000   1.691
   68        0.761   0.888   0.000   1.649
   69        0.749   0.984   0.000   1.733
   70        0.761   0.902   0.000   1.663
   71        0.749   0.881   0.000   1.629
   72        0.748   0.966   0.000   1.714
   73        0.758   0.922   0.000   1.680
   74        0.759   0.906   0.000   1.664
   75        0.755   0.971   0.000   1.726
   76        0.749   0.909   0.000   1.657
   77        0.755   0.879   0.000   1.634
   78        0.751   0.939   0.000   1.690
   79        0.802   0.815   0.000   1.617
   80        0.755   0.872   0.000   1.627
   81        0.751   0.905   0.000   1.656
   82        0.760   0.918   0.000   1.679
   83        0.764   0.962   0.000   1.727
   84        0.735   0.927   0.000   1.662
   85        0.765   0.947   0.000   1.711
   86        0.750   0.906   0.000   1.657
   87        0.759   0.886   0.000   1.644
   88        0.783   0.816   0.000   1.599
   89        0.757   0.897   0.000   1.654
   90        0.754   0.898   0.000   1.652
   91        0.756   0.907   0.000   1.663
   92        0.757   0.932   0.000   1.689
   93        0.762   0.983   0.000   1.745
   94        0.755   0.944   0.000   1.699
   95        0.762   0.987   0.000   1.749
   96        0.750   0.920   0.000   1.670
   97        0.760   0.921   0.000   1.681
   98        0.801   0.832   0.000   1.634
   99        0.757   0.860   0.000   1.617
  100        0.759   0.898   0.000   1.658
  101        0.779   0.938   0.000   1.717
--------------------------------------------------
tot         75.492  87.883   0.000 163.375


 total amount of memory used by VASP MPI-rank0   198417. kBytes
=======================================================================

   base                                    :      30000. kBytes
   nonl-proj                               :      36769. kBytes
   fftplans                                :      42991. kBytes
   grid                                    :      33148. kBytes
   one-center                              :         21. kBytes
   wavefun                                 :      55488. kBytes

  
  
 General timing and accounting informations for this job:
 ========================================================
  
                  Total CPU time used (sec):     2700.134
                            User time (sec):     2692.209
                          System time (sec):        7.925
                         Elapsed time (sec):     2703.062
  
                   Maximum memory used (kb):      366088.
                   Average memory used (kb):          N/A
  
                          Minor page faults:       291991
                          Major page faults:         1134
                 Voluntary context switches:         2591
