 vasp.6.5.0 16Dec24 (build Jan 20 2025 08:32:48) complex                         
 executed on        HPECrayEX_GCC date 2025.07.28  18:08:28
 running  128 mpi-ranks, with    1 threads/rank, on    1 nodes
 distrk:  each k-point on  128 cores,    1 groups
 distr:  one band on NCORE=  16 cores,    8 groups


--------------------------------------------------------------------------------------------------------


 INCAR:
   SYSTEM = a-Si SPC
   NCORE = 16
   ISTART = 1
   ICHARG = 1
   ISPIN = 1
   ISYM = 1
   EDIFF = 1E-6
   NELM = 150
   EDIFFG = -0.01
   NSW = 0
   ISIF = 2
   IBRION = -1
   PREC = Accurate
   ENCUT = 1200
   KSPACING = 0.23
   KGAMMA = .TRUE.
   METAGGA = SCAN
   LASPH = .TRUE.
   LDIAG = .FALSE.
   LMIXTAU = .TRUE.
   ADDGRID = .TRUE.
   ALGO = Normal
   ISMEAR = 0
   SIGMA = 0.1
   LORBIT = 11
   NEDOS = 2000
   LWAVE = .FALSE.
   LCHARG = .FALSE.

 POTCAR:    PAW_PBE H 15Jun2001                   
 POTCAR:    PAW_PBE Si 05Jan2001                  
 POTCAR:    PAW_PBE H 15Jun2001                   
   SHA256 =  030f79b5d3ab3cf0e668861823c8fb652ff669f3e15e46930bd03bfd63a607b6 H/POTCAR              
   COPYR  = (c) Copyright 15Jun2001 Georg Kresse                                                    
   COPYR  = This file is part of the software VASP. Any use, copying, and all other rights are regul
   COPYR  = If you do not have a valid VASP license, you may not use, copy or distribute this file. 
   VRHFIN =H: ultrasoft test                                                                        
   LEXCH  = PE                                                                                      
   EATOM  =    12.4884 eV,    0.9179 Ry                                                             
                                                                                                    
   TITEL  = PAW_PBE H 15Jun2001                                                                     
   LULTRA =        F    use ultrasoft PP ?                                                          
   IUNSCR =        0    unscreen: 0-lin 1-nonlin 2-no                                               
   RPACOR =    0.000    partial core radius                                                         
   POMASS =    1.000; ZVAL   =    1.000    mass and valenz                                          
   RCORE  =    1.100    outmost cutoff radius                                                       
   RWIGS  =    0.700; RWIGS  =    0.370    wigner-seitz radius (au A)                               
   ENMAX  =  250.000; ENMIN  =  200.000 eV                                                          
   RCLOC  =    0.701    cutoff for local pot                                                        
   LCOR   =        T    correct aug charges                                                         
   LPAW   =        T    paw PP                                                                      
   EAUG   =  400.000                                                                                
   RMAX   =    1.123    core radius for proj-oper                                                   
   RAUG   =    1.200    factor for augmentation sphere                                              
   RDEP   =    1.112    radius for radial grids                                                     
   RDEPT  =    0.926    core radius for aug-charge                                                  
                                                                                                    
   Atomic configuration                                                                             
    2 entries                                                                                       
     n  l   j            E        occ.                                                              
     1  0  0.50        -6.4927   1.0000                                                             
     2  1  0.50        -3.4015   0.0000                                                             
   Description                                                                                      
     l       E           TYP  RCUT    TYP  RCUT                                                     
     0     -6.4927494     23  1.100                                                                 
     0      6.8029130     23  1.100                                                                 
     1     -4.0817478     23  1.100                                                                 
  local pseudopotential read in
  atomic valenz-charges read in
  non local Contribution for L=           0  read in
    real space projection operators read in
  non local Contribution for L=           0  read in
    real space projection operators read in
  non local Contribution for L=           1  read in
    real space projection operators read in
    PAW grid and wavefunctions read in

   number of l-projection  operators is LMAX  =           3
   number of lm-projection operators is LMMAX =           5

 POTCAR:    PAW_PBE Si 05Jan2001                  
   SHA256 =  79d9987ad8750f624c4d6acb2a16d13abf6a777132adc04dc6c8399be72b42bb Si/POTCAR             
   COPYR  = (c) Copyright 05Jan2001 Georg Kresse                                                    
   COPYR  = This file is part of the software VASP. Any use, copying, and all other rights are regul
   COPYR  = If you do not have a valid VASP license, you may not use, copy or distribute this file. 
   VRHFIN =Si: s2p2                                                                                 
   LEXCH  = PE                                                                                      
   EATOM  =   103.0669 eV,    7.5752 Ry                                                             
                                                                                                    
   TITEL  = PAW_PBE Si 05Jan2001                                                                    
   LULTRA =        F    use ultrasoft PP ?                                                          
   IUNSCR =        1    unscreen: 0-lin 1-nonlin 2-no                                               
   RPACOR =    1.500    partial core radius                                                         
   POMASS =   28.085; ZVAL   =    4.000    mass and valenz                                          
   RCORE  =    1.900    outmost cutoff radius                                                       
   RWIGS  =    2.480; RWIGS  =    1.312    wigner-seitz radius (au A)                               
   ENMAX  =  245.345; ENMIN  =  184.009 eV                                                          
   ICORE  =        2    local potential                                                             
   LCOR   =        T    correct aug charges                                                         
   LPAW   =        T    paw PP                                                                      
   EAUG   =  322.069                                                                                
   DEXC   =    0.000                                                                                
   RMAX   =    1.950    core radius for proj-oper                                                   
   RAUG   =    1.300    factor for augmentation sphere                                              
   RDEP   =    1.993    radius for radial grids                                                     
   RDEPT  =    1.837    core radius for aug-charge                                                  
                                                                                                    
   Atomic configuration                                                                             
    6 entries                                                                                       
     n  l   j            E        occ.                                                              
     1  0  0.50     -1785.8828   2.0000                                                             
     2  0  0.50      -139.4969   2.0000                                                             
     2  1  1.50       -95.5546   6.0000                                                             
     3  0  0.50       -10.8127   2.0000                                                             
     3  1  0.50        -4.0811   2.0000                                                             
     3  2  1.50        -4.0817   0.0000                                                             
   Description                                                                                      
     l       E           TYP  RCUT    TYP  RCUT                                                     
     0    -10.8127223     23  1.900                                                                 
     0     -7.6451159     23  1.900                                                                 
     1     -4.0811372     23  1.900                                                                 
     1      2.4879257     23  1.900                                                                 
     2     -4.0817478      7  1.900                                                                 
  local pseudopotential read in
  partial core-charges read in
  partial kinetic energy density read in
  atomic valenz-charges read in
  non local Contribution for L=           0  read in
    real space projection operators read in
  non local Contribution for L=           0  read in
    real space projection operators read in
  non local Contribution for L=           1  read in
    real space projection operators read in
  non local Contribution for L=           1  read in
    real space projection operators read in
    PAW grid and wavefunctions read in

   number of l-projection  operators is LMAX  =           4
   number of lm-projection operators is LMMAX =           8

 -----------------------------------------------------------------------------
|                                                                             |
|               ----> ADVICE to this user running VASP <----                  |
|                                                                             |
|     You have a (more or less) 'large supercell' and for larger cells it     |
|     might be more efficient to use real-space projection operators.         |
|     Therefore, try LREAL= Auto in the INCAR file.                           |
|     Mind: For very accurate calculation, you might also keep the            |
|     reciprocal projection scheme (i.e. LREAL=.FALSE.).                      |
|                                                                             |
 -----------------------------------------------------------------------------

 -----------------------------------------------------------------------------
|                                                                             |
|               ----> ADVICE to this user running VASP <----                  |
|                                                                             |
|     You enforced a specific xc type in the INCAR file but a different       |
|     type was found in the POTCAR file.                                      |
|     I HOPE YOU KNOW WHAT YOU ARE DOING!                                     |
|                                                                             |
 -----------------------------------------------------------------------------

  PAW_PBE H 15Jun2001                   :
 energy of atom  1       EATOM=  -12.4884
 kinetic energy error for atom=    0.0000 (will be added to EATOM!!)
  PAW_PBE Si 05Jan2001                  :
 energy of atom  2       EATOM= -103.0669
 kinetic energy error for atom=    0.0001 (will be added to EATOM!!)


 POSCAR:  H Si
  positions in cartesian coordinates
  No initial velocities read in


 exchange-correlation table for SCAN
   RHO(1)=    0.500       N(1)  =     2000
   RHO(2)=  100.500       N(2)  =     4000



--------------------------------------------------------------------------------------------------------


 ion  position               nearest neighbor table
   1  0.626  0.425  0.542-  60 1.67  62 1.77
   2  0.461  0.915  0.644-  14 1.48
   3  0.305  0.669  0.596-  64 1.48
   4  0.521  0.634  0.613-  79 1.53
   5  0.253  0.929  0.457-  66 1.50
   6  0.999  0.885  0.616-  70 1.50
   7  0.164  0.810  0.606-   8 0.81  58 1.91
   8  0.164  0.773  0.629-   7 0.81
   9  0.744  0.832  0.594-  82 1.49
  10  0.511  0.197  0.464-  69 1.49
  11  0.422  0.398  0.535-  60 2.30  68 2.33  54 2.36  55 2.38
  12  0.928  0.159  0.492-  15 2.30  77 2.33  28 2.41  43 2.42
  13  0.772  0.396  0.614-  40 2.36  62 2.40  32 2.50  48 3.00
  14  0.502  0.934  0.594-   2 1.48  19 2.31  53 2.40  45 2.41
  15  0.981  0.125  0.572-  71 2.30  12 2.30  20 2.35  46 2.35
  16  0.001  0.403  0.562-  32 2.35  20 2.37  63 2.37  18 2.44  33 2.47
  17  0.375  0.071  0.408-  69 2.33  52 2.33  56 2.40  72 2.40
  18  0.073  0.379  0.480-  38 2.33  77 2.34  26 2.38  16 2.44  63 2.83
  19  0.398  0.985  0.534-  59 2.29  14 2.31  66 2.33  72 2.37
  20  0.031  0.265  0.606-  36 2.33  15 2.35  16 2.37
  21  0.612  0.990  0.422-  81 2.31  72 2.32  52 2.35  41 2.36
  22  0.719  0.026  0.540-  45 2.33  81 2.36  82 2.38  46 2.39  23 2.93
  23  0.732  0.100  0.643-  46 2.34  40 2.39  45 2.41  22 2.93
  24  0.339  0.754  0.484-  34 2.27  66 2.28  64 2.31  57 2.31
  25  0.842  0.449  0.441-  75 2.37  39 2.38  32 2.44  74 2.45
  26  0.157  0.494  0.436-  67 2.37  80 2.38  18 2.38  49 2.39  76 2.97
  27  0.649  0.619  0.476-  74 2.34  50 2.36  31 2.38  79 2.59  73 2.69
  28  0.805  0.256  0.522-  47 2.32  40 2.37  32 2.38  12 2.41
  29  0.321  0.212  0.608-  55 2.31  36 2.32  59 2.32
  30  0.853  0.894  0.393-  41 2.40  43 2.44  78 2.73  42 2.99
  31  0.593  0.730  0.418-  57 2.33  73 2.34  41 2.36  27 2.38
  32  0.850  0.413  0.531-  16 2.35  28 2.38  48 2.44  25 2.44  13 2.50  33 3.05
  33  0.952  0.555  0.593-  48 2.34  61 2.35  16 2.47  32 3.05
  34  0.298  0.690  0.410-  24 2.27  76 2.37  65 2.46
  35  0.197  0.114  0.494-  71 2.31  59 2.37  56 2.38  38 2.42  51 2.69
  36  0.185  0.285  0.586-  29 2.32  63 2.33  20 2.33  38 2.38
  37  0.568  0.229  0.579-  40 2.35  60 2.36  55 2.37  45 2.40
  38  0.194  0.279  0.497-  18 2.33  54 2.33  36 2.38  35 2.42  51 2.53  63 3.07
  39  0.937  0.580  0.448-  49 2.36  50 2.38  25 2.38  61 2.45
  40  0.725  0.243  0.599-  37 2.35  13 2.36  28 2.37  23 2.39
  41  0.697  0.854  0.410-  21 2.36  31 2.36  78 2.37  30 2.40
  42  0.926  0.889  0.498-  78 2.29  70 2.36  43 2.41  83 2.42  30 2.99
  43  0.873  0.021  0.452-  81 2.40  42 2.41  12 2.42  30 2.44
  44  0.610  0.341  0.433-  60 2.29  47 2.33  74 2.33
  45  0.597  0.069  0.593-  22 2.33  37 2.40  14 2.41  23 2.41
  46  0.850  0.039  0.594-  70 2.30  23 2.34  15 2.35  22 2.39
  47  0.735  0.243  0.444-  28 2.32  44 2.33  81 2.36  75 2.39
  48  0.809  0.568  0.555-  62 2.30  33 2.34  50 2.36  32 2.44  13 3.00
  49  0.056  0.587  0.387-  76 2.31  39 2.36  26 2.39
  50  0.806  0.656  0.481-  78 2.30  48 2.36  27 2.36  39 2.38
  51  0.151  0.213  0.412-  56 2.34  77 2.39  38 2.53  35 2.69
  52  0.502  0.028  0.360-  17 2.33  21 2.35  72 2.73
  53  0.557  0.803  0.548-  82 2.31  57 2.34  14 2.40  79 2.53
  54  0.335  0.334  0.469-  67 2.32  69 2.33  38 2.33  11 2.36
  55  0.442  0.315  0.611-  29 2.31  37 2.37  11 2.38  60 3.13
  56  0.211  0.065  0.409-  51 2.34  35 2.38  17 2.40
  57  0.487  0.805  0.469-  24 2.31  31 2.33  53 2.34  72 2.36
  58  0.139  0.881  0.547-   7 1.91  66 2.28  71 2.31  83 2.36
  59  0.341  0.131  0.534-  19 2.29  29 2.32  69 2.33  35 2.37
  60  0.565  0.341  0.515-   1 1.67  44 2.29  11 2.30  37 2.36  55 3.13
  61  0.022  0.626  0.523-  33 2.35  80 2.36  83 2.39  39 2.45
  62  0.670  0.511  0.582-   1 1.77  48 2.30  13 2.40  79 2.47
  63  0.159  0.439  0.570-  36 2.33  80 2.34  16 2.37  18 2.83  38 3.07
  64  0.305  0.641  0.543-   3 1.48  68 2.31  24 2.31  80 2.33
  65  0.406  0.565  0.429-  67 2.35  68 2.44  34 2.46  73 2.48
  66  0.278  0.891  0.508-   5 1.50  58 2.28  24 2.28  19 2.33
  67  0.304  0.446  0.409-  54 2.32  65 2.35  26 2.37
  68  0.430  0.556  0.519-  64 2.31  11 2.33  79 2.40  65 2.44
  69  0.409  0.193  0.462-  10 1.49  54 2.33  17 2.33  59 2.33
  70  0.912  0.894  0.586-   6 1.50  46 2.30  42 2.36
  71  0.105  0.035  0.550-  15 2.30  58 2.31  35 2.31
  72  0.466  0.963  0.454-  21 2.32  57 2.36  19 2.37  17 2.40  52 2.73
  73  0.560  0.582  0.390-  31 2.34  74 2.47  65 2.48  27 2.69
  74  0.679  0.485  0.430-  44 2.33  27 2.34  25 2.45  73 2.47
  75  0.862  0.308  0.399-  77 2.36  25 2.37  47 2.39
  76  0.140  0.697  0.429-  49 2.31  34 2.37  83 2.50  26 2.97  80 3.03
  77  1.000  0.260  0.437-  12 2.33  18 2.34  75 2.36  51 2.39
  78  0.793  0.813  0.479-  42 2.29  50 2.30  82 2.30  41 2.37  30 2.73
  79  0.557  0.631  0.559-   4 1.53  68 2.40  62 2.47  53 2.53  27 2.59
  80  0.172  0.566  0.516-  64 2.33  63 2.34  61 2.36  26 2.38  76 3.03
  81  0.721  0.084  0.458-  21 2.31  22 2.36  47 2.36  43 2.40
  82  0.704  0.863  0.545-   9 1.49  78 2.30  53 2.31  22 2.38
  83  0.052  0.780  0.496-  58 2.36  61 2.39  42 2.42  76 2.50

  LATTYP: Found a simple tetragonal cell.
 ALAT       =    14.5733989906
 C/A-ratio  =     1.8236720423
  
  Lattice vectors:
  
 A1 = (  14.5733989906,   0.0000000000,   0.0000000000)
 A2 = (   0.0000000000,  14.5733989906,   0.0000000000)
 A3 = (   0.0000000000,   0.0000000000,  26.5771003000)


Analysis of symmetry for initial positions (statically):
=====================================================================
 Subroutine PRICEL returns:
 Original cell was already a primitive cell.
 

 Routine SETGRP: Setting up the symmetry group for a 
 simple tetragonal supercell.


 Subroutine GETGRP returns: Found  1 space group operations
 (whereof  1 operations were pure point group operations)
 out of a pool of 16 trial point group operations.


The static configuration has the point symmetry C_1 .


Analysis of symmetry for dynamics (positions and initial velocities):
=====================================================================
 Subroutine PRICEL returns:
 Original cell was already a primitive cell.
 

 Routine SETGRP: Setting up the symmetry group for a 
 simple tetragonal supercell.


 Subroutine GETGRP returns: Found  1 space group operations
 (whereof  1 operations were pure point group operations)
 out of a pool of 16 trial point group operations.


The dynamic configuration has the point symmetry C_1 .


 Subroutine INISYM returns: Found  1 space group operations
 (whereof  1 operations are pure point group operations),
 and found     1 'primitive' translations


----------------------------------------------------------------------------------------

                                     Primitive cell                                     

  volume of cell :    5644.5498

  direct lattice vectors                    reciprocal lattice vectors
    14.573398991  0.000000000  0.000000000     0.068618172  0.000000000  0.000000000
     0.000000000 14.573398991  0.000000000     0.000000000  0.068618172  0.000000000
     0.000000000  0.000000000 26.577100300     0.000000000  0.000000000  0.037626377

  length of vectors
    14.573398991 14.573398991 26.577100300     0.068618172  0.068618172  0.037626377

  position of ions in fractional coordinates (direct lattice)
     0.625964652  0.424751666  0.542234506
     0.461417788  0.914920747  0.643951987
     0.304520207  0.668921270  0.596240417
     0.521254926  0.633626128  0.613466336
     0.253038037  0.929092286  0.457324236
     0.999268167  0.884779853  0.615605810
     0.163915046  0.810282327  0.605954137
     0.164305980  0.772502317  0.628545727
     0.743996390  0.831576690  0.593794144
     0.510524287  0.197403613  0.464162506
     0.422250056  0.398347546  0.534917385
     0.927542996  0.159131467  0.492315497
     0.772227312  0.395881706  0.613775695
     0.501546228  0.934127977  0.593938812
     0.980945767  0.124751822  0.571681432
     0.000723709  0.403121057  0.561950878
     0.375277928  0.071387811  0.407757478
     0.073054731  0.379114737  0.480115109
     0.398060062  0.984882546  0.534406177
     0.030771841  0.264898595  0.605876528
     0.611601168  0.989720665  0.421678499
     0.718971581  0.025796664  0.540377655
     0.731584489  0.100270873  0.642655424
     0.339046260  0.753782019  0.484119436
     0.841602496  0.448745127  0.441106168
     0.157226523  0.494367965  0.436227545
     0.648647055  0.618588042  0.476042329
     0.805256537  0.256308179  0.521728018
     0.320878364  0.212091585  0.608299858
     0.853119344  0.894007039  0.392719784
     0.592979283  0.730057527  0.418086051
     0.850047099  0.412509147  0.530627952
     0.952343637  0.554976008  0.593173809
     0.297674296  0.690151882  0.409578022
     0.196799212  0.113744427  0.493980416
     0.185382016  0.284939110  0.586442255
     0.567893510  0.228767760  0.579413487
     0.194147498  0.279382902  0.497256683
     0.937282971  0.580150948  0.447715202
     0.724533173  0.243285647  0.599022049
     0.697122784  0.853732848  0.410495557
     0.926118761  0.888801265  0.497817495
     0.872748741  0.020730067  0.451884574
     0.609959352  0.341194181  0.432537282
     0.597383519  0.068522102  0.592546133
     0.850317576  0.039060720  0.593744876
     0.734821450  0.243432100  0.443577275
     0.808523311  0.568222352  0.554983851
     0.055521697  0.587012276  0.386953239
     0.806133578  0.656108448  0.480605571
     0.150533511  0.213407175  0.412437678
     0.502332256  0.027832949  0.360018381
     0.557079030  0.802994359  0.548423814
     0.335466062  0.334185348  0.468828436
     0.442002477  0.314549764  0.610793609
     0.211019887  0.064591295  0.408984476
     0.486987477  0.804768610  0.469173482
     0.138738952  0.880529690  0.546777867
     0.341158250  0.131099901  0.533826764
     0.565135636  0.340958117  0.515173734
     0.021504548  0.626427609  0.523339120
     0.669895498  0.511286222  0.582197625
     0.158905221  0.439415857  0.569845325
     0.304520093  0.641480857  0.542636852
     0.406106089  0.565254062  0.428670151
     0.277927407  0.891182201  0.508024009
     0.304284020  0.445505314  0.408604447
     0.430444222  0.555549581  0.519345040
     0.408656393  0.192927792  0.461780599
     0.912149106  0.894201349  0.586328291
     0.104790080  0.035288803  0.550345445
     0.466093820  0.963327670  0.454337246
     0.559968456  0.581540593  0.389653385
     0.678762755  0.485497784  0.429670022
     0.862049374  0.307533895  0.398702357
     0.139508955  0.697091839  0.429427635
     0.999993582  0.259580838  0.437145671
     0.792578576  0.813352936  0.479080455
     0.557308181  0.630884125  0.559422913
     0.171548243  0.566452429  0.516370333
     0.721244011  0.084021109  0.457716588
     0.703777907  0.863358478  0.545187833
     0.051518030  0.779964448  0.496115178

  ion indices of the primitive-cell ions
   primitive index   ion index
                 1           1
                 2           2
                 3           3
                 4           4
                 5           5
                 6           6
                 7           7
                 8           8
                 9           9
                10          10
                11          11
                12          12
                13          13
                14          14
                15          15
                16          16
                17          17
                18          18
                19          19
                20          20
                21          21
                22          22
                23          23
                24          24
                25          25
                26          26
                27          27
                28          28
                29          29
                30          30
                31          31
                32          32
                33          33
                34          34
                35          35
                36          36
                37          37
                38          38
                39          39
                40          40
                41          41
                42          42
                43          43
                44          44
                45          45
                46          46
                47          47
                48          48
                49          49
                50          50
                51          51
                52          52
                53          53
                54          54
                55          55
                56          56
                57          57
                58          58
                59          59
                60          60
                61          61
                62          62
                63          63
                64          64
                65          65
                66          66
                67          67
                68          68
                69          69
                70          70
                71          71
                72          72
                73          73
                74          74
                75          75
                76          76
                77          77
                78          78
                79          79
                80          80
                81          81
                82          82
                83          83

----------------------------------------------------------------------------------------


 -----------------------------------------------------------------------------
|                                                                             |
|           W    W    AA    RRRRR   N    N  II  N    N   GGGG   !!!           |
|           W    W   A  A   R    R  NN   N  II  NN   N  G    G  !!!           |
|           W    W  A    A  R    R  N N  N  II  N N  N  G       !!!           |
|           W WW W  AAAAAA  RRRRR   N  N N  II  N  N N  G  GGG   !            |
|           WW  WW  A    A  R   R   N   NN  II  N   NN  G    G                |
|           W    W  A    A  R    R  N    N  II  N    N   GGGG   !!!           |
|                                                                             |
|     The requested file  could not be found or opened for reading            |
|     k-point information. Automatic k-point generation is used as a          |
|     fallback, which may lead to unwanted results.                           |
|                                                                             |
 -----------------------------------------------------------------------------



Automatic generation of k-mesh.
 Grid dimensions derived from KSPACING:
 generate k-points for:    2    2    2

 Generating k-lattice:

  Cartesian coordinates                     Fractional coordinates (reciprocal lattice)
     0.034309086  0.000000000  0.000000000     0.500000000  0.000000000  0.000000000
     0.000000000  0.034309086  0.000000000     0.000000000  0.500000000  0.000000000
     0.000000000  0.000000000  0.018813189     0.000000000  0.000000000  0.500000000

  Length of vectors
     0.034309086  0.034309086  0.018813189

  Shift w.r.t. Gamma in fractional coordinates (k-lattice)
     0.000000000  0.000000000  0.000000000

 
 Subroutine IBZKPT returns following result:
 ===========================================
 
 Found      8 irreducible k-points:
 
 Following reciprocal coordinates:
            Coordinates               Weight
  0.000000  0.000000  0.000000      1.000000
  0.500000  0.000000  0.000000      1.000000
  0.000000  0.500000  0.000000      1.000000
  0.500000  0.500000  0.000000      1.000000
  0.000000  0.000000  0.500000      1.000000
  0.500000  0.000000  0.500000      1.000000
  0.000000  0.500000  0.500000      1.000000
  0.500000  0.500000  0.500000      1.000000
 
 Following cartesian coordinates:
            Coordinates               Weight
  0.000000  0.000000  0.000000      1.000000
  0.034309  0.000000  0.000000      1.000000
  0.000000  0.034309  0.000000      1.000000
  0.034309  0.034309  0.000000      1.000000
  0.000000  0.000000  0.018813      1.000000
  0.034309  0.000000  0.018813      1.000000
  0.000000  0.034309  0.018813      1.000000
  0.034309  0.034309  0.018813      1.000000
 


--------------------------------------------------------------------------------------------------------




 Dimension of arrays:
   k-points           NKPTS =      8   k-points in BZ     NKDIM =      8   number of bands    NBANDS=    200
   number of dos      NEDOS =   2000   number of ions     NIONS =     83
   non local maximal  LDIM  =      4   non local SUM 2l+1 LMDIM =      8
   total plane-waves  NPLWV = ******
   max r-space proj   IRMAX =      1   max aug-charges    IRDMAX= 401390
   dimension x,y,z NGX =   168 NGY =  168 NGZ =  300
   dimension x,y,z NGXF=   336 NGYF=  336 NGZF=  600
   support grid    NGXF=   672 NGYF=  672 NGZF= 1200
   ions per type =              10  73
   NGX,Y,Z   is equivalent  to a cutoff of  19.16, 19.16, 18.77 a.u.
   NGXF,Y,Z  is equivalent  to a cutoff of  38.33, 38.33, 37.53 a.u.

 SYSTEM =  a-Si SPC                                
 POSCAR =   H Si                                   

 Startparameter for this run:
   NWRITE =      2    write-flag & timer
   PREC   = accura    normal or accurate (medium, high low for compatibility)
   ISTART =      1    job   : 0-new  1-cont  2-samecut
   ICHARG =      1    charge: 1-file 2-atom 10-const
   ISPIN  =      1    spin polarized calculation?
   LNONCOLLINEAR =      F non collinear calculations
   LSORBIT =      F    spin-orbit coupling
   INIWAV =      1    electr: 0-lowe 1-rand  2-diag
   LASPH  =      T    aspherical Exc in radial PAW
 Electronic Relaxation 1
   ENCUT  = 1200.0 eV  88.20 Ry    9.39 a.u.  41.16 41.16 75.07*2*pi/ulx,y,z
   ENINI  = 1200.0     initial cutoff
   ENAUG  =  400.0 eV  augmentation charge cutoff
   NELM   =    150;   NELMIN=  2; NELMDL=  0     # of ELM steps 
   EDIFF  = 0.1E-05   stopping-criterion for ELM
   LREAL  =      F    real-space projection
   NLSPLINE    = F    spline interpolate recip. space projectors
   LCOMPAT=      F    compatible to vasp.4.4
   GGA_COMPAT  = T    GGA compatible to vasp.4.4-vasp.4.6
   LMAXPAW     = -100 max onsite density
   LMAXMIX     =    2 max onsite mixed and CHGCAR
   VOSKOWN=      0    Vosko Wilk Nusair interpolation
   ROPT   =    0.00000   0.00000
 Ionic relaxation
   EDIFFG = -.1E-01   stopping-criterion for IOM
   NSW    =      0    number of steps for IOM
   NBLOCK =      1;   KBLOCK =      1    inner block; outer block 
   IBRION =     -1    ionic relax: 0-MD 1-quasi-New 2-CG
   NFREE  =      0    steps in history (QN), initial steepest desc. (CG)
   ISIF   =      2    stress and relaxation
   IWAVPR =     10    prediction:  0-non 1-charg 2-wave 3-comb
   ISYM   =      1    0-nonsym 1-usesym 2-fastsym
   LCORR  =      T    Harris-Foulkes like correction to forces

   POTIM  = 0.5000    time-step for ionic-motion
   TEIN   =    0.0    initial temperature
   TEBEG  =    0.0;   TEEND  =   0.0 temperature during run
   SMASS  =  -3.00    Nose mass-parameter (am)
   estimated Nose-frequenzy (Omega)   =  0.10E-29 period in steps = 0.13E+47 mass=  -0.485E-26a.u.
   SCALEE = 1.0000    scale energy and forces
   NPACO  =    256;   APACO  = 10.0  distance and # of slots for P.C.
   PSTRESS=    0.0 pullay stress

  Mass of Ions in am
   POMASS =   1.00 28.09
  Ionic Valenz
   ZVAL   =   1.00  4.00
  Atomic Wigner-Seitz radii
   RWIGS  =  -1.00 -1.00
  virtual crystal weights 
   VCA    =   1.00  1.00
   NELECT =     302.0000    total number of electrons
   NUPDOWN=      -1.0000    fix difference up-down

 DOS related values:
   EMIN   =  10.00;   EMAX   =-10.00  energy-range for DOS
   EFERMI =   0.00;   METHOD = LEGACY      
   ISMEAR =     0;   SIGMA  =   0.10  broadening in eV -4-tet -1-fermi 0-gaus
   EFERMI_NEDOS =   21; number of points for ismear=-14 and -15

 Electronic relaxation 2 (details)
   IALGO  =     38    algorithm
   LDIAG  =      F    sub-space diagonalisation (order eigenvalues)
   LSUBROT=      F    optimize rotation matrix (better conditioning)
   TURBO    =      0    0=normal 1=particle mesh
   IRESTART =      0    0=no restart 2=restart with 2 vectors
   NREBOOT  =      0    no. of reboots
   NMIN     =      0    reboot dimension
   EREF     =   0.00    reference energy to select bands
   IMIX   =      4    mixing-type and parameters
     AMIX     =   0.40;   BMIX     =  1.00
     AMIX_MAG =   1.60;   BMIX_MAG =  1.00
     AMIN     =   0.10
     WC   =   100.;   INIMIX=   1;  MIXPRE=   1;  MAXMIX= -45

 Intra band minimization:
   WEIMIN = 0.0000     energy-eigenvalue tresh-hold
   EBREAK =  0.13E-08  absolut break condition
   DEPER  =   0.30     relativ break condition  

   TIME   =   0.40     timestep for ELM

  volume/ion in A,a.u.               =      68.01       458.93
  Fermi-wavevector in a.u.,A,eV,Ry     =   0.616880  1.165734  5.177574  0.380541
  Thomas-Fermi vector in A             =   1.674766

 Write flags
   LWAVE        =      F    write WAVECAR
   LDOWNSAMPLE  =      F    k-point downsampling of WAVECAR
   LCHARG       =      F    write CHGCAR
   LVTOT        =      F    write LOCPOT, total local potential
   LVHAR        =      F    write LOCPOT, Hartree potential only
   WRT_POTENTIAL= false  ! write potential to hdf5 file
   LELF         =      F    write electronic localiz. function (ELF)
   LORBIT       =     11    0 simple, 1 ext, 2 COOP (PROOUT), +10 PAW based schemes


 Python interface
   PLUGINS active      =      F    recompile with -DPLUGINS to activate

 Dipole corrections
   LMONO      =      F    monopole corrections only (constant potential shift)
   LDIPOL     =      F    correct potential (dipole corrections)
   IDIPOL     =      0    1-x, 2-y, 3-z, 4-all directions 
   EPSILON    =  1.0000000 bulk dielectric constant
   LVACPOTAV  =      F  vacuum potentials using an averaging scheme for the charge density
   VACPOTFLAT =  0.1000000 required flatness to determine vacuum potential

Coulomb truncation method
  LTRUNCATE          =      F  Coulomb kernel truncation to be used
  IDIMENSIONALITY    =      3  Dimensionality of cutoff (0 molecules / 2 surfaces)
  ISURFACE           =     -1  Direction of surface normal
  LCOARSEN           =      F  Coarsen the charge grid before padding, preferred


 Exchange correlation treatment:
   METAGGA = SCAN    functional components
   XC_C    = 1    coefficients multiplying the functional components
   LIBXC   =     F    Libxc                    
   VOSKOWN =     0    Vosko Wilk Nusair interpolation
   LHFCALC =     F    Hartree Fock is set to
   LHFONE  =     F    Hartree Fock one center treatment
   AEXX    =    0.0000 exact exchange contribution

 Parameters of functionals:
   SCAN:
     P1 =  0.000000E+00
     P2 =  0.000000E+00
     P3 =  0.000000E+00

 Accuracy and mixing parameters for tau-dependent meta-GGA functionals:
   LMAXTAU = 6
   LMIXTAU = T

 Van der Waals corrections
   IVDW    =     0    specifies the selected vdW correction

 Linear response parameters
   LEPSILON=     F    determine dielectric tensor
   LRPA    =     F    only Hartree local field effects (RPA)
   LNABLA  =     F    use nabla operator in PAW spheres
   LVEL    =     F    velocity operator in full k-point grid
   CSHIFT  =0.1000    complex shift for real part using Kramers Kronig
   OMEGAMAX=  -1.0    maximum frequency
   DEG_THRESHOLD= 0.2000000E-02 threshold for treating states as degnerate
   RTIME   =   -0.100 relaxation time in fs
  (WPLASMAI=    0.000 imaginary part of plasma frequency in eV, 0.658/RTIME)
   DFIELD  = 0.0000000 0.0000000 0.0000000 field for delta impulse in time

  Optional k-point grid parameters
   LKPOINTS_OPT  =     F    use optional k-point grid
   KPOINTS_OPT_MODE=     1    mode for optional k-point grid

 Orbital magnetization related:
   ORBITALMAG=     F  switch on orbital magnetization
   LCHIMAG   =     F  perturbation theory with respect to B field
   DQ        =  0.001000  dq finite difference perturbation B field
   LLRAUG    =     F  two centre corrections for induced B field
   LBONE     =     F  B-component reconstruction in AE one-centre
   LVGVCALC  =     T  calculate vGv susceptibility
   LVGVAPPL  =     F  apply vGv susceptibility instead of pGv for G=0

 Random number generation:
   RANDOM_GENERATOR = DEFAULT
   PCG_SEED         = not used


--------------------------------------------------------------------------------------------------------


 Static calculation
 charge density and potential will be updated during run
 non-spin polarized calculation
 Variant of blocked Davidson
 perform Loewdin sub-space diagonalisation
    ordering is kept fixed
    before iterative eigenvector-optimisation
 modified Broyden-mixing scheme, WC =      100.0
 initial mixing is a Kerker type mixing with AMIX =  0.4000 and BMIX =      1.0000
 Hartree-type preconditioning will be used
 using additional bands           49
 reciprocal scheme for non local part
 use partial core corrections
 calculate Harris-corrections to forces   (improved forces if not selfconsistent)
 use gradient corrections 
 use of overlap-Matrix (Vanderbilt PP)
 Gauss-broadening in eV      SIGMA  =   0.10


--------------------------------------------------------------------------------------------------------


  energy-cutoff  :     1200.00
  volume of cell :     5644.55
      direct lattice vectors                 reciprocal lattice vectors
    14.573398991  0.000000000  0.000000000     0.068618172  0.000000000  0.000000000
     0.000000000 14.573398991  0.000000000     0.000000000  0.068618172  0.000000000
     0.000000000  0.000000000 26.577100300     0.000000000  0.000000000  0.037626377

  length of vectors
    14.573398991 14.573398991 26.577100300     0.068618172  0.068618172  0.037626377



 old parameters found on file WAVECAR:
  energy-cutoff  :     1200.00
  volume of cell :     5644.55
      direct lattice vectors                 reciprocal lattice vectors
    14.573398991  0.000000000  0.000000000     0.068618172  0.000000000  0.000000000
     0.000000000 14.573398991  0.000000000     0.000000000  0.068618172  0.000000000
     0.000000000  0.000000000 26.577100300     0.000000000  0.000000000  0.037626377

  length of vectors


 k-points in units of 2pi/SCALE and weight: read from INCAR                         
   0.00000000  0.00000000  0.00000000       0.125
   0.03430909  0.00000000  0.00000000       0.125
   0.00000000  0.03430909  0.00000000       0.125
   0.03430909  0.03430909  0.00000000       0.125
   0.00000000  0.00000000  0.01881319       0.125
   0.03430909  0.00000000  0.01881319       0.125
   0.00000000  0.03430909  0.01881319       0.125
   0.03430909  0.03430909  0.01881319       0.125

 k-points in reciprocal lattice and weights: read from INCAR                         
   0.00000000  0.00000000  0.00000000       0.125
   0.50000000  0.00000000  0.00000000       0.125
   0.00000000  0.50000000  0.00000000       0.125
   0.50000000  0.50000000  0.00000000       0.125
   0.00000000  0.00000000  0.50000000       0.125
   0.50000000  0.00000000  0.50000000       0.125
   0.00000000  0.50000000  0.50000000       0.125
   0.50000000  0.50000000  0.50000000       0.125

 position of ions in fractional coordinates (direct lattice) 
   0.62596465  0.42475167  0.54223451
   0.46141779  0.91492075  0.64395199
   0.30452021  0.66892127  0.59624042
   0.52125493  0.63362613  0.61346634
   0.25303804  0.92909229  0.45732424
   0.99926817  0.88477985  0.61560581
   0.16391505  0.81028233  0.60595414
   0.16430598  0.77250232  0.62854573
   0.74399639  0.83157669  0.59379414
   0.51052429  0.19740361  0.46416251
   0.42225006  0.39834755  0.53491738
   0.92754300  0.15913147  0.49231550
   0.77222731  0.39588171  0.61377570
   0.50154623  0.93412798  0.59393881
   0.98094577  0.12475182  0.57168143
   0.00072371  0.40312106  0.56195088
   0.37527793  0.07138781  0.40775748
   0.07305473  0.37911474  0.48011511
   0.39806006  0.98488255  0.53440618
   0.03077184  0.26489860  0.60587653
   0.61160117  0.98972066  0.42167850
   0.71897158  0.02579666  0.54037765
   0.73158449  0.10027087  0.64265542
   0.33904626  0.75378202  0.48411944
   0.84160250  0.44874513  0.44110617
   0.15722652  0.49436796  0.43622755
   0.64864705  0.61858804  0.47604233
   0.80525654  0.25630818  0.52172802
   0.32087836  0.21209158  0.60829986
   0.85311934  0.89400704  0.39271978
   0.59297928  0.73005753  0.41808605
   0.85004710  0.41250915  0.53062795
   0.95234364  0.55497601  0.59317381
   0.29767430  0.69015188  0.40957802
   0.19679921  0.11374443  0.49398042
   0.18538202  0.28493911  0.58644225
   0.56789351  0.22876776  0.57941349
   0.19414750  0.27938290  0.49725668
   0.93728297  0.58015095  0.44771520
   0.72453317  0.24328565  0.59902205
   0.69712278  0.85373285  0.41049556
   0.92611876  0.88880127  0.49781750
   0.87274874  0.02073007  0.45188457
   0.60995935  0.34119418  0.43253728
   0.59738352  0.06852210  0.59254613
   0.85031758  0.03906072  0.59374488
   0.73482145  0.24343210  0.44357728
   0.80852331  0.56822235  0.55498385
   0.05552170  0.58701228  0.38695324
   0.80613358  0.65610845  0.48060557
   0.15053351  0.21340718  0.41243768
   0.50233226  0.02783295  0.36001838
   0.55707903  0.80299436  0.54842381
   0.33546606  0.33418535  0.46882844
   0.44200248  0.31454976  0.61079361
   0.21101989  0.06459129  0.40898448
   0.48698748  0.80476861  0.46917348
   0.13873895  0.88052969  0.54677787
   0.34115825  0.13109990  0.53382676
   0.56513564  0.34095812  0.51517373
   0.02150455  0.62642761  0.52333912
   0.66989550  0.51128622  0.58219763
   0.15890522  0.43941586  0.56984532
   0.30452009  0.64148086  0.54263685
   0.40610609  0.56525406  0.42867015
   0.27792741  0.89118220  0.50802401
   0.30428402  0.44550531  0.40860445
   0.43044422  0.55554958  0.51934504
   0.40865639  0.19292779  0.46178060
   0.91214911  0.89420135  0.58632829
   0.10479008  0.03528880  0.55034544
   0.46609382  0.96332767  0.45433725
   0.55996846  0.58154059  0.38965339
   0.67876276  0.48549778  0.42967002
   0.86204937  0.30753389  0.39870236
   0.13950895  0.69709184  0.42942764
   0.99999358  0.25958084  0.43714567
   0.79257858  0.81335294  0.47908045
   0.55730818  0.63088412  0.55942291
   0.17154824  0.56645243  0.51637033
   0.72124401  0.08402111  0.45771659
   0.70377791  0.86335848  0.54518783
   0.05151803  0.77996445  0.49611518

 position of ions in cartesian coordinates  (Angst):
   9.12243263  6.19007550 14.41102085
   6.72442552 13.33350509 17.11437654
   4.43789448  9.74845656 15.84634137
   7.59645601  9.23408637 16.30415634
   3.68762427 13.54003259 12.15435210
  14.56273370 12.89424981 16.36101736
   2.38879937 11.80856764 16.10450388
   2.39449660 11.25798448 16.70492282
  10.84255624 12.11889890 15.78132651
   7.44007413  2.87684161 12.33609348
   6.15361854  5.80527773 14.21655299
  13.51745416  2.31908636 13.08431835
  11.25397673  5.76934205 16.31237821
   7.30923329 13.61341972 15.78517137
  14.29571405  1.81805808 15.19363475
   0.01054690  5.87484400 14.93502486
   5.46907497  1.04036305 10.83701138
   1.06465574  5.52499032 12.76006742
   5.80108810 14.35308630 14.20296658
   0.44845032  3.86047292 16.10244126
   8.91310784 14.42359414 11.20699176
  10.47785972  0.37594508 14.36167113
  10.66167266  1.46128744 17.07991766
   4.94105643 10.98516611 12.86649081
  12.26500896  6.53974178 11.72332286
   2.29132485  7.20462160 11.59366323
   9.45299233  9.01493034 12.65182473
  11.73532480  3.73528135 13.86601786
   4.67628843  3.09089529 16.16684634
  12.43284859 13.02872128 10.43735310
   8.64172368 10.63941962 11.11151491
  12.38807553  6.01166038 14.10255231
  13.87888380  8.08788680 15.76483983
   4.33812628 10.05785874 10.88539618
   2.86803344  1.65764292 13.12856707
   2.70164609  4.15253134 15.58593462
   8.27613870  3.33392384 15.39913035
   2.82938895  4.07155850 13.21564075
  13.65939870  8.45477124 11.89897182
  10.55891101  3.54549880 15.92026908
  10.15944847 12.44178942 10.90978160
  13.49669821 12.95285546 13.23054550
  12.71891562  0.30210754 12.00978164
   8.88918100  4.97235894 11.49558673
   8.70590837  0.99859993 15.74815800
  12.39201730  0.56924746 15.78001711
  10.70884618  3.54763312 11.78899774
  11.78293280  8.28093105 14.74986147
   0.80913984  8.55476411 10.28409504
  11.74810627  9.56173020 12.77310246
   2.19378492  3.11006791 10.96139754
   7.32068839  0.40562067  9.56824461
   8.11853497 11.70235718 14.57551470
   4.88888077  4.87021642 12.46010038
   6.44147845  4.58405922 16.23312302
   3.07527701  0.94131471 10.86962145
   7.09706281 11.72821405 12.46927069
   2.02189811 12.83231049 14.53177022
   4.97183530  1.91057116 14.18756745
   8.23594711  4.96891868 13.69182399
   0.31339436  9.12917948 13.90883628
   9.76265438  7.45117811 15.47312468
   2.31578919  6.40378260 15.14483635
   4.43789282  9.34855647 14.42171405
   5.91834607  8.23767298 11.39280960
   4.05034699 12.98755379 13.50180505
   4.43445243  6.49252670 10.85952136
   6.27303539  8.09624571 13.80268521
   5.95551267  2.81161369 12.27278930
  13.29311286 13.03155303 15.58290579
   1.52714765  0.51427780 14.62658608
   6.79257120 14.03895849 12.07496655
   8.16064373  8.47502309 10.35585710
   9.89188045  7.07535291 11.41938326
  12.56298947  4.48181415 10.59635252
   2.03311966 10.15899751 11.41294134
  14.57330546  3.78297512 11.61806435
  11.55056382 11.85331685 12.73256930
   8.12187448  9.19412607 14.86783887
   2.50004099  8.25513725 13.72362612
  10.51097674  1.22447315 12.16477967
  10.25643624 12.58206757 14.48951173
   0.75079280 11.36673310 13.18530285



--------------------------------------------------------------------------------------------------------


 k-point     1 :   0.0000 0.0000 0.0000  plane waves:  532543
 k-point     2 :   0.5000 0.0000 0.0000  plane waves:  532866
 k-point     3 :   0.0000 0.5000 0.0000  plane waves:  532866
 k-point     4 :   0.5000 0.5000 0.0000  plane waves:  532788
 k-point     5 :   0.0000 0.0000 0.5000  plane waves:  532742
 k-point     6 :   0.5000 0.0000 0.5000  plane waves:  532788
 k-point     7 :   0.0000 0.5000 0.5000  plane waves:  532788
 k-point     8 :   0.5000 0.5000 0.5000  plane waves:  532880

 maximum and minimum number of plane-waves per node :     33402    33208

 maximum number of plane-waves:    532880
 maximum index in each direction: 
   IXMAX=   41   IYMAX=   41   IZMAX=   75
   IXMIN=  -41   IYMIN=  -41   IZMIN=  -75


 parallel 3D FFT for wavefunctions:
    minimum data exchange during FFTs selected (reduces bandwidth)
 parallel 3D FFT for charge:
    minimum data exchange during FFTs selected (reduces bandwidth)


 total amount of memory used by VASP MPI-rank0   396039. kBytes
=======================================================================

   base                                    :      30000. kBytes
   nonl-proj                               :      78387. kBytes
   fftplans                                :     102081. kBytes
   grid                                    :      78750. kBytes
   one-center                              :         18. kBytes
   wavefun                                 :     106803. kBytes

     INWAV:  cpu time     31.2965: real time     31.3182
 Broyden mixing: mesh for mixing (old mesh)
   NGX = 83   NGY = 83   NGZ =151
  (NGX  =336   NGY  =336   NGZ  =600)
  gives a total of ****** points

 initial charge density was supplied:
 number of electron     301.9999999 magnetization 
 keeping initial charge density in first step


--------------------------------------------------------------------------------------------------------


 Maximum index for augmentation-charges        11159 (set IRDMAX)


--------------------------------------------------------------------------------------------------------


 First call to EWALD:  gamma=   0.100
 Maximum number of real-space cells   3x   3x   2
 Maximum number of reciprocal cells   2x   2x   4

    FEWALD:  cpu time      0.0120: real time      0.0120


--------------------------------------- Ionic step        1  -------------------------------------------




--------------------------------------- Iteration      1(   1)  ---------------------------------------


    POTLOK:  cpu time      1.9780: real time      1.9795
    SETDIJ:  cpu time      1.4435: real time      1.4443
    EDDIAG:  cpu time     59.4377: real time     59.4705
     EDDAV:  cpu time    266.6861: real time    266.8438
       DOS:  cpu time      0.0108: real time      0.0112
    CHARGE:  cpu time     33.1020: real time     33.1324
    MIXING:  cpu time      0.0487: real time      0.0489
    --------------------------------------------
      LOOP:  cpu time    362.7069: real time    362.9305

 eigenvalue-minimisations  :  3200
 total energy-change (2. order) :-0.7673131E+03  (-0.8394646E+00)
 number of electron     301.9999999 magnetization 
 augmentation part      -16.4700303 magnetization 

 Broyden mixing:
  rms(total) = 0.10401E+01    rms(broyden)= 0.26537E+02
  rms(prec ) = 0.10751E+01
  weight for this iteration     100.00
  WARNING: grid for Broyden might be to small

 Free energy of the ion-electron system (eV)
  ---------------------------------------------------
  alpha Z        PSCENC =        34.17306597
  Ewald energy   TEWEN  =     41104.88770650
  -Hartree energ DENC   =    -47749.70464471
  -exchange      EXHF   =         0.00000000
  -V(xc)+E(xc)   XCENC  =      -328.41432040
  PAW double counting   =     27367.29961723   -26639.49254666
  entropy T*S    EENTRO =        -0.15277739
  eigenvalues    EBANDS =     -2204.67187442
  atomic energy  EATOM  =      7648.76263255
  Solvation  Ediel_sol  =         0.00000000
  ---------------------------------------------------
  free energy    TOTEN  =      -767.31314134 eV

  energy without entropy =     -767.16036395  energy(sigma->0) =     -767.23675264


--------------------------------------------------------------------------------------------------------




--------------------------------------- Iteration      1(   2)  ---------------------------------------


    POTLOK:  cpu time      1.9521: real time      1.9715
    SETDIJ:  cpu time      1.4485: real time      1.4497
    EDDIAG:  cpu time     59.4507: real time     59.4854
     EDDAV:  cpu time    269.4142: real time    269.5746
       DOS:  cpu time      0.0031: real time      0.0031
    CHARGE:  cpu time     32.9480: real time     32.9782
    MIXING:  cpu time      0.0415: real time      0.0417
    --------------------------------------------
      LOOP:  cpu time    365.2579: real time    365.5041

 eigenvalue-minimisations  :  3264
 total energy-change (2. order) : 0.5299535E+02  (-0.8206261E+00)
 number of electron     301.9999999 magnetization 
 augmentation part      -16.4086701 magnetization 

 Broyden mixing:
  rms(total) = 0.71046E+00    rms(broyden)= 0.15296E+02
  rms(prec ) = 0.72836E+00
  weight for this iteration     100.00
  WARNING: grid for Broyden might be to small

 eigenvalues of (default mixing * dielectric matrix)
  average eigenvalue GAMMA=   0.6344
  0.6344

 Free energy of the ion-electron system (eV)
  ---------------------------------------------------
  alpha Z        PSCENC =        34.17306597
  Ewald energy   TEWEN  =     41104.88770650
  -Hartree energ DENC   =    -47737.58202248
  -exchange      EXHF   =         0.00000000
  -V(xc)+E(xc)   XCENC  =      -321.00357232
  PAW double counting   =     32621.81653054   -31893.83496578
  entropy T*S    EENTRO =        -0.14541580
  eigenvalues    EBANDS =     -2171.39175198
  atomic energy  EATOM  =      7648.76263255
  Solvation  Ediel_sol  =         0.00000000
  ---------------------------------------------------
  free energy    TOTEN  =      -714.31779279 eV

  energy without entropy =     -714.17237700  energy(sigma->0) =     -714.24508490


--------------------------------------------------------------------------------------------------------




--------------------------------------- Iteration      1(   3)  ---------------------------------------


    POTLOK:  cpu time      1.9394: real time      1.9645
    SETDIJ:  cpu time      1.4452: real time      1.4461
    EDDIAG:  cpu time     59.4220: real time     59.4535
     EDDAV:  cpu time    267.5675: real time    267.7303
       DOS:  cpu time      0.0041: real time      0.0041
    CHARGE:  cpu time     32.9529: real time     32.9825
    MIXING:  cpu time      0.0394: real time      0.0394
    --------------------------------------------
      LOOP:  cpu time    363.3703: real time    363.6203

 eigenvalue-minimisations  :  3224
 total energy-change (2. order) :-0.2609490E+01  (-0.6696014E+00)
 number of electron     301.9999999 magnetization 
 augmentation part      -16.3591868 magnetization 

 Broyden mixing:
  rms(total) = 0.31231E+00    rms(broyden)= 0.20998E+02
  rms(prec ) = 0.38103E+00
  weight for this iteration     100.00
  WARNING: grid for Broyden might be to small

 eigenvalues of (default mixing * dielectric matrix)
  average eigenvalue GAMMA=   0.7500
  0.8738  0.6263

 Free energy of the ion-electron system (eV)
  ---------------------------------------------------
  alpha Z        PSCENC =        34.17306597
  Ewald energy   TEWEN  =     41104.88770650
  -Hartree energ DENC   =    -47737.39738369
  -exchange      EXHF   =         0.00000000
  -V(xc)+E(xc)   XCENC  =      -323.61793237
  PAW double counting   =     38585.89028600   -37858.02157552
  entropy T*S    EENTRO =        -0.15027527
  eigenvalues    EBANDS =     -2171.45380649
  atomic energy  EATOM  =      7648.76263255
  Solvation  Ediel_sol  =         0.00000000
  ---------------------------------------------------
  free energy    TOTEN  =      -716.92728232 eV

  energy without entropy =     -716.77700705  energy(sigma->0) =     -716.85214469


--------------------------------------------------------------------------------------------------------




--------------------------------------- Iteration      1(   4)  ---------------------------------------


    POTLOK:  cpu time      1.9414: real time      1.9680
    SETDIJ:  cpu time      1.4457: real time      1.4464
    EDDIAG:  cpu time     59.4593: real time     59.4913
     EDDAV:  cpu time    275.5203: real time    275.6809
       DOS:  cpu time      0.0046: real time      0.0046
    CHARGE:  cpu time     32.9739: real time     33.0037
    MIXING:  cpu time      0.0388: real time      0.0388
    --------------------------------------------
      LOOP:  cpu time    371.3841: real time    371.6336

 eigenvalue-minimisations  :  3392
 total energy-change (2. order) : 0.2547925E+00  (-0.6975149E-01)
 number of electron     301.9999999 magnetization 
 augmentation part      -16.3519695 magnetization 

 Broyden mixing:
  rms(total) = 0.65087E-01    rms(broyden)= 0.16509E+01
  rms(prec ) = 0.85576E-01
  weight for this iteration     100.00
  WARNING: grid for Broyden might be to small

 eigenvalues of (default mixing * dielectric matrix)
  average eigenvalue GAMMA=   1.0340
  1.8393  0.6581  0.6046

 Free energy of the ion-electron system (eV)
  ---------------------------------------------------
  alpha Z        PSCENC =        34.17306597
  Ewald energy   TEWEN  =     41104.88770650
  -Hartree energ DENC   =    -47739.43027758
  -exchange      EXHF   =         0.00000000
  -V(xc)+E(xc)   XCENC  =      -324.22858219
  PAW double counting   =     43698.71405615   -42970.89445255
  entropy T*S    EENTRO =        -0.14519032
  eigenvalues    EBANDS =     -2168.51144840
  atomic energy  EATOM  =      7648.76263255
  Solvation  Ediel_sol  =         0.00000000
  ---------------------------------------------------
  free energy    TOTEN  =      -716.67248987 eV

  energy without entropy =     -716.52729955  energy(sigma->0) =     -716.59989471


--------------------------------------------------------------------------------------------------------




--------------------------------------- Iteration      1(   5)  ---------------------------------------


    POTLOK:  cpu time      1.9568: real time      1.9861
    SETDIJ:  cpu time      1.4491: real time      1.4501
    EDDIAG:  cpu time     59.4112: real time     59.4436
     EDDAV:  cpu time    299.1913: real time    299.3673
       DOS:  cpu time      0.0041: real time      0.0041
    CHARGE:  cpu time     32.9473: real time     32.9781
    MIXING:  cpu time      0.0389: real time      0.0398
    --------------------------------------------
      LOOP:  cpu time    394.9987: real time    395.2693

 eigenvalue-minimisations  :  3904
 total energy-change (2. order) :-0.2272824E-01  (-0.9901639E-02)
 number of electron     301.9999999 magnetization 
 augmentation part      -16.3550035 magnetization 

 Broyden mixing:
  rms(total) = 0.44164E-01    rms(broyden)= 0.67143E+00
  rms(prec ) = 0.56328E-01
  weight for this iteration     100.00
  WARNING: grid for Broyden might be to small

 eigenvalues of (default mixing * dielectric matrix)
  average eigenvalue GAMMA=   1.1050
  2.5137  0.7852  0.6225  0.4984

 Free energy of the ion-electron system (eV)
  ---------------------------------------------------
  alpha Z        PSCENC =        34.17306597
  Ewald energy   TEWEN  =     41104.88770650
  -Hartree energ DENC   =    -47739.63355551
  -exchange      EXHF   =         0.00000000
  -V(xc)+E(xc)   XCENC  =      -325.17244824
  PAW double counting   =     43329.70151174   -42601.86099622
  entropy T*S    EENTRO =        -0.14961815
  eigenvalues    EBANDS =     -2167.40351676
  atomic energy  EATOM  =      7648.76263255
  Solvation  Ediel_sol  =         0.00000000
  ---------------------------------------------------
  free energy    TOTEN  =      -716.69521811 eV

  energy without entropy =     -716.54559996  energy(sigma->0) =     -716.62040903


--------------------------------------------------------------------------------------------------------




--------------------------------------- Iteration      1(   6)  ---------------------------------------


    POTLOK:  cpu time      1.9437: real time      1.9704
    SETDIJ:  cpu time      1.4490: real time      1.4502
    EDDIAG:  cpu time     59.4012: real time     59.4355
     EDDAV:  cpu time    278.5676: real time    278.7304
       DOS:  cpu time      0.0035: real time      0.0035
    CHARGE:  cpu time     32.9285: real time     32.9590
    MIXING:  cpu time      0.0394: real time      0.0394
    --------------------------------------------
      LOOP:  cpu time    374.3330: real time    374.5883

 eigenvalue-minimisations  :  3456
 total energy-change (2. order) :-0.2863511E-03  (-0.3464531E-02)
 number of electron     301.9999999 magnetization 
 augmentation part      -16.3541121 magnetization 

 Broyden mixing:
  rms(total) = 0.23597E-01    rms(broyden)= 0.29240E+00
  rms(prec ) = 0.25124E-01
  weight for this iteration     100.00
  WARNING: grid for Broyden might be to small

 eigenvalues of (default mixing * dielectric matrix)
  average eigenvalue GAMMA=   1.0638
  2.5745  0.9639  0.6648  0.6253  0.4904

 Free energy of the ion-electron system (eV)
  ---------------------------------------------------
  alpha Z        PSCENC =        34.17306597
  Ewald energy   TEWEN  =     41104.88770650
  -Hartree energ DENC   =    -47740.06040377
  -exchange      EXHF   =         0.00000000
  -V(xc)+E(xc)   XCENC  =      -325.37601074
  PAW double counting   =     43113.93528907   -42386.08072197
  entropy T*S    EENTRO =        -0.14795845
  eigenvalues    EBANDS =     -2166.78910362
  atomic energy  EATOM  =      7648.76263255
  Solvation  Ediel_sol  =         0.00000000
  ---------------------------------------------------
  free energy    TOTEN  =      -716.69550446 eV

  energy without entropy =     -716.54754601  energy(sigma->0) =     -716.62152523


--------------------------------------------------------------------------------------------------------




--------------------------------------- Iteration      1(   7)  ---------------------------------------


    POTLOK:  cpu time      1.9412: real time      1.9675
    SETDIJ:  cpu time      1.4481: real time      1.4487
    EDDIAG:  cpu time     59.4277: real time     59.4605
     EDDAV:  cpu time    276.6124: real time    276.7782
       DOS:  cpu time      0.0127: real time      0.0128
    CHARGE:  cpu time     32.9462: real time     32.9754
    MIXING:  cpu time      0.0548: real time      0.0554
    --------------------------------------------
      LOOP:  cpu time    372.4435: real time    372.6987

 eigenvalue-minimisations  :  3416
 total energy-change (2. order) :-0.5911907E-03  (-0.1008371E-02)
 number of electron     301.9999999 magnetization 
 augmentation part      -16.3523782 magnetization 

 Broyden mixing:
  rms(total) = 0.11396E-01    rms(broyden)= 0.64164E-01
  rms(prec ) = 0.12181E-01
  weight for this iteration     100.00
  WARNING: grid for Broyden might be to small

 eigenvalues of (default mixing * dielectric matrix)
  average eigenvalue GAMMA=   1.0587
  2.5606  1.2927  0.7767  0.6148  0.6148  0.4923

 Free energy of the ion-electron system (eV)
  ---------------------------------------------------
  alpha Z        PSCENC =        34.17306597
  Ewald energy   TEWEN  =     41104.88770650
  -Hartree energ DENC   =    -47740.09803665
  -exchange      EXHF   =         0.00000000
  -V(xc)+E(xc)   XCENC  =      -325.27692493
  PAW double counting   =     43117.67597251   -42389.80999601
  entropy T*S    EENTRO =        -0.14775297
  eigenvalues    EBANDS =     -2166.86276261
  atomic energy  EATOM  =      7648.76263255
  Solvation  Ediel_sol  =         0.00000000
  ---------------------------------------------------
  free energy    TOTEN  =      -716.69609565 eV

  energy without entropy =     -716.54834268  energy(sigma->0) =     -716.62221916


--------------------------------------------------------------------------------------------------------




--------------------------------------- Iteration      1(   8)  ---------------------------------------


    POTLOK:  cpu time      1.9472: real time      1.9694
    SETDIJ:  cpu time      1.5106: real time      1.5125
    EDDIAG:  cpu time     59.4274: real time     59.4604
     EDDAV:  cpu time    285.3877: real time    285.5598
       DOS:  cpu time      0.0034: real time      0.0034
    CHARGE:  cpu time     32.9714: real time     33.0040
    MIXING:  cpu time      0.0407: real time      0.0407
    --------------------------------------------
      LOOP:  cpu time    381.2881: real time    381.5498

 eigenvalue-minimisations  :  3608
 total energy-change (2. order) :-0.7703354E-03  (-0.2478962E-03)
 number of electron     301.9999999 magnetization 
 augmentation part      -16.3516910 magnetization 

 Broyden mixing:
  rms(total) = 0.36163E-02    rms(broyden)= 0.51398E-01
  rms(prec ) = 0.43234E-02
  weight for this iteration     100.00
  WARNING: grid for Broyden might be to small

 eigenvalues of (default mixing * dielectric matrix)
  average eigenvalue GAMMA=   1.0860
  2.5432  1.7012  0.9269  0.7075  0.4839  0.6195  0.6195

 Free energy of the ion-electron system (eV)
  ---------------------------------------------------
  alpha Z        PSCENC =        34.17306597
  Ewald energy   TEWEN  =     41104.88770650
  -Hartree energ DENC   =    -47739.98526881
  -exchange      EXHF   =         0.00000000
  -V(xc)+E(xc)   XCENC  =      -325.19361753
  PAW double counting   =     43152.08193754   -42424.20697123
  entropy T*S    EENTRO =        -0.14787100
  eigenvalues    EBANDS =     -2167.06847998
  atomic energy  EATOM  =      7648.76263255
  Solvation  Ediel_sol  =         0.00000000
  ---------------------------------------------------
  free energy    TOTEN  =      -716.69686598 eV

  energy without entropy =     -716.54899499  energy(sigma->0) =     -716.62293049


--------------------------------------------------------------------------------------------------------




--------------------------------------- Iteration      1(   9)  ---------------------------------------


    POTLOK:  cpu time      1.9417: real time      1.9689
    SETDIJ:  cpu time      1.4488: real time      1.4496
    EDDIAG:  cpu time     59.4212: real time     59.4538
     EDDAV:  cpu time    283.9792: real time    284.1446
       DOS:  cpu time      0.0054: real time      0.0054
    CHARGE:  cpu time     32.9229: real time     32.9543
    MIXING:  cpu time      0.0409: real time      0.0409
    --------------------------------------------
      LOOP:  cpu time    379.7605: real time    380.0179

 eigenvalue-minimisations  :  3576
 total energy-change (2. order) :-0.9461253E-04  (-0.5744330E-04)
 number of electron     301.9999999 magnetization 
 augmentation part      -16.3518666 magnetization 

 Broyden mixing:
  rms(total) = 0.21739E-02    rms(broyden)= 0.29941E-01
  rms(prec ) = 0.25432E-02
  weight for this iteration     100.00
  WARNING: grid for Broyden might be to small

 eigenvalues of (default mixing * dielectric matrix)
  average eigenvalue GAMMA=   1.1544
  2.5217  2.5217  1.0552  0.7785  0.4705  0.6861  0.6309  0.5703

 Free energy of the ion-electron system (eV)
  ---------------------------------------------------
  alpha Z        PSCENC =        34.17306597
  Ewald energy   TEWEN  =     41104.88770650
  -Hartree energ DENC   =    -47739.83464011
  -exchange      EXHF   =         0.00000000
  -V(xc)+E(xc)   XCENC  =      -325.21197889
  PAW double counting   =     43161.02285492   -42433.14574836
  entropy T*S    EENTRO =        -0.14800404
  eigenvalues    EBANDS =     -2167.20284914
  atomic energy  EATOM  =      7648.76263255
  Solvation  Ediel_sol  =         0.00000000
  ---------------------------------------------------
  free energy    TOTEN  =      -716.69696060 eV

  energy without entropy =     -716.54895656  energy(sigma->0) =     -716.62295858


--------------------------------------------------------------------------------------------------------




--------------------------------------- Iteration      1(  10)  ---------------------------------------


    POTLOK:  cpu time      1.9473: real time      1.9699
    SETDIJ:  cpu time      1.4438: real time      1.4451
    EDDIAG:  cpu time     59.4168: real time     59.4505
     EDDAV:  cpu time    277.5241: real time    277.6942
       DOS:  cpu time      0.0049: real time      0.0049
    CHARGE:  cpu time     32.9268: real time     32.9594
    MIXING:  cpu time      0.0416: real time      0.0416
    --------------------------------------------
      LOOP:  cpu time    373.3050: real time    373.5654

 eigenvalue-minimisations  :  3440
 total energy-change (2. order) :-0.3169803E-04  (-0.3384919E-04)
 number of electron     301.9999999 magnetization 
 augmentation part      -16.3519163 magnetization 

 Broyden mixing:
  rms(total) = 0.12636E-02    rms(broyden)= 0.82659E-02
  rms(prec ) = 0.14639E-02
  weight for this iteration     100.00
  WARNING: grid for Broyden might be to small

 eigenvalues of (default mixing * dielectric matrix)
  average eigenvalue GAMMA=   1.1507
  2.6659  2.6659  1.0551  0.9023  0.4687  0.6969  0.6969  0.6255  0.5787

 Free energy of the ion-electron system (eV)
  ---------------------------------------------------
  alpha Z        PSCENC =        34.17306597
  Ewald energy   TEWEN  =     41104.88770650
  -Hartree energ DENC   =    -47739.67952925
  -exchange      EXHF   =         0.00000000
  -V(xc)+E(xc)   XCENC  =      -325.21846486
  PAW double counting   =     43160.51936791   -42432.64105608
  entropy T*S    EENTRO =        -0.14793285
  eigenvalues    EBANDS =     -2167.35278218
  atomic energy  EATOM  =      7648.76263255
  Solvation  Ediel_sol  =         0.00000000
  ---------------------------------------------------
  free energy    TOTEN  =      -716.69699229 eV

  energy without entropy =     -716.54905945  energy(sigma->0) =     -716.62302587


--------------------------------------------------------------------------------------------------------




--------------------------------------- Iteration      1(  11)  ---------------------------------------


    POTLOK:  cpu time      1.9368: real time      1.9671
    SETDIJ:  cpu time      1.4501: real time      1.4510
    EDDIAG:  cpu time     59.4211: real time     59.4532
     EDDAV:  cpu time    273.8739: real time    274.0340
       DOS:  cpu time      0.0128: real time      0.0132
    CHARGE:  cpu time     32.9345: real time     32.9660
    MIXING:  cpu time      0.0572: real time      0.0583
    --------------------------------------------
      LOOP:  cpu time    369.6866: real time    369.9429

 eigenvalue-minimisations  :  3360
 total energy-change (2. order) :-0.1057261E-03  (-0.3114800E-04)
 number of electron     301.9999999 magnetization 
 augmentation part      -16.3520044 magnetization 

 Broyden mixing:
  rms(total) = 0.54942E-03    rms(broyden)= 0.45749E-02
  rms(prec ) = 0.74723E-03
  weight for this iteration     100.00
  WARNING: grid for Broyden might be to small

 eigenvalues of (default mixing * dielectric matrix)
  average eigenvalue GAMMA=   1.1840
  2.7643  2.7643  1.3604  1.0892  0.8476  0.4690  0.7075  0.6334  0.6020  0.6020

 Free energy of the ion-electron system (eV)
  ---------------------------------------------------
  alpha Z        PSCENC =        34.17306597
  Ewald energy   TEWEN  =     41104.88770650
  -Hartree energ DENC   =    -47739.48064070
  -exchange      EXHF   =         0.00000000
  -V(xc)+E(xc)   XCENC  =      -325.22564357
  PAW double counting   =     43157.29777301   -42429.41837712
  entropy T*S    EENTRO =        -0.14795596
  eigenvalues    EBANDS =     -2167.54565870
  atomic energy  EATOM  =      7648.76263255
  Solvation  Ediel_sol  =         0.00000000
  ---------------------------------------------------
  free energy    TOTEN  =      -716.69709802 eV

  energy without entropy =     -716.54914206  energy(sigma->0) =     -716.62312004


--------------------------------------------------------------------------------------------------------




--------------------------------------- Iteration      1(  12)  ---------------------------------------


    POTLOK:  cpu time      1.9575: real time      2.0093
    SETDIJ:  cpu time      1.4612: real time      1.4622
    EDDIAG:  cpu time     59.4180: real time     59.4511
     EDDAV:  cpu time    272.3022: real time    272.4614
       DOS:  cpu time      0.0053: real time      0.0053
    CHARGE:  cpu time     32.9381: real time     32.9682
    MIXING:  cpu time      0.0453: real time      0.0453
    --------------------------------------------
      LOOP:  cpu time    368.1276: real time    368.4029

 eigenvalue-minimisations  :  3328
 total energy-change (2. order) :-0.1056972E-03  (-0.1844203E-04)
 number of electron     301.9999999 magnetization 
 augmentation part      -16.3520571 magnetization 

 Broyden mixing:
  rms(total) = 0.34516E-03    rms(broyden)= 0.27473E-02
  rms(prec ) = 0.51519E-03
  weight for this iteration     100.00
  WARNING: grid for Broyden might be to small

 eigenvalues of (default mixing * dielectric matrix)
  average eigenvalue GAMMA=   1.1935
  2.9012  2.7395  1.7594  1.1056  0.8496  0.4698  0.7526  0.7271  0.6165  0.6035
  0.6035

 Free energy of the ion-electron system (eV)
  ---------------------------------------------------
  alpha Z        PSCENC =        34.17306597
  Ewald energy   TEWEN  =     41104.88770650
  -Hartree energ DENC   =    -47739.35911218
  -exchange      EXHF   =         0.00000000
  -V(xc)+E(xc)   XCENC  =      -325.23198333
  PAW double counting   =     43157.75911904   -42429.87971311
  entropy T*S    EENTRO =        -0.14795383
  eigenvalues    EBANDS =     -2167.66096534
  atomic energy  EATOM  =      7648.76263255
  Solvation  Ediel_sol  =         0.00000000
  ---------------------------------------------------
  free energy    TOTEN  =      -716.69720372 eV

  energy without entropy =     -716.54924989  energy(sigma->0) =     -716.62322680


--------------------------------------------------------------------------------------------------------




--------------------------------------- Iteration      1(  13)  ---------------------------------------


    POTLOK:  cpu time      1.9446: real time      1.9696
    SETDIJ:  cpu time      1.4450: real time      1.4458
    EDDIAG:  cpu time     59.4232: real time     59.4551
     EDDAV:  cpu time    272.3394: real time    272.5013
       DOS:  cpu time      0.0050: real time      0.0050
    CHARGE:  cpu time     32.9346: real time     32.9654
    MIXING:  cpu time      0.0454: real time      0.0454
    --------------------------------------------
      LOOP:  cpu time    368.1372: real time    368.3875

 eigenvalue-minimisations  :  3328
 total energy-change (2. order) :-0.1011730E-03  (-0.1776129E-04)
 number of electron     301.9999999 magnetization 
 augmentation part      -16.3520846 magnetization 

 Broyden mixing:
  rms(total) = 0.22946E-03    rms(broyden)= 0.16841E-02
  rms(prec ) = 0.36932E-03
  weight for this iteration     100.00
  WARNING: grid for Broyden might be to small

 eigenvalues of (default mixing * dielectric matrix)
  average eigenvalue GAMMA=   1.2316
  3.1537  2.6960  2.1670  1.2326  1.0074  0.8926  0.7280  0.4699  0.6453  0.6188
  0.5841  0.5841

 Free energy of the ion-electron system (eV)
  ---------------------------------------------------
  alpha Z        PSCENC =        34.17306597
  Ewald energy   TEWEN  =     41104.88770650
  -Hartree energ DENC   =    -47739.25768794
  -exchange      EXHF   =         0.00000000
  -V(xc)+E(xc)   XCENC  =      -325.23619201
  PAW double counting   =     43158.06533986   -42430.18614505
  entropy T*S    EENTRO =        -0.14795990
  eigenvalues    EBANDS =     -2167.75806487
  atomic energy  EATOM  =      7648.76263255
  Solvation  Ediel_sol  =         0.00000000
  ---------------------------------------------------
  free energy    TOTEN  =      -716.69730489 eV

  energy without entropy =     -716.54934499  energy(sigma->0) =     -716.62332494


--------------------------------------------------------------------------------------------------------




--------------------------------------- Iteration      1(  14)  ---------------------------------------


    POTLOK:  cpu time      1.9672: real time      1.9683
    SETDIJ:  cpu time      1.4415: real time      1.4421
    EDDIAG:  cpu time     59.4080: real time     59.4408
     EDDAV:  cpu time    272.3985: real time    272.5558
       DOS:  cpu time      0.0030: real time      0.0030
    CHARGE:  cpu time     32.9244: real time     32.9545
    MIXING:  cpu time      0.0453: real time      0.0453
    --------------------------------------------
      LOOP:  cpu time    368.1879: real time    368.4098

 eigenvalue-minimisations  :  3328
 total energy-change (2. order) :-0.1461151E-03  (-0.2916067E-04)
 number of electron     301.9999999 magnetization 
 augmentation part      -16.3521174 magnetization 

 Broyden mixing:
  rms(total) = 0.14074E-03    rms(broyden)= 0.14425E-02
  rms(prec ) = 0.23309E-03
  weight for this iteration     100.00
  WARNING: grid for Broyden might be to small

 eigenvalues of (default mixing * dielectric matrix)
  average eigenvalue GAMMA=   1.2680
  3.4010  2.6532  2.5123  1.4533  1.0739  0.9294  0.8502  0.7269  0.4698  0.6292
  0.6097  0.5878  0.5878

 Free energy of the ion-electron system (eV)
  ---------------------------------------------------
  alpha Z        PSCENC =        34.17306597
  Ewald energy   TEWEN  =     41104.88770650
  -Hartree energ DENC   =    -47739.12085187
  -exchange      EXHF   =         0.00000000
  -V(xc)+E(xc)   XCENC  =      -325.23988823
  PAW double counting   =     43157.65144754   -42429.77248083
  entropy T*S    EENTRO =        -0.14795531
  eigenvalues    EBANDS =     -2167.89112732
  atomic energy  EATOM  =      7648.76263255
  Solvation  Ediel_sol  =         0.00000000
  ---------------------------------------------------
  free energy    TOTEN  =      -716.69745101 eV

  energy without entropy =     -716.54949569  energy(sigma->0) =     -716.62347335


--------------------------------------------------------------------------------------------------------




--------------------------------------- Iteration      1(  15)  ---------------------------------------


    POTLOK:  cpu time      1.9573: real time      1.9625
    SETDIJ:  cpu time      1.4449: real time      1.4456
    EDDIAG:  cpu time     59.4195: real time     59.4520
     EDDAV:  cpu time    278.4076: real time    278.5633
       DOS:  cpu time      0.0044: real time      0.0045
    CHARGE:  cpu time     32.9352: real time     32.9641
    MIXING:  cpu time      0.0454: real time      0.0461
    --------------------------------------------
      LOOP:  cpu time    374.2144: real time    374.4382

 eigenvalue-minimisations  :  3456
 total energy-change (2. order) :-0.1152751E-03  (-0.1674812E-04)
 number of electron     301.9999999 magnetization 
 augmentation part      -16.3521368 magnetization 

 Broyden mixing:
  rms(total) = 0.97446E-04    rms(broyden)= 0.11751E-02
  rms(prec ) = 0.15531E-03
  weight for this iteration     100.00
  WARNING: grid for Broyden might be to small

 eigenvalues of (default mixing * dielectric matrix)
  average eigenvalue GAMMA=   1.3284
  3.9272  2.7023  2.7023  1.7485  1.1766  0.9818  0.9818  0.7896  0.4697  0.6999
  0.5921  0.5921  0.6169  0.6169

 Free energy of the ion-electron system (eV)
  ---------------------------------------------------
  alpha Z        PSCENC =        34.17306597
  Ewald energy   TEWEN  =     41104.88770650
  -Hartree energ DENC   =    -47739.03281979
  -exchange      EXHF   =         0.00000000
  -V(xc)+E(xc)   XCENC  =      -325.24117794
  PAW double counting   =     43157.86354615   -42429.98473156
  entropy T*S    EENTRO =        -0.14796031
  eigenvalues    EBANDS =     -2167.97782785
  atomic energy  EATOM  =      7648.76263255
  Solvation  Ediel_sol  =         0.00000000
  ---------------------------------------------------
  free energy    TOTEN  =      -716.69756628 eV

  energy without entropy =     -716.54960597  energy(sigma->0) =     -716.62358613


--------------------------------------------------------------------------------------------------------




--------------------------------------- Iteration      1(  16)  ---------------------------------------


    POTLOK:  cpu time      1.9644: real time      1.9652
    SETDIJ:  cpu time      1.4385: real time      1.4395
    EDDIAG:  cpu time     59.4174: real time     59.4476
     EDDAV:  cpu time    272.5177: real time    272.6766
       DOS:  cpu time      0.0035: real time      0.0035
    CHARGE:  cpu time     32.9337: real time     32.9648
    MIXING:  cpu time      0.0469: real time      0.0469
    --------------------------------------------
      LOOP:  cpu time    368.3222: real time    368.5442

 eigenvalue-minimisations  :  3328
 total energy-change (2. order) :-0.6858634E-04  (-0.1239705E-04)
 number of electron     301.9999999 magnetization 
 augmentation part      -16.3521567 magnetization 

 Broyden mixing:
  rms(total) = 0.58804E-04    rms(broyden)= 0.13367E-02
  rms(prec ) = 0.92462E-04
  weight for this iteration     100.00
  WARNING: grid for Broyden might be to small

 eigenvalues of (default mixing * dielectric matrix)
  average eigenvalue GAMMA=   1.4225
  5.0773  2.8553  2.7673  2.0599  1.3972  1.0865  0.8774  0.8774  0.4697  0.7760
  0.5897  0.5897  0.6585  0.6382  0.6168

[...]
   -.254E-01 -.753E+01 -.675E+02   -.892E+00 0.619E+01 0.677E+02   0.662E+00 0.140E+01 0.422E-01   0.121E-04 0.162E-05 -.194E-04
   -.204E+02 -.499E+02 -.289E+03   0.208E+02 0.504E+02 0.292E+03   -.206E+00 -.692E+00 -.197E+01   -.483E-06 -.120E-04 -.108E-04
   0.742E+01 -.257E+02 0.277E+03   -.665E+01 0.289E+02 -.277E+03   -.781E+00 -.278E+01 -.339E+00   -.186E-04 0.206E-04 -.346E-06
   0.237E+02 0.383E+02 0.263E+02   -.218E+02 -.396E+02 -.250E+02   -.173E+01 0.127E+01 -.113E+01   0.973E-05 -.106E-04 -.276E-04
   -.158E+02 0.481E+01 -.256E+03   0.155E+02 -.582E+01 0.254E+03   0.466E+00 0.652E+00 0.224E+01   0.714E-05 0.151E-05 -.940E-05
   0.255E+02 0.964E+01 -.196E+03   -.249E+02 -.746E+01 0.197E+03   -.688E+00 -.228E+01 -.196E-01   -.250E-04 0.138E-04 -.950E-05
   -.523E+01 0.399E+01 0.190E+02   0.646E+01 -.263E+01 -.199E+02   -.885E+00 -.108E+01 0.854E+00   -.631E-06 -.206E-05 -.290E-04
   0.192E+01 -.260E+02 0.177E+03   -.898E+00 0.260E+02 -.177E+03   -.902E+00 0.169E-01 0.478E+00   0.120E-04 -.165E-04 -.330E-04
   -.355E+01 -.110E+02 -.257E+03   0.227E+01 0.118E+02 0.256E+03   0.124E+01 -.836E+00 0.143E+01   -.183E-04 0.216E-04 -.211E-04
   -.518E+01 0.108E+02 0.266E+03   0.668E+01 -.922E+01 -.267E+03   -.131E+01 -.108E+01 -.607E+00   0.113E-04 0.147E-04 -.311E-04
   -.499E+02 0.733E+01 0.318E+02   0.485E+02 -.799E+01 -.295E+02   0.208E+01 0.611E+00 -.193E+01   0.193E-04 -.179E-05 -.357E-04
   -.471E+02 -.122E+01 0.178E+03   0.463E+02 0.525E+00 -.178E+03   0.593E+00 0.102E+01 0.115E+00   -.262E-05 0.862E-05 -.426E-04
   0.336E+02 0.118E+02 0.235E+03   -.353E+02 -.122E+02 -.235E+03   0.106E+01 0.134E+00 -.417E+00   0.677E-05 -.859E-05 -.271E-04
   0.458E+02 0.157E+02 -.232E+03   -.433E+02 -.161E+02 0.231E+03   -.261E+01 0.443E+00 0.149E+01   -.384E-04 0.106E-04 -.719E-05
   -.282E+02 0.187E+02 -.249E+03   0.280E+02 -.202E+02 0.249E+03   0.287E+00 0.128E+01 0.507E+00   0.153E-04 0.108E-04 -.136E-04
   0.228E+02 0.169E+02 0.201E+03   -.216E+02 -.142E+02 -.199E+03   -.894E+00 -.227E+01 -.184E+01   0.434E-05 0.810E-05 -.384E-04
   0.227E+01 -.572E+02 -.171E+03   -.280E+01 0.565E+02 0.172E+03   0.482E+00 0.841E+00 -.121E+01   0.412E-05 -.322E-05 -.550E-05
   0.191E+02 -.132E+02 0.325E+03   -.182E+02 0.132E+02 -.327E+03   -.107E+01 0.185E+00 0.112E+01   -.114E-05 -.719E-05 -.216E-04
   -.176E+02 -.232E+02 0.706E+02   0.171E+02 0.233E+02 -.695E+02   0.586E+00 -.203E+00 -.138E+01   -.244E-05 -.105E-04 -.173E-04
   0.755E+01 0.487E+01 0.285E+03   -.517E+01 -.461E+01 -.286E+03   -.199E+01 -.571E-01 0.113E+01   -.147E-05 0.108E-05 -.243E-04
   -.283E+01 -.116E+02 0.343E+03   0.197E+01 0.903E+01 -.347E+03   0.515E+00 0.197E+01 0.284E+01   0.516E-05 0.139E-04 -.260E-04
   0.156E+02 0.227E+02 -.166E+03   -.144E+02 -.223E+02 0.163E+03   -.876E+00 -.546E+00 0.216E+01   -.220E-04 -.115E-04 -.715E-05
   -.152E+02 -.992E+01 0.117E+03   0.143E+02 0.106E+02 -.116E+03   0.709E+00 -.634E+00 -.370E+00   0.308E-05 -.159E-04 -.245E-05
   0.851E+01 -.360E+02 -.305E+03   -.804E+01 0.360E+02 0.304E+03   -.256E+00 -.120E+00 0.112E+01   0.363E-05 0.277E-05 -.200E-05
   0.357E+02 0.519E+02 0.273E+03   -.391E+02 -.535E+02 -.274E+03   0.288E+01 0.102E+01 0.407E+00   0.302E-05 0.347E-06 -.685E-05
   0.154E+02 0.612E+01 0.971E+02   -.168E+02 -.587E+01 -.955E+02   0.980E+00 -.168E+00 -.167E+01   -.224E-04 -.144E-05 -.737E-05
   -.194E+01 0.172E+02 -.145E+03   0.319E+01 -.155E+02 0.141E+03   -.167E+01 -.633E+00 0.285E+01   0.208E-04 0.354E-05 -.180E-04
   -.251E+01 0.191E+02 -.112E+03   0.331E+01 -.194E+02 0.111E+03   -.711E+00 0.403E+00 0.167E+01   -.814E-05 -.983E-06 -.165E-04
   0.328E+01 -.116E+01 -.192E+02   -.505E+01 0.215E+01 0.173E+02   0.176E+01 -.593E+00 0.164E+01   -.746E-05 -.549E-05 -.120E-04
   -.474E+01 -.440E+02 -.890E+02   0.477E+01 0.422E+02 0.892E+02   -.146E+00 0.152E+01 -.244E+00   0.789E-05 -.870E-05 -.105E-04
   0.329E+02 -.281E+02 -.243E+03   -.317E+02 0.292E+02 0.245E+03   -.111E+01 -.143E+01 -.141E+01   -.598E-05 0.521E-05 -.829E-05
   -.421E+02 -.447E+02 -.228E+03   0.411E+02 0.452E+02 0.228E+03   0.642E+00 -.365E+00 -.211E+00   -.702E-06 -.310E-05 -.107E-04
   0.126E+02 -.134E+02 -.159E+03   -.110E+02 0.141E+02 0.159E+03   -.142E+01 -.599E+00 0.497E+00   -.235E-05 0.979E-05 -.123E-04
   -.796E+01 0.331E+01 0.208E+03   0.549E+01 -.443E+01 -.207E+03   0.222E+01 0.108E+01 -.129E+01   0.276E-05 0.901E-05 -.599E-05
   0.218E+02 0.116E+02 -.381E+02   -.223E+02 -.129E+02 0.355E+02   0.596E+00 0.108E+01 0.243E+01   -.693E-05 0.309E-05 -.151E-04
   -.963E+01 0.145E+02 0.282E+03   0.972E+01 -.151E+02 -.282E+03   -.132E+00 0.214E+00 -.238E-01   -.539E-05 -.389E-05 0.841E-05
   0.103E+01 -.221E+01 -.712E+02   -.264E+01 0.247E+01 0.724E+02   0.154E+01 -.265E+00 -.122E+01   -.821E-07 0.807E-06 -.465E-05
   -.150E+02 -.122E+02 0.139E+03   0.158E+02 0.109E+02 -.137E+03   -.571E+00 0.132E+01 -.144E+01   -.110E-04 0.544E-05 -.143E-04
   -.135E+02 0.541E+02 -.241E+03   0.133E+02 -.531E+02 0.240E+03   0.130E+00 -.964E+00 0.150E+00   0.270E-04 0.142E-05 -.179E-04
   -.138E+02 0.283E+02 -.145E+03   0.137E+02 -.282E+02 0.144E+03   -.375E-01 -.669E+00 0.687E+00   0.267E-04 -.897E-05 -.201E-04
   0.143E+02 0.623E+01 0.130E+03   -.131E+02 -.742E+01 -.128E+03   -.913E+00 0.693E+00 -.190E+01   -.248E-04 -.428E-05 -.215E-04
   0.932E+01 0.175E+02 0.311E+03   -.876E+01 -.171E+02 -.314E+03   -.417E+00 -.170E+00 0.225E+01   0.255E-05 -.979E-05 -.370E-05
   -.305E+01 0.245E+01 0.223E+03   0.215E+01 -.454E+01 -.221E+03   0.104E+01 0.152E+01 -.250E+01   0.315E-05 -.189E-04 -.230E-04
   -.483E+01 0.113E+02 0.315E+03   0.464E+01 -.103E+02 -.317E+03   0.100E+00 -.935E+00 0.126E+01   -.193E-05 -.549E-06 -.337E-04
   0.690E+01 -.637E+02 0.205E+03   -.712E+01 0.591E+02 -.206E+03   0.302E+00 0.397E+01 0.135E+01   0.822E-05 0.969E-05 -.234E-04
   -.454E+01 0.225E+02 0.218E+03   0.354E+01 -.215E+02 -.216E+03   0.694E+00 -.104E+01 -.186E+01   0.464E-05 0.875E-05 -.341E-04
   -.217E+02 0.203E+02 0.651E+02   0.221E+02 -.206E+02 -.624E+02   -.429E+00 -.119E+00 -.259E+01   0.653E-05 -.579E-05 -.338E-04
   0.411E+01 -.158E+02 -.182E+03   -.841E+01 0.144E+02 0.185E+03   0.358E+01 0.120E+01 -.240E+01   -.115E-05 0.520E-06 -.105E-04
   -.185E+02 -.312E+02 -.701E+02   0.179E+02 0.307E+02 0.698E+02   0.826E+00 0.779E+00 0.411E+00   0.396E-05 0.651E-05 -.138E-04
   0.123E+02 -.120E+02 0.151E+03   -.115E+02 0.105E+02 -.152E+03   -.646E+00 0.135E+01 0.473E+00   0.407E-05 0.195E-04 -.441E-04
   0.115E+01 0.241E+02 -.135E+03   -.208E+01 -.258E+02 0.136E+03   0.499E+00 0.177E+01 -.109E+01   -.187E-04 -.153E-04 -.155E-04
   -.638E+01 -.179E+02 0.284E+02   0.623E+01 0.183E+02 -.277E+02   0.333E+00 -.157E-01 -.102E+01   0.283E-04 0.462E-05 -.253E-04
 -----------------------------------------------------------------------------------------------
   0.862E+01 -.103E+02 0.484E+01   -.117E-12 0.639E-13 -.119E-11   -.862E+01 0.103E+02 -.484E+01   -.801E-04 0.927E-04 -.133E-02


 POSITION                                       TOTAL-FORCE (eV/Angst)
 -----------------------------------------------------------------------------------
      9.12243      6.19008     14.41102        -0.146870     -0.136975     -0.078932
      6.72443     13.33351     17.11438        -0.113648      0.052866      0.094530
      4.43789      9.74846     15.84634        -0.029580     -0.018741      0.182446
      7.59646      9.23409     16.30416        -0.008862      0.114200     -0.263363
      3.68762     13.54003     12.15435        -0.036630      0.197081     -0.167728
     14.56273     12.89425     16.36102         0.174469     -0.064260     -0.027000
      2.38880     11.80857     16.10450         0.033033     -0.922752      1.210210
      2.39450     11.25798     16.70492         0.089989      0.485464     -0.528620
     10.84256     12.11890     15.78133         0.209091      0.090346      0.063539
      7.44007      2.87684     12.33609         0.043071     -0.019478      0.118290
      6.15362      5.80528     14.21655        -0.089250      0.185601     -0.023365
     13.51745      2.31909     13.08432         0.005331     -0.001244     -0.077897
     11.25398      5.76934     16.31238         0.104799      0.101507      0.089543
      7.30923     13.61342     15.78517         0.039655     -0.042414     -0.027723
     14.29571      1.81806     15.19363         0.085852     -0.205115      0.090173
      0.01055      5.87484     14.93502         0.235420     -0.171711      0.277380
      5.46907      1.04036     10.83701        -0.020436      0.565031     -0.024879
      1.06466      5.52499     12.76007         0.110601      0.087273     -0.188303
      5.80109     14.35309     14.20297        -0.218047     -0.029959     -0.053134
      0.44845      3.86047     16.10244         0.053358      0.258865      0.223742
      8.91311     14.42359     11.20699         0.111865      0.395178      0.306483
     10.47786      0.37595     14.36167        -0.079989      0.176838      0.312099
     10.66167      1.46129     17.07992        -0.089844      0.270335     -0.262075
      4.94106     10.98517     12.86649         0.117667      0.078543      0.175909
     12.26501      6.53974     11.72332        -0.052596      0.064442     -0.277432
      2.29132      7.20462     11.59366        -0.034572      0.169804     -0.005527
      9.45299      9.01493     12.65182        -0.004034      0.109641      0.183210
     11.73532      3.73528     13.86602        -0.331108     -0.158106      0.212566
      4.67629      3.09090     16.16685         0.225304      0.200698     -0.109845
     12.43285     13.02872     10.43735         0.097053     -0.665362      0.199175
      8.64172     10.63942     11.11151        -0.082985     -0.162552     -0.101739
     12.38808      6.01166     14.10255        -0.169245      0.131361      0.316212
     13.87888      8.08789     15.76484         0.082943     -0.216118      0.291327
      4.33813     10.05786     10.88540        -0.077792      0.277324     -0.120172
      2.86803      1.65764     13.12857         0.056721      0.101272      0.063415
      2.70165      4.15253     15.58593         0.124911     -0.240139      0.349236
      8.27614      3.33392     15.39913        -0.058170     -0.212400      0.268597
      2.82939      4.07156     13.21564         0.287899      0.220837     -0.100857
     13.65940      8.45477     11.89897         0.040988     -0.001776     -0.155465
     10.55891      3.54550     15.92027         0.009743     -0.050155      0.392463
     10.15945     12.44179     10.90978         0.132450      0.497248     -0.595846
     13.49670     12.95286     13.23055         0.670057     -0.072735      0.278997
     12.71892      0.30211     12.00978        -0.240726      0.341059     -0.027173
      8.88918      4.97236     11.49559        -0.356456     -0.139494     -0.285487
      8.70591      0.99860     15.74816        -0.140403      0.054096      0.130484
     12.39202      0.56925     15.78002         0.074155     -0.167115      0.150992
     10.70885      3.54763     11.78900         0.337169      0.306671     -0.038774
     11.78293      8.28093     14.74986        -0.013734      0.054100     -0.288710
      0.80914      8.55476     10.28410        -0.146412      0.278980     -0.192201
     11.74811      9.56173     12.77310         0.098804     -0.081926     -0.356456
      2.19378      3.11007     10.96140         0.209897      0.075548      0.527658
      7.32069      0.40562      9.56824        -0.353231     -0.488273     -0.104913
      8.11853     11.70236     14.57551         0.244880     -0.083038     -0.119577
      4.88888      4.87022     12.46010        -0.183940      0.020747     -0.046292
      6.44148      4.58406     16.23312         0.136881     -0.285335     -0.179241
      3.07528      0.94131     10.86962        -0.205623     -0.366162     -0.311800
      7.09706     11.72821     12.46927        -0.392156      0.081672     -0.064407
      2.02190     12.83231     14.53177        -0.459571      1.095110     -0.614445
      4.97184      1.91057     14.18757         0.021959      0.112906     -0.048448
      8.23595      4.96892     13.69182         0.073699      0.426865     -0.119055
      0.31339      9.12918     13.90884        -0.095536     -0.249731     -0.090617
      9.76265      7.45118     15.47312         0.118752     -0.422482     -0.005370
      2.31579      6.40378     15.14484        -0.434073     -0.027328     -0.612419
      4.43789      9.34856     14.42171         0.145153      0.039652     -0.123806
      5.91835      8.23767     11.39281        -0.154344      0.031326      0.201493
      4.05035     12.98755     13.50181         0.117606     -0.217419     -0.095306
      4.43445      6.49253     10.85952        -0.050061     -0.301784      0.085083
      6.27304      8.09625     13.80269        -0.018887     -0.018286     -0.102955
      5.95551      2.81161     12.27279         0.233863      0.046423      0.199658
     13.29311     13.03155     15.58291         0.035040      0.181021     -0.177972
      1.52715      0.51428     14.62659        -0.203274     -0.678320     -0.210828
      6.79257     14.03896     12.07497         0.261448     -0.464251      0.197658
      8.16064      8.47502     10.35586         0.155096      0.314132      0.010052
      9.89188      7.07535     11.41938         0.154953     -0.447591      0.103127
     12.56299      4.48181     10.59635        -0.082777      0.024058     -0.199935
      2.03312     10.15900     11.41294         0.120680     -0.515274      0.112144
     14.57331      3.78298     11.61806        -0.256643     -0.073858     -0.154132
     11.55056     11.85332     12.73257        -0.053717     -0.368494     -0.082867
      8.12187      9.19413     14.86784        -0.518530     -0.161844      0.625392
      2.50004      8.25514     13.72363         0.285877      0.226701      0.119194
     10.51098      1.22447     12.16478         0.190075     -0.106158      0.149943
     10.25644     12.58207     14.48951        -0.376140      0.145569     -0.190786
      0.75079     11.36673     13.18530         0.221637      0.367762     -0.278551
 -----------------------------------------------------------------------------------
    total drift:                                0.006753      0.015456      0.000522


--------------------------------------------------------------------------------------------------------



  FREE ENERGIE OF THE ION-ELECTRON SYSTEM (eV)
  ---------------------------------------------------
  free  energy   TOTEN  =      -716.69768817 eV

  energy  without entropy=     -716.54972844  energy(sigma->0) =     -716.62370830



--------------------------------------------------------------------------------------------------------


    POTLOK:  cpu time      3.3918: real time      3.3945


--------------------------------------------------------------------------------------------------------


     LOOP+:  cpu time   8320.8297: real time   8326.5429
    4ORBIT:  cpu time      0.0000: real time      0.0000



 total charge

# of ion       s       p       d       tot
------------------------------------------
    1        0.550   0.016   0.000   0.566
    2        0.568   0.016   0.000   0.583
    3        0.570   0.016   0.000   0.585
    4        0.563   0.014   0.000   0.576
    5        0.561   0.017   0.000   0.578
    6        0.558   0.016   0.000   0.574
    7        0.582   0.029   0.000   0.611
    8        0.555   0.023   0.000   0.578
    9        0.561   0.017   0.000   0.577
   10        0.569   0.017   0.000   0.586
   11        0.760   0.942   0.000   1.702
   12        0.763   0.902   0.000   1.665
   13        0.833   0.781   0.000   1.614
   14        0.739   0.962   0.000   1.700
   15        0.756   0.943   0.000   1.700
   16        0.749   0.941   0.000   1.690
   17        0.766   0.907   0.000   1.673
   18        0.778   0.903   0.000   1.681
   19        0.758   0.966   0.000   1.724
   20        0.804   0.851   0.000   1.655
   21        0.755   0.951   0.000   1.705
   22        0.768   0.908   0.000   1.676
   23        0.822   0.810   0.000   1.632
   24        0.754   1.002   0.000   1.756
   25        0.776   0.869   0.000   1.645
   26        0.773   0.871   0.000   1.644
   27        0.793   0.890   0.000   1.683
   28        0.784   0.896   0.000   1.679
   29        0.786   0.889   0.000   1.675
   30        0.882   0.692   0.000   1.574
   31        0.758   0.919   0.000   1.677
   32        0.761   0.901   0.000   1.662
   33        0.844   0.788   0.000   1.632
   34        0.801   0.856   0.000   1.657
   35        0.756   0.927   0.000   1.683
   36        0.772   0.916   0.000   1.688
   37        0.760   0.908   0.000   1.668
   38        0.758   0.936   0.000   1.694
   39        0.758   0.899   0.000   1.656
   40        0.761   0.928   0.000   1.690
   41        0.765   0.916   0.000   1.681
   42        0.758   0.899   0.000   1.656
   43        0.768   0.877   0.000   1.645
   44        0.803   0.889   0.000   1.692
   45        0.761   0.902   0.000   1.663
   46        0.759   0.933   0.000   1.692
   47        0.758   0.923   0.000   1.680
   48        0.787   0.906   0.000   1.693
   49        0.823   0.835   0.000   1.658
   50        0.763   0.935   0.000   1.697
   51        0.831   0.772   0.000   1.603
   52        0.867   0.732   0.000   1.599
   53        0.764   0.923   0.000   1.687
   54        0.756   0.949   0.000   1.705
   55        0.799   0.844   0.000   1.642
   56        0.825   0.810   0.000   1.635
   57        0.758   0.952   0.000   1.710
   58        0.776   0.898   0.000   1.674
   59        0.765   0.946   0.000   1.710
   60        0.783   0.889   0.000   1.672
   61        0.768   0.899   0.000   1.668
   62        0.804   0.834   0.000   1.638
   63        0.819   0.824   0.000   1.643
   64        0.745   0.998   0.000   1.743
   65        0.759   0.867   0.000   1.626
   66        0.754   1.007   0.000   1.762
   67        0.799   0.853   0.000   1.652
   68        0.751   0.937   0.000   1.688
   69        0.758   0.969   0.000   1.727
   70        0.793   0.890   0.000   1.683
   71        0.776   0.894   0.000   1.670
   72        0.749   0.937   0.000   1.686
   73        0.824   0.777   0.000   1.601
   74        0.764   0.873   0.000   1.637
   75        0.803   0.845   0.000   1.648
   76        0.803   0.807   0.000   1.610
   77        0.764   0.915   0.000   1.680
   78        0.756   0.989   0.000   1.745
   79        0.716   0.886   0.000   1.601
   80        0.761   0.925   0.000   1.685
   81        0.763   0.920   0.000   1.683
   82        0.753   0.972   0.000   1.725
   83        0.765   0.862   0.000   1.627
--------------------------------------------------
tot         62.377  65.440   0.000 127.817


 total amount of memory used by VASP MPI-rank0   396039. kBytes
=======================================================================

   base                                    :      30000. kBytes
   nonl-proj                               :      78387. kBytes
   fftplans                                :     102081. kBytes
   grid                                    :      78750. kBytes
   one-center                              :         18. kBytes
   wavefun                                 :     106803. kBytes

  
  
 General timing and accounting informations for this job:
 ========================================================
  
                  Total CPU time used (sec):     8475.718
                            User time (sec):     7479.113
                          System time (sec):      996.605
                         Elapsed time (sec):     8481.488
  
                   Maximum memory used (kb):      652472.
                   Average memory used (kb):          N/A
  
                          Minor page faults:     15984125
                          Major page faults:         1200
                 Voluntary context switches:         3256
