/u/vld/spet5633/Silicon/a-Si_potential/DFT_1200eV/Testing/Paper/surfaces/amorphous/anneals/10/cleaved_surface.data (written by ASE) 

2516 	 atoms 
2  atom types
0.0      42.803955704057834  xlo xhi
0.0      42.803955704057834  ylo yhi
0.0      41.386618335819193  zlo zhi


Atoms 

     1   2      2.0340739427832042      3.4316963403890872      11.425269042887301
     2   2      4.1866880555441419      0.6274366041939311      11.443036287086562
     3   2     0.44153587081226053     0.22026455780578524      12.396199712530354
     4   2    0.020963280531001702      2.2190260967664104      11.185524112864016
     5   2      6.5858701967735964      2.5240485148380962      10.385997405797236
     6   2      4.7273818144557849       2.323650821743827      12.890403289033685
     7   2       7.044832610925587       2.350952136994946      12.667412279950115
     8   2      8.3377691338376625     0.43987352659573092      12.147190978477976
     9   2      7.4466729674185164      4.1763027053533239      14.153269549717738
    10   1      10.472323610727273      1.6679730831359552      10.326807449475282
    11   2      10.539277655330926     0.95617755895028089      11.637514238589205
    12   2      11.221168748515952      4.1437055233245212      14.210120453387839
    13   2      11.713903327609749      2.0227388430999897      13.351007409536999
    14   2      12.404230344736021      3.7812523800030555       11.63294360739609
    15   1      8.9061543432480494       2.413107270440666      14.281214606666264
    16   2      13.907717882080785      2.3986213580988935      10.539623216987444
    17   2      15.218214626323473      3.7296491999680299      13.371858607648361
    18   2      14.005589683418613      1.7910793757159205      13.736388529075017
    19   1      17.028951886593291      1.3528381788481665        10.2606644569109
    20   2      16.816371026500207     0.85046820419704972      11.894445457679755
    21   1      15.159484123011149      2.1848478346045987      11.361133108292888
    22   2      17.158553906916293      2.4509554221643723      13.538177524140437
    23   2      20.257670621557406      1.3813934180674747      11.810020446561049
    24   2      19.186644671079634      3.3003575617219667      12.609568478977256
    25   2      17.581360441621921      4.1343063384546488      10.955570162420184
    26   1      3.2594805463640335       5.039725092911544      13.710044923465714
    27   1      1.8251261562652323      7.8839869948032053      11.064998113665752
    28   2     0.71039666375365096      5.2920152069248605      12.122331819403367
    29   2      1.5968893319410322       7.401918757455566      12.466195589969862
    30   2      4.0023843750238663      4.5348451234036844      12.520189563804546
    31   2       3.320555891795034      8.2165383179386815      13.769713407510251
    32   1      6.7979145571624002      5.8503700073953917      11.829415809981406
    33   1      5.0704465729427346      7.3478330703722001      10.976671184316412
    34   2      5.5708401743129876      7.6800087478576327      13.863218192642572
    35   2      6.0449685183601458      5.5953754914647433      13.090722249081722
    36   2      4.2645618629880211      6.1022689127711773      10.768193791299939
    37   1      8.4400786982529752       6.623920258968556      10.824549555169797
    38   1       8.578253004123253      4.3622477917248288      11.504112568306525
    39   2      8.9061947548020779      5.2761949582452097      10.383331149390891
    40   2      11.159156842392596      5.5089263953871654      10.699473156676389
    41   2      10.841251655039548      6.6453831798914536      12.715071806741554
    42   2       9.352375568452306       5.587235812182116      14.223375117481702
    43   2      12.849706035403068      5.5448878536976753      13.144863817548792
    44   2      15.413041645028336      5.0071134664699928      11.425550417817018
    45   2      15.952465811675077       7.322299948394086      11.845043769891825
    46   1      17.713970495030395      5.2191711901789555       13.02864428288437
    47   2      17.279671569100177      6.4995763612684536      13.655700720872773
    48   2      20.235607524974881      5.1185506009062456      11.581690940221005
    49   2      17.844379586411691      8.2152478625755041      10.641834067054935
    50   1        21.2865091600856      5.8200785415694272       12.40981986127581
    51   1      20.113868468981643      7.7456106028343719      13.350063084135449
    52   1      1.6679893357271018      10.198667769966331       11.92118074540662
    53   2     0.61808124128938791      11.852661386042101      10.096074880128912
    54   2      3.1478895609848707      12.061110813372284      13.943641391088967
    55   2      2.9950278926789924      10.205079825389726      12.602251479597752
    56   1       3.670838038853931      10.483355020606547      11.064761384593735
    57   1     0.99877847018560184      12.385425675473467      11.521074190621063
    58   2     0.12071179537669952      10.861063867739347      13.944674656092483
    59   2      7.1138691938906646      8.9193767465207952      12.653189459638192
    60   1      5.6947433466568738      10.721722982946194      10.664452131572745
    61   2      6.3758725370207969      10.970572462863228      11.975893697283981
    62   2      5.3976166890768384      12.373280851753007      13.480287522338966
    63   2      10.532668381811751      9.8677605151678129      14.267930792867109
    64   2      8.7960899601895477      9.1671187141576027      11.005708680104958
    65   2      12.797222560529693      9.8474301786211527      11.530921512287527
    66   2       12.53404759397772      12.104244219012465      12.087477044081679
    67   2      8.5924500554399348      11.457987850206047      11.342533143373181
    68   2      10.827694784420011      8.8704391633345843      12.168313432720254
    69   1      15.083587987098786      11.647449833309512      11.019357286107047
    70   2      14.673188007615193      9.0880647224347832      12.688750759470548
    71   2      14.003257096226074      12.530156817449351      10.346073286528103
    72   2      16.320147150148205      10.720557996727109      12.869685570616278
    73   2       20.00104864063503       9.011706645764944      11.011863548183868
    74   1      20.509632446811295      11.843368648707898      10.269171444085304
    75   2      17.315051413490831      11.487087723844054      10.875903327625322
    76   2      19.346320748608864       12.57592823182496      10.812126746703248
    77   2      20.888253969353048      10.083993952453012      12.848994366248444
    78   1      1.0270394583497284      15.674073869228723      12.674432658399127
    79   2       3.607940319256858      15.294813435933852      13.026951184855839
    80   1      1.4615966419380151      14.421410518518925      10.862521633262709
    81   2     0.97271056198037353      12.908951316737424      13.250844015958833
    82   2      4.1043906252131741      15.052503258329633      10.730350883000362
    83   1      8.4577663353641039      14.209906050033757      12.562775413442965
    84   2      7.4837493972440274      14.632240918233013      11.522398264825121
    85   2      5.7664208554349852      14.594982811628173      12.993401423534308
    86   2      8.3872641543897561      16.697549842687053      11.252043747588345
    87   1      6.4227879562560481      15.306730598273267      14.184159691998548
    88   2      10.464124438630133        12.8507245392887      11.422319999677526
    89   1      10.281509899392054      14.051728738126206      12.280112424634586
    90   1      9.7600620423370348        16.5253437679218      11.799630275658979
    91   1      8.9088468697806018      13.960850308006398      14.066375151318422
    92   1      11.586432545383726      15.724232011575593      13.722012530968414
    93   2      20.955708490240166      18.538118972909594      31.105972466055654
    94   1      16.712059049751105      12.877301968007725      10.331091543971278
    95   1       15.05174203767095      13.769705155061098      11.878184749501818
    96   2      15.764233241623465      14.013148694345954      13.194557357072831
    97   2       14.75705808744129      16.181106295567808      13.670121887283294
    98   2       15.08247551965751      16.749069957471423      11.438869049586033
    99   2      12.962870079242222      12.922302155943662      14.186586556130312
   100   2      19.557547743658368      13.222889066751106      12.990130909400966
   101   2      17.130964486966128      15.800380668975921       10.85028416479277
   102   2      17.899926125714433      14.791807099238179       12.78243418598319
   103   2      21.282659401177991      16.235237829002308      11.539179619542358
   104   2      1.1636464528391086      17.114265531614858      13.085144436673952
   105   2      2.8309398100019196      20.615090555343894      10.554498763392781
   106   2       3.985560592680097      17.378899051541744       10.79862293945884
   107   2      3.4862710019962768       17.58572691689529      13.141588253258476
   108   1       3.670143304371289      20.604698055400615      13.445207611358725
   109   1      2.5159565873293852      17.550183596712387      10.544720022297977
   110   2      0.2443694347815627      17.950813547794223      11.100966911533998
   111   2     0.54210002082922093      20.595453716605746      13.355797200390114
   112   1     0.69804264661010085      19.969768749174811      12.021249047542893
   113   1      3.1086332346911272      19.763792171759171      11.732262388466973
   114   2      7.2519239784514484      17.913871804428073       12.81166077254845
   115   1      7.4844655606201247      17.302126794118905      14.129089348997017
   116   1      5.8046279483005812      17.724968475737732      12.555667432818748
   117   1      7.2890726651554454      20.765837818754562      14.118922869174648
   118   2      7.6014074127046731      20.162444226904011      12.789474941093731
   119   2      6.1827128513054399      20.953324238419615      11.189634796942698
   120   1      7.3024830440561397      21.345976192955177      10.283124650931192
   121   2      11.165431962118506      20.165626999663846      10.853386808007571
   122   2      11.831052808594308      18.233596586256851      11.972160326835127
   123   2      10.654769774299984      20.724582794208978      14.048134015926344
   124   2      9.4866921649108029      21.267327208558676      11.982531804971835
   125   2       11.17849489660475      18.422605852091877      14.173515803147037
   126   2      14.005989842960327      18.768584279046749      11.339480217877027
   127   2      14.550584937735488      20.776861435963568      12.225192427800406
   128   2      16.647356382287132       20.15749389790431      13.396754457970307
   129   1      18.694673581197339      17.285666537349776      12.510133909350158
   130   2      17.975672451188561      19.918120717364349      11.466483316831969
   131   1      21.165923193389414       20.28875728610026      10.846211696391466
   132   1      20.577364270792572      18.871316310158601      12.752705167788083
   133   2      19.709743766590329      18.129956347425615      11.803447711238206
   134   2      1.4743656455461396      2.2313115200351179      14.790131441027036
   135   2      4.1159608895056232       3.859126585221329      16.262048815900819
   136   2      3.7514049484858405      2.0129932772346137      14.957055346689772
   137   2      2.3189577710940315      1.2597906903972265      18.181375481052214
   138   2     0.84540561762463495      2.7549279894666827      16.983175264188464
   139   2      3.7099156015852772       3.081341034776905      18.422084098454903
   140   2      3.6333964292605825     0.22044431659855449      16.425547171531729
   141   2      18.390842393843513      21.395543439730979      20.643937883042824
   142   2      5.8295955709706311     0.31209349726003027      17.224746580476733
   143   2      6.4444450245089788      4.1231080876533577      16.312830714786458
   144   2      6.6541162613968092      2.3685731270149146      17.980957769309128
   145   2      7.4975082588039319      0.0138656789129569      15.668336066153081
   146   2      9.0047118706210565       3.752108977582127      16.904985073028744
   147   1      12.044878192518363      2.8821736394069104      16.457368880365152
   148   2      11.013340963369805     0.70452615110429362      15.186894539671556
   149   2      9.0155526477908321       1.744170113371285      15.650560732731906
   150   2      12.377649881849925      1.3211155756790809       16.93779145313556
   151   2      8.9617083349885966      1.4572100382762081      18.285547701222981
   152   2      15.446019640022337      3.2412478230022481      17.617871031184656
   153   2       14.48830847479479      1.7403897180649677      16.071558782628379
   154   2      19.982572261372145      3.3250958658923904        14.7954643340928
   155   2      17.454916202889976      4.0528876016097843      16.804640594710648
   156   2      18.116440021693759      2.1330456265781725      15.638409130660399
   157   1      21.196657064812118      3.2447665748403614      16.734744682945838
   158   2      20.760491209141009      3.5037721701216893      18.145741289825892
   159   2      17.702399641657152    0.069689649392401715       16.77125031944917
   160   2     0.92535464278331259      4.4128773383135469      14.331366653141714
   161   2    0.062099905157168414      7.7927623034499867       15.40337504253322
   162   2      2.3396085726012084      5.4067461987313319      15.932133071813013
   163   2      1.0117347533806222      4.9510937862338897      17.795673505328732
   164   2      2.3792065209101008      7.7269125609930089      15.883734294479675
   165   2      8.3292417869361639      6.4124662162949715      18.236854640387214
   166   2      6.0870859032230902      6.1650360746975039      17.407696896367334
   167   2      5.9826155684744498      8.0906683792843541      16.092856061632709
   168   2      11.245474026341652      4.3058967117886349      16.561387582623169
   169   1      11.686636841576941      5.7454456581456324      16.500728805522392
   170   2      11.261076047096894      8.3206818112869119      15.943347383884458
   171   2      9.3998463156591168       6.923193135356656       16.20681674879323
   172   1      13.587098253688664      4.3553928030692504      15.992868154281011
   173   2      14.047976247653082      7.1397868563647586      17.793019669301721
   174   2      16.893902361759135      7.4363610306452781      17.267407081350285
   175   2      13.296515590232611      7.2587497995239616      15.616601666195788
   176   2      16.389689867131686       5.803800091323378      15.661991653676246
   177   2      14.277241894394315       5.190477338687729      14.981564725585464
   178   1      17.369186628799341      6.6544782351708474      18.439738256182331
   179   2      20.357294800846315       5.499997354946661      15.620420178342627
   180   2      18.498666115316485       8.552553420023516      16.024868043195127
   181   2      19.312173824563207      7.1518838841974528      14.428481990449004
   182   2      19.306155363753675       5.189678803014262      17.765391701463706
   183   2      3.2075867027238543      8.5798187561093044      18.007758813322713
   184   2     0.74679819038234307      10.814383570911007      16.161773431301292
   185   2      3.0419439163998296      11.202830690164964      16.107879562205195
   186   2      8.2307619228117002      10.056699749893179      14.299128509700907
   187   2      8.1365022730989907      8.8491560639715967      16.235621947449886
   188   2      6.8813957992002699      11.755558395161462      15.153905494568512
   189   2      4.7982417394522665      9.8994983552978812      16.939574338681204
   190   2      6.4286540379842076      11.494297546249605      17.704613891805757
   191   2      11.432782917796853      11.715463726198111      15.397055024428347
   192   2      8.6073757451831163       10.71592242124904      17.550795172269346
   193   2      9.7793978148627652      12.594758069808828      16.823989830975133
   194   2      12.734423817040975      10.182027506687657      16.523078522597821
   195   2      15.158134113103952      12.141381745992136      14.374067722798769
   196   1      15.633051125030278      9.2407729233668991      15.615045356311814
   197   2      14.283492616609799      9.2350619709424659      14.983552979919954
   198   2      13.742991232208047      11.485469312127313      18.197298581209843
   199   2      15.572556647342731      8.9149845750496457      18.433473150251373
   200   2       16.02054303977447      11.210327130661392      18.187907193916267
   201   2      16.702563120136606      11.836638997206359      16.078231739679218
   202   2      17.773203770534636      10.334733165320557      14.708901469363651
   203   2      19.765201021942069      11.386458723534908      14.386511784303785
   204   2      19.981708480406667      9.2053444866340204      17.648406069149949
   205   2      20.812737823787479      11.071830389141509      16.503814158652503
   206   2      3.3899350227843192      12.881056974324981      17.670924236932883
   207   2       2.692515436262116      14.234329338664866      14.875819584295726
   208   2     0.33623388760889622      14.267819317392972      15.322476525415436
   209   2      3.4299748163848931      16.270915529713193      16.757434187013057
   210   2      1.1420092015168126      15.849541520990712      16.994924043195532
   211   2       8.291115406295253      13.560146020325513      15.352729444052645
   212   1      5.1710860437941868      13.236156463013808      15.449516883286901
   213   2      6.8380977580455653      15.148193186341082      16.219461504243938
   214   2        4.61625433919155      14.310792797688661      16.377277504259609
   215   2      7.7647337924587871      16.245679544394743      18.056002461007672
   216   2      6.8771011259435664       13.81812816950262      18.242934102258957
   217   2      12.780619939860774      15.232173029514035      14.446687440699623
   218   1      9.2007941268839915      16.100227345374254      14.836055852136797
   219   2      10.673257698893465      16.064684977941646      17.599432448884492
   220   2      9.2845810428757058      14.297302017802526      18.455968862100136
   221   2      12.772306607381756      15.728612929078212      16.732904955106939
   222   1      12.474816095483213      13.316834632428499      16.841035985287085
   223   1       14.69322060597305      13.626342485929126      16.361232288890033
   224   2      13.812593882459753      13.786241215349705      17.550373314956097
   225   2      17.009814971292315      15.642373860437948      14.709298491233668
   226   1      16.820358666445014      14.383634009931408      17.294179473725261
   227   1       13.51483670019676      17.008370820414594      16.976084582578991
   228   2       16.30634090033876      16.692493554841565      18.134792491366348
   229   1      19.896123936850039      16.016692201436502      14.442384681662929
   230   2      17.675778959230701      13.915784831759863       16.13535491752485
   231   2      19.676824797033177      14.510024067137033      17.128889709873398
   232   1      19.091590912715876      15.040757757951313      18.396914128319839
   233   2      21.204945824273285      12.950167025762314      17.810758506441079
   234   2       20.13975272964106      16.365700916329345      15.861481922752509
   235   1      1.5981238755243701      18.470290782701809      15.554915635295512
   236   1      4.1495814855337319      20.866087445705599      16.696700547580626
   237   2      2.5647614629111049      20.922614744676451       14.39859147882218
   238   2      2.7901453178134124       19.29016906455729      16.016233848170707
   239   2      2.1641719252493949      19.251599455920488      18.247979118612648
   240   2      1.1925368628919903      21.319831880618086      18.272431937718107
   241   2     0.57826249895003379      17.590523584074326      18.419873474587373
   242   2    0.020515922192807536      17.152667214435215      15.120234681878738
   243   2      4.4076373962446231      17.819320314631771       15.31598046044701
   244   2      8.5090114755355426       18.71392265652149      16.657502047891271
   245   2      5.9339620964764075      17.695946372727725      18.476763326805337
   246   2      6.2199483920939587      18.800861120843038      16.455704857894741
   247   2      5.5566984492848599      20.990853586788347      16.184645721661163
   248   1       5.768935940894707      21.229920990756309      18.371958435348049
   249   1      5.2581599635907894      20.886801753429609      14.729298668828424
   250   2      9.8547163328191729      17.145272128179364      15.660353578189948
   251   1      12.506110611240887      18.241748435762254      14.840644643393366
   252   2      9.6569364778890154      20.638872698883855      16.131907918441463
   253   2      11.910529973576727      20.456895278584195       17.09809756623924
   254   2      13.723297944208683      20.125492154638017      15.408252559575256
   255   2      15.308253429462889      19.849288653788449      17.020679677361688
   256   2      15.186391293128219      18.473070761903863      14.441106948408304
   257   2      16.657045271993052      17.511473482033516      15.998552901769747
   258   2      18.549040028529927      19.819175026120831      14.722517729636081
   259   2      20.424705283721785      21.131125216476782      14.570904187144667
   260   1      18.986864698020348      18.448084057287549       14.32957984713223
   261   1      20.505309062516087       18.86243437701329      17.189521002531269
   262   1      19.064709424516749      17.302051560925218      16.265294733496944
   263   2      17.599932713939484      19.544432671138594       16.79028113864636
   264   2     0.17229162275541074       1.561066217791788      19.269292002026592
   265   2      3.8270228211342401     0.85109447869579014      22.702219192164293
   266   2      4.6831295276644251     0.18272118934276108      20.618802089340335
   267   1      4.2902598929863647      2.9630636945519719      21.233976634333445
   268   2      6.6322275622390032      4.2493286863509274       20.59424678507127
   269   2      5.2294363007603408      2.4828712543898819      20.026439784087543
   270   2      8.0854009005897129     0.57770252256006316      20.941867701311242
   271   2      8.4989487569347979      4.1056480206303441       19.20845779467453
   272   2       11.27348992670716      1.8282463706042149      19.004921114415751
   273   2      9.4564044617999397      2.4672489757566338      20.605984441856457
   274   2      12.143476654478452     0.32079793514170885      20.554123441323256
   275   2       12.00518630945297      4.0641210897588609      18.863009320393111
   276   1      11.914381749349428      4.2584837425142839      20.595049158340132
   277   2      11.124828499913873      0.5022484497266726      22.699163600851676
   278   2        10.2039658179235      2.6977416290352378      22.831922001589465
   279   2      12.886607537781087      3.9677132425115635      21.791386159374337
   280   1      16.191567981543219       3.188626408352591       20.35779093617554
   281   2      13.682327599949476      1.9333938242159274      21.030948317503274
   282   2      15.449961866202507      2.1009788249520569      19.592376627612236
   283   2      16.739705221459019     0.36193083641653728      20.322938964646866
   284   2      18.486450643863808     0.15340220836660889      18.919047828079808
   285   1       18.11913296165455      3.2662741242615398      19.505861568590696
   286   1      19.729082092967381      3.3530150512203556      21.064176303728914
   287   2      20.010904379549132     0.95591327726464981      22.732648914478851
   288   2       18.23682443369221      3.3386953971393285      20.985686220360137
   289   2      17.801898491170707      1.2590374946212108      22.130435934945815
   290   2      20.385475668608734      1.3944770409009881      18.850122654725467
   291   1      2.3683936545019826      4.6437126806965434      20.736370128721642
   292   2      2.2008224560861036      7.5146285362581757      21.820467933470738
   293   2      3.8868389652969251      6.1142519939458904      22.503970902410799
   294   2     0.29666117775806627      6.8826318584696882      20.720474699762747
   295   2      2.6974298737752194      4.9374394438777305      19.321820308915612
   296   1      2.9057386187421055      8.3682055619829132      20.825499675759584
   297   2      4.2822020911290872      6.5883975264064274      18.887667405415023
   298   2      7.8797481271210748      6.9561154639908223      21.695062704668256
   299   2       5.536741689673768      6.2711858500429178      20.857187288421965
   300   2      7.8410854628045943       8.184552965262462      19.696571709477325
   301   2      10.435559932092133       5.740100944932597      19.295593892795132
   302   2      12.345509720031217      7.1064174160759839      19.313954874961915
   303   2      10.094817472670016       6.091548907537212       21.53255169605707
   304   2      10.990344223496207      8.2540781884129704      21.770077499238262
   305   2      14.228880940356671      4.9305974826086176      18.662342539135793
   306   2      16.157970858846056      4.3618420917521252      22.805949709008523
   307   1      16.838488444539131       6.560674649076832      21.073987801588302
   308   2      13.810548550229848      7.2142823083917964      21.175084197799858
   309   2      14.695058718441699      5.1397032890343226      20.984740679276218
   310   2      19.482812125168493      6.2949525896242546      19.879932961358612
   311   2      17.901129014674272      5.6333434623052563      21.606927677636929
   312   1      17.759396613208509      8.3760454653437453      22.699547172086845
   313   1      21.032808409222586      8.4520273948681428      22.289470524202095
   314   2      21.203722114076225      5.4816954253043821      21.262404672304704
   315   2      1.8423036620375206      10.332563306076837       19.12903368849588
   316   1      4.1622080714078988      12.259254870275708      18.773694160382384
   317   2     0.60390892011646524      11.172935540558782      21.675969824364657
   318   2      2.8203710550807179      11.409448656160182      20.946617020581101
   319   2     0.30689628229925281      12.267500811931308      18.888032966522395
   320   2     0.12714496306624579      8.8363525427814995      19.465750559994518
   321   1      4.7319336381766686      9.1451590310142485       19.81352724386787
   322   2      8.0817722679032808      12.455386072712313      21.376217468527074
   323   2      6.0001137341593518      9.3411897019039287      20.563858363767956
   324   2      5.4483886166427542      9.2376769574355819      22.814716473456883
   325   2      6.3402674065100335      11.587057644339483      20.144051191059681
   326   2      11.522005011956228      9.1563850085010525        19.6393881821603
   327   2      11.839619252839805      11.485682475352569      21.869387405219946
   328   2      9.6176564518398173      10.757022808115131      21.586820517815106
   329   2        9.40824795661017      9.8544882334339281      19.470788852564652
   330   2       8.845798763467128       8.881630487682564      22.682897642818475
   331   2      13.221203954068338      10.555261611453602       20.25004959563389
   332   2      15.014493226900932      9.0987314731810045      20.650430413145529
   333   2      15.568663083093064      12.631726352621895      22.033018083287566
   334   2      16.535034577670988      12.832951439556545      19.857529434143238
   335   2      15.913206546025627      10.334943238235381      22.395690984396879
   336   2      19.188595915620354       8.616691390715463      19.752605798138866
   337   1      18.991187195534021      11.238169932155246      19.609378853032105
   338   1      17.732099726860689      8.9056889973300102      19.925375041200162
   339   2        20.2312943792125       9.514693552742763      21.606022428450462
   340   2      18.824054379352873      12.084266533576958      22.596449086400447
   341   2      18.775728996702725      12.538889192115265      20.310867457454179
   342   2      1.7159011184673008      14.109962703894295      18.666145963431582
   343   2      4.0716732908845792      16.398858197132085       18.99055361339752
   344   2    0.039893102843355135      13.847279974981566      22.127109037998665
   345   2      1.9174648840256856      14.622602301306756      20.952263657419884
   346   1      4.0005956976547363      16.740389188503872      22.066680841771614
   347   2      3.2785049722692867       15.53782594881438      22.545397284170683
   348   2     0.50600600039528765      16.382656377448853      20.420879046920152
   349   2      4.6320127086618799      12.903667493395028      20.972389366954602
   350   2      5.5276489009064083       14.80422323986366      19.909844587367267
   351   2      6.7140753264897315      16.216788668840358       21.38070943982374
   352   1      5.9972454909889752      16.367265301712923      22.681476671163541
   353   1      12.232736990544899      13.513203139375822      19.346559949471128
   354   2      9.5829942912388208      14.129572504115577      20.754234478545868
   355   2      8.8378495886802728      15.769885971725277       22.16299094589283
   356   2      11.799605655532657      13.520621773184208      20.787582586396066
   357   2      15.477812264202919      14.722543581381798      19.004803006395715
   358   2      13.707979631902413      14.091107607429267      21.932664465128475