LAMMPS data file via write_data, version 2 Apr 2025, timestep = 665000, units = metal

1000 atoms
1 atom types

-0.23185596186084112 27.11648787998734 xlo xhi
-0.23185596186084112 27.11648787998734 ylo yhi
-0.23185596186084112 27.11648787998734 zlo zhi

Atom Type Labels

1 Si

Masses

1 28.0855

Atoms # atomic

386 1 2.54956767138096 2.106173722236997 4.6073729022426715 0 0 0
19 1 2.811582092768996 1.3709270974798526 2.382074886501472 0 1 1
150 1 0.7069506657118418 0.6027416299664907 1.758420430397261 0 1 0
296 1 3.2132944467283737 2.744462695522523 0.5087859975926933 1 0 1
753 1 1.2474318355770473 0.717595311237452 6.120200202756194 0 1 0
87 1 1.5732415646340638 4.19132747396686 4.3637044521776875 0 0 0
450 1 -0.20954205989936112 11.590421712413141 5.774197791251369 0 0 0
880 1 3.501145754017278 12.215774288486871 -0.021808885051043253 0 0 0
145 1 4.407331537020371 1.9174337792456462 6.195142382148477 0 1 0
300 1 7.109568009261445 1.248021636563309 3.2129280835684026 0 0 0
884 1 6.639154329551417 2.2185996742779683 5.325239187986742 0 0 1
561 1 6.161488025687153 1.1188435915566817 1.0174032657174281 0 0 1
857 1 5.4900516947623546 3.255188556102996 0.28608092535813745 0 0 0
48 1 8.66322974150216 4.165238759160706 1.7135403836889194 0 0 1
427 1 13.093829505332511 3.101097403390777 3.196642992493835 0 0 0
657 1 9.24629976515082 1.978282090897197 2.460646306037386 0 0 0
854 1 11.161686384324694 1.6438795233262293 4.022928775315681 0 0 0
594 1 9.538421853534208 0.43961418986378564 0.6930143192085239 0 0 0
859 1 10.643792185146289 2.497182069835317 6.246597362453957 1 0 0
791 1 0.351095207434612 8.009816573410307 4.290353978440218 1 0 1
517 1 3.3042840796482444 5.75939714048093 3.9376972468707505 0 0 0
660 1 1.8197303992655387 6.947680496489519 2.5537228488357027 0 0 0
768 1 3.4097667315256763 6.828289660888439 5.899380641322043 1 0 1
614 1 2.9133202214838185 8.559552886374316 1.1796502334623664 -1 0 0
275 1 0.4453645434433764 5.356167527427372 1.260179063101743 1 0 0
142 1 0.6224764992936642 5.02682902891959 6.333224061410106 1 0 0
106 1 1.158417073517571 7.3379603182992446 6.342969633047417 1 0 0
323 1 6.879301428702568 4.626420618994552 5.444366373816637 0 0 0
351 1 6.499921494532804 5.208467897483978 1.5254066090712977 0 0 0
130 1 5.616255351816406 5.776063159666924 3.7509018926527067 1 0 0
837 1 5.937362670484343 7.967424522580313 3.903697668976191 0 0 1
83 1 6.850244656598608 7.103573814398969 0.19780942817900837 0 0 1
579 1 5.289272374518278 8.37696800047835 6.183543975121452 0 0 0
187 1 8.657460000919723 7.827107644330296 5.960756309107073 0 0 0
970 1 8.035967330488466 8.844869499518643 4.041242111303363 0 0 0
841 1 8.98181848692906 5.626667524793763 5.2565695171282565 1 0 0
258 1 11.874027120077434 8.637959084872918 3.6511422016510613 0 0 1
528 1 12.241234997120177 5.955842863100137 0.5516918120588822 0 0 1
967 1 9.800779969172899 7.97112118277005 2.7675237993697444 0 0 0
935 1 9.925549834596014 5.572679968339853 3.110080376498679 0 0 1
485 1 12.188296655592303 5.238171607678085 2.780203818503295 0 0 0
767 1 10.598954275905326 7.627117302388673 0.6859819815821431 0 0 1
428 1 12.631983952555192 6.024698056102721 6.145682601765639 0 0 0
941 1 13.231814845706884 6.823779291715814 3.9756942841230565 0 0 0
899 1 3.179636253877572 10.688652115947873 4.355839736756386 0 0 0
137 1 1.9703925003298624 10.477449790042416 0.47335388768488973 1 0 0
628 1 0.9495197665236339 10.37652191767767 4.082944397405523 1 0 0
670 1 0.3660930015138255 11.259665688429022 2.043902687095337 0 0 0
833 1 3.9838425521733516 12.831787843041745 3.6781502041500467 0 1 0
271 1 3.85164858742988 10.380460533774693 6.5351495375437585 0 0 0
13 1 11.396807690272858 10.05506056733035 5.332925891017913 0 0 0
376 1 4.295823399701926 9.30410807843147 2.8298377735271782 0 0 0
152 1 7.352839557887887 9.469341997804028 0.5411847921116625 0 0 1
467 1 7.519562071639168 11.063164457130489 3.6196818252204928 0 0 0
199 1 6.028673913192905 10.675396199090681 1.880509870107876 0 0 0
309 1 5.142902533047117 12.912511503343982 1.3844463250372765 0 0 0
39 1 6.888233362360309 12.855864861468794 4.8102524497344 0 0 0
14 1 9.428077216223079 10.575227506404135 0.6804320825449071 0 0 1
180 1 9.33470467335587 11.976342741455689 2.506885155660893 0 0 0
268 1 10.56876990863127 12.144372583155723 4.538372234785709 0 0 0
989 1 8.920049338997773 13.206578303711382 5.888570150008319 0 0 0
686 1 11.404730169848012 9.81054779664964 0.022037620203658348 0 0 1
573 1 12.904037139027576 9.631154058013493 1.8923275256290508 0 0 1
101 1 12.515836240392591 13.378550526632425 4.530732352922142 1 0 0
542 1 3.460734157141793 -0.2119128501583134 6.3997080128640205 1 1 0
999 1 2.3234057862828896 2.3193015995539676 11.251784223886194 1 0 0
723 1 0.8411531660487215 0.8791051553686844 10.093038614103996 1 1 1
303 1 3.3885764012806954 3.2172081055695827 7.8715167545770885 0 0 0
851 1 1.1712809946354223 3.813827419179055 8.190382214484847 1 0 0
533 1 0.6031513188552711 3.850624816580898 11.899418063317702 0 1 0
23 1 0.21092169776469816 1.6990344199963892 7.999694980482447 0 0 1
280 1 4.282877728813919 2.4534622367214594 10.015281395496334 0 1 0
937 1 3.120930290284866 1.2915935592184802 13.298643543948122 1 1 0
747 1 7.127101100694556 0.2751239358422227 10.237871670432453 0 0 0
96 1 8.087544076772573 2.1294313129207447 9.120902847250601 0 0 1
805 1 5.802345495411674 3.7359134308921558 11.11658855790907 0 0 0
52 1 7.444889002274931 0.4578318969434364 12.690759976248373 1 1 0
998 1 4.87214081068384 0.13756407078040095 10.07596120717834 0 1 1
40 1 6.458582785752952 2.7124987752370875 13.11700058586766 0 0 0
473 1 8.517894061576447 1.7091863170395085 6.860638880048365 0 1 0
696 1 9.930012445215146 3.041388254458581 10.32509344596008 0 0 0
29 1 11.246770018965503 1.2785762761330068 10.192984632656858 0 0 0
424 1 11.84773718112879 1.3072158336662458 7.913136959208986 0 1 0
315 1 9.605618131985151 4.2265557548991435 12.184963671830554 0 0 -1
775 1 13.199862815614226 1.5713591492815402 11.746095631224751 0 0 0
954 1 13.365321336714901 11.691743539729476 9.929141227774249 0 0 0
731 1 3.3160315224184522 6.339270822019888 9.655012852605347 0 0 0
459 1 1.079847184451504 5.2919212987842705 9.954892162351678 0 0 0
903 1 0.7794987084859275 7.637199750452545 12.821236003524351 0 0 0
852 1 3.9901882201360417 5.397907529760165 7.680965687246289 0 0 0
451 1 3.277144042711455 8.687132491388665 9.6422616684281 0 1 0
951 1 1.896850580156547 9.24921765798305 11.386285397147443 1 0 -1
870 1 7.292040321172592 4.381137418679917 9.389955844691565 1 0 0
392 1 4.73660894310228 5.765328079587391 11.48092610605494 0 1 0
583 1 6.911727086015133 7.816346731022488 7.631468710875645 0 0 0
239 1 6.322444506008079 5.583993392658944 7.695908044034375 0 1 0
830 1 7.973349675003979 7.833810402757502 11.072000991492756 0 0 1
388 1 6.1964144960399885 7.437875586032023 12.378905314366364 0 0 0
514 1 8.813218286770129 5.703075709226895 10.610590112705287 0 1 0
911 1 10.258567402336812 4.8804529383431685 8.960595607275694 0 0 0
497 1 12.19792377937835 7.311032190502647 11.75766319498936 0 0 0
659 1 12.017009551657884 6.200759222430694 9.692952775785617 0 0 0
596 1 12.294401667456974 7.635736584882656 7.898129204382839 0 0 0
740 1 11.390066887644387 5.655176815439828 13.165408009860824 1 0 0
855 1 9.316065914927176 8.773335357864305 12.751169977159398 0 0 -1
431 1 10.665615553117647 4.780458848581738 6.66834087877502 1 1 1
364 1 3.4395389297355132 9.984573529738508 13.162739981794452 0 0 0
347 1 0.2646901910855596 12.13364092158066 9.154488369854375 0 0 0
794 1 1.9875855997119474 9.23406917277506 7.590863060334732 1 0 0
361 1 0.3490032658203742 10.824473103890499 11.094299735280151 1 0 0
426 1 0.9732358626621342 12.361392941145565 12.69191567946521 1 0 0
836 1 3.2942924625673244 12.183108408799527 12.651618492728979 0 0 0
505 1 4.085751324414458 12.503172011843294 7.497201753012062 1 0 0
781 1 0.04883813870057252 10.357102395998186 7.670347257860987 1 0 0
535 1 9.128710909036716 12.415426084193566 8.062535672690034 0 0 0
755 1 7.312773590904396 9.226539180367517 9.336425100965437 0 0 0
559 1 5.56881304023853 9.655570864820463 12.333155245119451 0 0 0
625 1 5.301248536531605 12.381257087671008 9.542310699799403 0 1 1
75 1 5.241241830776228 10.05120829373843 10.183028844398743 0 0 0
692 1 7.411968963215038 13.423444129708246 9.444868541294525 0 0 0
787 1 10.422493843704324 8.828359446326893 7.021964898575492 0 1 0
305 1 9.481898688263277 10.176035909843268 8.693238072411825 0 0 0
566 1 11.152343982332226 10.905681467004504 10.179425387644951 0 0 1
55 1 13.1950240486496 12.832896513671011 12.081298924631362 0 0 0
531 1 10.876515832277484 13.042292307288543 11.021031935583679 0 0 0
980 1 11.410637898942278 9.466538672028612 12.089191112235135 0 0 0
270 1 9.754807734889408 -0.14489773328382682 13.041869381486777 1 1 0
751 1 3.4998545639987353 1.130377978809614 18.01253763177728 0 0 0
795 1 1.4137431350522116 0.6939299834787134 14.88850982420352 0 0 0
730 1 1.6799980886676702 2.597955437543659 18.776390121328095 1 0 0
808 1 13.35736590660346 12.402487091172445 17.86557021035472 0 0 0
337 1 9.505158935724625 12.348927827343783 16.79401127452981 0 1 -1
776 1 12.577560748057227 12.16519210962721 14.089195305417556 0 0 0
774 1 4.524018848971115 2.872453120029291 14.362680466081969 0 0 0
995 1 5.185869961157064 2.34881437724116 16.62975125915152 0 0 0
493 1 7.238750945069714 1.0769172175504436 16.910793617304986 0 1 0
72 1 8.161907526216147 1.2306438137477405 19.178584294022112 0 0 0
222 1 8.224857368600942 3.663763873797172 14.177556534852522 0 0 0
682 1 4.6530546726017965 0.07478181726822991 19.74206439419552 0 1 -1
968 1 5.971989920070353 4.3207242038895854 17.85647181020034 0 0 -1
748 1 6.024878957143241 3.635015328018585 20.1172760562331 0 0 0
359 1 9.098509049672636 2.181435757772853 15.797870392008736 1 0 0
410 1 9.470985863602003 2.9516614441541003 19.7758171728801 0 0 0
190 1 10.956561115884567 0.9903522996264891 14.781020675635006 0 0 0
43 1 9.608415869433196 3.6821167850391605 17.46232879379492 1 0 0
706 1 12.941693945158914 2.134736767901996 14.012438109536358 0 0 0
47 1 0.05113634101490239 7.847139261421514 20.007505647212803 0 0 0
828 1 0.8609373959594824 4.603125663308438 15.78287617132359 0 0 0
200 1 2.1932943216576684 4.784325071036298 17.764871076328735 0 0 0
762 1 1.2468827155911077 5.885563462877331 19.388571841898106 1 0 -1
282 1 3.7750726089639874 5.22141843323139 13.62433511011074 0 0 0
430 1 4.190458182171579 5.811837857393809 17.464969604780837 0 1 0
988 1 4.140064513476626 6.85113055438024 15.308159521186038 1 0 1
754 1 0.5049430060104608 8.988840125669237 14.641790396290288 1 0 0
835 1 1.4266663414263656 5.44040314035476 13.580770670353278 0 0 -1
742 1 3.786169595117161 7.710346291162879 18.704510162514776 0 0 0
965 1 7.980259723437314 5.8418042448417244 15.137066021762278 0 0 -1
400 1 7.931230397919414 5.481560503693134 17.480188545831187 0 0 0
587 1 6.2919765128797405 7.329119886565463 14.73033055804209 0 0 0
640 1 8.8810849582605 7.150446688487829 19.076810682781886 0 0 0
711 1 12.701422874625898 4.365948915516738 14.627360307340805 0 1 0
15 1 11.56581640952287 4.602841924759529 16.814187388097817 0 0 0
159 1 10.51064471068513 8.322868470660966 16.162053113205143 0 0 0
442 1 9.731892158100546 6.995229821448863 14.393440421957287 0 0 0
365 1 10.855379922606001 6.608686736572515 17.915659733925807 0 0 0
157 1 12.224111987879386 6.430705252218399 19.71004905024677 0 0 0
455 1 2.9160664740874327 8.856340510982385 15.199971618245263 0 0 -1
99 1 2.0867435064248703 12.328201282552476 19.833277580775178 1 -1 0
67 1 3.6228508784230335 9.5791680631192 17.376333899811456 0 0 0
136 1 1.7725282124400286 10.864646567188043 18.0135920017835 1 0 -1
380 1 1.5337291156021595 12.3343768214375 16.13920718369585 0 0 0
532 1 3.6573523620982233 12.683633059074987 14.946950732722604 0 1 0
313 1 0.24205783641451994 11.326482951222635 14.528740869938114 0 0 0
4 1 -0.03183008585769723 9.574614007637544 18.23213824088157 1 0 0
860 1 8.403017208714632 12.555680591436335 13.541725124938944 0 0 0
184 1 5.842799616323727 12.138922483654799 19.8037475884625 0 0 0
807 1 5.670819355722608 12.689009709011977 17.59484491586126 0 0 0
750 1 6.83951024154696 9.652965654185834 15.59079120525886 1 0 0
681 1 4.978219747983496 10.942434603514817 16.215016879664436 0 0 0
358 1 8.592933234184168 9.449703491832 19.131255763063063 0 0 0
277 1 8.869354009617759 10.010073765506807 16.91706912537444 1 0 0
638 1 7.5074183597547055 10.240000819385848 13.505675539613145 0 0 0
978 1 10.441100321165685 12.78727152686761 14.756832383645236 0 0 0
946 1 11.103935700314237 12.91112064623652 18.45190696200696 0 0 0
964 1 13.098496529472918 9.97360636917793 13.760718934921863 0 0 0
744 1 12.77382700629982 8.838191279162656 15.747337775375435 1 0 0
316 1 -0.14090339675042785 2.490463714702769 15.54478801864137 0 0 0
151 1 13.382912397533955 3.8522707346742058 18.11000344615656 0 0 0
819 1 9.81236455756976 12.414361191873741 20.20827339176219 1 0 0
654 1 6.627350444181297 10.000129850418444 20.278114391479875 0 0 0
121 1 2.703762327957107 2.209442440099047 24.27726638240574 1 0 0
169 1 2.592217494912184 0.9296420480538778 26.214000904513263 0 0 0
355 1 1.8726299079051887 1.048273459700491 22.506720417113193 1 1 -1
838 1 1.5112252087409261 4.060397177868048 24.948083494977034 0 0 0
229 1 1.1710378600125286 2.721208272311887 21.016671603879065 1 0 0
906 1 0.37733169398824373 0.7007973647287447 26.842188292718962 0 1 -1
438 1 12.784539176890748 12.981585904754056 22.92092804500209 0 0 -1
877 1 4.729394971563046 3.0465276407300133 23.563996263101696 1 1 0
219 1 6.474130658180404 1.2096487309777775 22.925750249567844 0 0 0
171 1 8.082430369446424 1.3947224267767586 24.68697421158283 0 1 0
195 1 7.873317682605359 3.552052452811758 25.118584075686538 1 0 0
786 1 7.751228166881586 0.08423440822539213 26.706077673645563 0 0 -1
138 1 6.308976675295837 1.3867927293221147 20.605098959122966 0 1 0
615 1 5.702444498744958 4.159027343757418 25.35299132439764 0 0 -1
243 1 8.004590010538525 4.309996289531541 21.064018815648208 0 0 0
226 1 9.028378151359435 4.247831750892614 23.200491820339554 0 0 -1
885 1 11.524001845131167 0.03269695330243216 20.921447018567964 0 0 0
215 1 11.426222538106291 2.404183075924879 20.987705939852475 0 0 0
703 1 10.992980405526641 3.0538447809701426 23.02059539711006 0 1 0
783 1 10.434321125053893 1.1826846003095894 24.43589649902889 0 0 0
667 1 11.34987325313316 0.6511426091310815 26.60599983701346 0 0 -1
330 1 12.778442528702513 2.4125000140807713 26.655955307469466 0 0 0
5 1 7.606162313025319 13.319487934630764 20.64716045991162 0 0 0
878 1 2.2714893306458284 4.680889710053484 21.3143121287993 1 1 0
416 1 1.0237734457646608 5.308737669248766 23.13986933630866 1 0 -1
543 1 0.8257727986410746 7.428057673793654 23.613259220002014 0 0 0
588 1 2.0470196223944312 8.315940155290354 25.304526287292795 0 0 0
285 1 3.3455729317513927 6.873941520026551 26.813401202632793 1 0 -1
56 1 2.1597543769247514 4.929527741071725 26.93597756284498 0 0 0
165 1 1.302760176132111 8.863822138137095 21.827861416982742 1 1 0
420 1 4.61511500656154 4.573151404909271 21.706066909879492 0 0 0
471 1 4.895188864299428 8.49444921915487 20.636402504763584 0 0 0
902 1 7.933662921833282 6.561286646902791 21.261919818642287 0 0 0
192 1 5.684364805121098 6.670266441298431 21.941405653257803 0 0 0
482 1 5.506425543274883 7.9080808861391 23.919426249368325 0 0 0
869 1 5.3712627121686785 6.506221510791824 25.86511749342565 0 0 0
250 1 9.098675885789058 6.75077384726486 26.62532293364047 0 0 -1
610 1 9.178962449320794 4.485942034422894 26.735428182157936 0 0 -1
845 1 11.51431339092812 4.328565809102464 26.452054398771374 0 0 0
560 1 12.246653537004608 4.557412621875645 24.15767145271364 0 0 0
135 1 9.459588987407406 7.999549617242186 24.689756790505054 0 0 0
329 1 9.56009459772941 6.463086141615622 22.902635994885813 0 0 0
674 1 11.396733231051948 7.257578846270823 21.70405016685658 0 0 -1
772 1 13.170063041772286 6.660649408921363 23.16640316229213 0 0 -1
600 1 13.221920405401795 8.369934352629283 24.737110307426107 0 0 -1
513 1 0.42135393417343514 11.765177373355701 24.370253659584193 0 0 -1
443 1 3.3874093694996668 9.875128585440471 22.149601362358688 0 0 0
771 1 0.7474857326218556 10.059682051604991 25.991970973421726 1 0 -1
108 1 3.8383468502120017 12.101068197628106 21.099915064188178 1 0 0
908 1 3.78048739149001 9.47599135327376 24.25156632842935 0 0 0
602 1 12.278297382157204 12.257547646630343 26.737873414591693 0 0 -1
166 1 7.54668559161153 9.157232330331627 24.082386091286562 0 0 -1
284 1 4.80890504653906 11.349204957985364 25.228801313213953 0 0 0
990 1 6.8612406080478205 10.451258481786807 25.841968651667592 0 1 0
929 1 8.015060033564248 10.43483593649646 22.10261379500216 0 0 0
973 1 7.712858671363354 12.728295820284412 22.937441084276212 0 0 -1
68 1 8.478477549560086 11.981737608236385 26.37875962328667 0 0 -1
633 1 5.709135218810718 13.188279591426642 24.081838087005885 0 0 -1
672 1 11.293404107581178 9.544290804092249 25.014062827739306 0 1 0
241 1 11.483915554444103 12.10092256969166 24.643524293458167 0 0 0
822 1 11.999801282311932 9.551567696253931 21.382121863093655 0 0 0
876 1 9.826217402580108 10.24500892899668 20.848474086581856 0 0 0
947 1 9.491085975915736 13.276511168156956 24.458904481129068 0 0 -1
126 1 12.703509267491956 4.245802816964493 20.297586471246362 0 0 0
766 1 2.0177397250882176 14.16641905445758 3.9360549320339224 0 0 1
773 1 2.9121898349775623 16.25786367457908 3.2505519777849785 0 0 1
445 1 0.3127577376750813 14.624513921080347 0.2789786056594371 1 1 0
2 1 -0.13326379110494874 16.931316840594032 1.0029073372229926 0 0 1
344 1 4.204344334777794 17.50725636342824 4.816802382809772 0 0 1
784 1 0.8162905336052042 13.744253995440115 5.944517382023668 1 0 0
46 1 0.048033509292918886 17.888839931319737 5.721358806297464 0 0 0
197 1 2.4159014613032164 17.81835913224247 6.299827273772311 1 0 0
66 1 1.8375612933840784 18.03658425309449 1.959399874678041 1 0 0
127 1 4.641153753593822 15.54759832508968 1.8722100111027804 1 0 0
555 1 7.001387145631241 14.657455287644673 3.231954729531811 1 0 0
371 1 5.462469167146139 15.996685878804726 5.9632254664812345 0 0 1
252 1 5.7772034095598475 17.424140309648298 1.3016212694899516 0 0 0
304 1 7.5584190184569975 16.26479179157761 4.868230210561864 1 0 0
242 1 8.778299277923141 14.259500096158957 1.735230732724287 0 0 1
261 1 4.92645951655643 13.590780350979323 5.693956217723588 0 0 1
110 1 7.23118416775949 13.629975952555899 0.08218677171954547 0 0 1
985 1 11.86314637654108 15.55634751166455 5.157167305762045 0 0 0
91 1 10.61769122695466 15.596913002250899 1.371327283197087 0 0 0
143 1 11.366813131596878 16.8123398502345 3.1875848739513777 -1 0 0
761 1 12.452632230470384 14.224502832141031 0.5926065679555295 1 0 0
92 1 9.519705646340082 15.525806785221976 6.06748914986385 0 0 0
622 1 6.446352779435336 21.66083904518399 6.583571733492773 0 0 1
209 1 13.433046467800201 17.76863317079002 2.5899014171840586 0 0 0
51 1 0.07646877106707439 20.33820751442665 0.2843435238435864 1 0 1
518 1 3.5914057489283433 21.980385011606053 3.133257557756539 0 0 0
363 1 0.7754831974580367 20.044843394725742 2.4657741830554816 0 0 1
883 1 3.055808657982941 20.047177180760873 6.274954526751947 0 0 0
760 1 3.937002323228138 21.156868414356186 0.9534801302465252 0 0 0
815 1 3.735776586097349 18.847391618432777 0.6206433968171178 0 0 0
868 1 4.317258275057678 19.927934674784808 4.296249521584795 0 0 0
350 1 1.3182165784639361 22.247480687132285 3.1360129190108244 0 0 0
295 1 7.5075364812606455 17.766993421634243 3.0058597214570577 1 -1 0
652 1 6.135455166978958 21.005060633874756 1.2192019940051286 0 -1 1
708 1 6.356972513156547 19.819576607635227 3.15300731397071 1 0 0
147 1 7.54483381727618 20.615965839891892 4.882174718907845 1 0 0
221 1 8.626430045672072 22.042185651279684 3.4028935374606775 0 0 0
381 1 13.007919069254053 20.46219348425577 5.045086613043199 0 0 0
525 1 9.13465450054361 19.233873755242005 5.598515015486611 0 0 0
122 1 10.240152399667561 20.56526321811912 2.370549710386249 0 -1 0
207 1 9.676144259053922 18.514591543529498 3.4303102100415765 0 0 0
873 1 12.513921587726147 21.148902199690497 2.735170747245089 0 0 0
668 1 9.782297059236033 20.63687857904068 0.06124970092341886 0 0 1
415 1 0.4123547248845093 13.572550204379741 2.432417194574077 0 1 0
992 1 0.1316886589603431 22.605071175685286 5.179683108575301 0 0 0
434 1 -0.16645045267708924 26.40639111225833 5.242357689517173 0 0 0
644 1 0.9220245031757461 24.564416690072232 6.091700542070833 1 -1 1
360 1 2.6886982631577445 25.433416695321373 4.731417959620066 1 0 0
213 1 0.8005621493373245 24.15170557047735 1.6262867173063664 0 0 0
158 1 0.9481791083702189 26.01402246980982 3.1377967232847435 1 0 1
971 1 11.741695459285385 26.69955133336897 4.524415659725107 0 -1 0
30 1 8.510039007632914 24.123590047813348 0.4285028564353912 0 0 0
541 1 4.412030727296992 26.92726576414765 1.468816139272002 0 0 0
423 1 5.770885151404687 23.924394126001197 5.977256323566872 0 0 1
957 1 4.376969033008969 23.92532603447902 4.204853404373504 0 0 0
994 1 7.869198291586125 25.22380404668728 5.56783865310761 0 0 1
41 1 7.057726694242332 23.01891232641465 1.9201361974730617 0 0 0
299 1 5.681509211306071 25.110465343997785 2.506635433410297 1 0 0
163 1 7.4823077012761265 26.182982053453465 3.326498644601496 0 -1 0
22 1 9.415521267401093 25.808113872597477 1.8436111834508147 0 -1 0
237 1 10.961241664398095 24.817538708491448 3.223039888328641 0 -1 1
264 1 12.73187267354244 23.583536774973194 2.212056640458559 0 0 0
694 1 9.568876558809256 23.755539805589006 4.672620503008231 1 0 0
336 1 11.048630848983711 20.55229925011954 6.464465145289556 0 -1 0
452 1 2.2721537531799485 24.505457587788406 -0.16950409910036868 1 0 1
155 1 12.410574927154032 23.865582085508546 -0.15075902827016208 0 0 0
298 1 3.0250121717177763 16.898343128674917 12.306073461913483 0 0 0
699 1 2.481280269094458 15.136231650310174 9.567304766718362 1 0 0
656 1 2.4281562119854465 17.363617447759648 8.51005539264285 0 0 0
547 1 1.0409396785923462 16.082895288236816 11.274721225556583 1 0 0
395 1 0.17284038844403682 14.51183468043963 12.932159809219593 0 0 0
545 1 3.903585229501025 13.619212857527897 10.81152910086435 0 0 0
144 1 4.898517434871444 15.292678536056549 12.387837822503474 0 0 0
36 1 7.473698812372492 15.740611739603462 9.463457901048335 0 0 0
274 1 6.19859439397081 17.059025508841973 8.031634885476512 0 0 0
972 1 6.9693105171608405 16.308678149027422 11.746419121575917 0 0 0
606 1 8.755104291937103 13.688197088872606 11.526307505362873 1 0 0
910 1 9.107417626305956 15.847643896316391 12.288837399959261 0 0 0
923 1 9.618468136134041 15.86620927246297 8.412352600601634 0 0 0
846 1 12.586011388950778 16.744304758507475 12.743396226927164 0 0 0
701 1 10.724316450474072 17.27824364690371 11.49664202125255 0 0 0
294 1 11.163080186729635 17.383144981435407 9.270917478079138 0 0 0
70 1 10.788260351352958 13.88066771456584 8.873940644929082 0 0 1
382 1 13.04666538525751 13.45685557048068 8.311396487683043 0 0 0
811 1 0.7065249045781588 18.854375321224634 9.303621051013673 1 0 0
932 1 1.102515045766727 20.909215966605217 10.229316330013775 0 0 0
810 1 2.660306007848338 20.265663375578136 11.845711434424166 1 0 0
16 1 1.6817595627131057 22.41147501705366 8.491530357624526 1 0 0
266 1 3.8898065153046852 21.82601832433563 13.064568852707572 0 0 0
11 1 4.208276498179559 18.654154228020495 11.260631802077729 1 0 0
104 1 3.95624363562609 22.532308405321096 9.09745493950388 0 0 0
153 1 13.325251075988433 17.060341191519434 8.457746888580749 0 0 0
840 1 4.467233990407046 18.42120599237495 8.933714496328442 0 0 0
522 1 4.716340799526828 20.653113690486823 7.829794836983227 0 -1 0
64 1 8.0404148648649 18.42841618059503 7.577915594681225 0 0 0
942 1 6.329146729463565 18.49209237720943 12.098675584533298 0 0 0
203 1 8.014184805541033 19.99635340809298 11.43957955174554 0 0 0
488 1 8.531091551945162 20.223142219636077 9.259982510115721 0 0 0
540 1 7.596576385729821 22.277130729883837 12.41019259311709 0 0 0
649 1 8.157958833343148 22.292978583904823 8.15799313558121 0 -1 0
469 1 11.552422879220059 24.35731395646049 7.6558088024877256 0 0 0
586 1 10.275541332985128 19.36566400303861 12.26219619158071 0 0 0
223 1 10.784161096827757 19.813951069249107 8.682147255240345 0 0 0
569 1 11.70750423789021 20.740562832551387 10.791411338079019 0 -1 0
257 1 4.157011450849941 26.75860951480193 12.17987258678839 1 -1 0
283 1 1.0329940791503958 24.672110596250466 13.272138568636384 1 0 0
102 1 1.8096853807965454 26.016000645575897 9.632507281101551 1 0 1
576 1 2.674460596211066 24.94494792562405 11.567014813617691 0 0 1
976 1 0.49362811952565955 24.47528850128035 8.509763978261189 1 0 1
557 1 3.835273312914829 26.289382715933215 8.509000027579251 1 0 0
9 1 4.180265568232428 23.214428006457894 11.311641217981608 0 0 0
912 1 6.1496123775927805 25.685796952220333 13.173542773669526 0 0 0
251 1 8.594928819854987 26.167341712890256 9.250914122138594 0 0 0
900 1 5.276851575859583 24.387075821563457 8.142677409799619 1 -1 0
724 1 7.353494780860377 24.207237242347023 9.223354591830972 1 0 0
875 1 6.404730296227723 24.03805961130335 11.427823271855102 0 -1 0
777 1 11.527164186149953 22.90735082794836 11.688698050513157 0 0 0
592 1 11.243151090935893 26.546917645865314 6.831007907469132 0 -1 0
503 1 9.672574898259576 23.076463472573483 13.209373356203244 0 0 0
982 1 10.060162885395 22.792787819385158 6.842337662341612 0 -1 0
366 1 8.940943638286637 26.737299847109306 6.886429389972993 0 0 0
45 1 10.265567579642706 26.42113161125718 10.880732813333116 0 0 0
460 1 11.710522113926947 24.690715484929342 10.213169650516015 0 0 0
548 1 1.9151124347263693 13.451478207423829 8.048206373029872 0 1 0
969 1 0.03407277011485926 26.70832243764761 13.441742861905013 1 0 0
37 1 1.1328740975410172 21.154666932987162 6.687872004384884 1 0 0
801 1 2.1625405833894424 14.393348066996712 18.591700950707963 1 0 0
705 1 1.6840672733874127 16.80812412809904 15.835742347130182 0 0 -1
402 1 0.4374737003932345 14.063832496857797 17.00516501790003 0 0 0
20 1 3.9778942059068703 16.1596886207187 15.870290146366411 1 0 0
1 1 1.7012662720769847 16.2126839443732 19.87185179836724 0 0 0
328 1 1.1649507777415717 17.598310889998075 18.067127000513107 1 0 0
558 1 4.32335670916264 14.605110237797872 17.76219114688536 0 0 0
698 1 4.914965194733513 14.52874939622393 14.527164130929789 0 0 0
235 1 7.295382524777756 14.17348397642658 14.748959240646762 0 0 0
302 1 5.194896935567214 16.352579653145895 19.198701034557637 0 0 0
321 1 8.366284136351704 15.63029957397012 18.149604883953543 0 0 0
882 1 8.864771110142486 15.97111929883733 14.562701113719292 0 0 0
27 1 7.853405857416465 17.818569800761676 17.38245272665466 0 0 0
944 1 7.651809062586752 13.775611978440102 16.993443756207224 0 0 -1
524 1 7.1865903686043655 15.548745207598982 20.200503747305433 1 0 -1
161 1 10.58685596511148 14.975056820755919 15.526113596612145 0 0 0
453 1 12.348161560399399 16.380565089203238 14.99479032081246 0 0 0
862 1 11.821143229374774 16.69428168976351 19.224496362812392 0 0 0
325 1 10.720580769574877 15.109511615150558 17.892865231517202 0 0 0
763 1 2.570387644396598 18.217779299695923 14.078938867214207 0 0 0
372 1 -0.01665217104035077 20.93607326898858 19.430953047065824 1 0 0
500 1 3.098584392216021 20.432967507435677 16.74433648393581 0 0 0
290 1 2.3178518705122566 21.559797060735832 14.816840593770328 0 0 0
80 1 1.7733936638844399 19.696032420027414 18.584025708832776 0 0 0
397 1 0.9955417557443489 19.979075393461542 13.587454398565438 0 0 0
508 1 2.1847889498509843 26.948233253077408 17.013511731855072 0 0 0
926 1 4.391644010128932 18.547022974758974 15.636434296826545 0 0 0
85 1 5.636780829871277 18.36405825185175 17.789096033845485 0 -1 0
653 1 8.391679188703996 18.23218857374089 15.091063300932651 0 0 0
71 1 4.799368917609534 21.954196548010085 17.548443981395934 0 0 0
577 1 6.35075815222307 19.145810249151186 14.399309531845995 0 0 0
603 1 5.502526743464545 20.371569233737567 19.03508175896767 0 0 0
997 1 5.939695814426043 21.38736579257945 13.85725637542216 1 0 0
888 1 8.052395372511532 21.4626870579382 18.412211367539943 0 0 0
18 1 9.189434574032921 19.410193016115525 18.674329124424993 0 -1 0
489 1 11.454270474028988 18.998010078198174 18.238442832729415 0 0 -1
921 1 11.748605869995284 18.523508716185713 16.01225275583694 0 0 0
177 1 10.122775875287974 19.535172070946437 14.635172770351405 0 0 0
893 1 10.169564606044455 21.862657333740493 15.168847470702156 0 -1 0
933 1 13.078603533098311 20.314329561587122 19.399716777190868 -1 0 0
984 1 13.410340191964938 26.395947363722257 20.017069921153478 0 0 0
259 1 1.344278441825571 23.60887938458843 15.429831034969112 0 -1 0
959 1 3.1870667311123 24.95114603376607 16.233398043822437 1 0 0
648 1 3.7758077953070996 23.995206488229336 18.153532241467463 1 0 0
474 1 1.9842893637425947 24.41043613223689 19.559152515786007 1 -1 0
339 1 0.05919789585478813 23.21344272975699 19.05651549968981 0 0 0
496 1 0.027179319765711307 27.04268088314737 18.10955223689233 0 0 0
378 1 8.303221268569583 22.693815912219755 16.41960729500709 0 -1 0
173 1 6.084932930246989 22.77359566176611 15.86767133939112 0 0 0
552 1 5.747491899503823 25.351796414884454 19.02995352889117 0 0 0
327 1 5.341762064978454 24.968206176131783 15.294144950482108 0 0 0
93 1 6.747373185057605 26.17938497594013 16.909374987534413 0 -1 0
642 1 8.710380967916802 25.021527188933117 16.22552013940223 1 0 0
821 1 11.790955212059409 26.85724472889556 16.45801030723389 0 -1 0
544 1 10.307564628237694 25.726204425780402 17.825638100708094 0 -1 0
97 1 9.71209162804285 26.693336903344196 19.741002813856998 0 -1 0
863 1 9.47060578264968 22.821090283105132 19.64428814681908 0 0 0
955 1 9.807434555097036 25.20290071061661 14.298870852213623 0 0 -1
631 1 13.178615587197601 24.081466433986094 20.064905711573477 0 0 0