 vasp.6.5.0 16Dec24 (build Jan 20 2025 08:32:48) complex                         
 executed on        HPECrayEX_GCC date 2025.07.29  01:46:43
 running  128 mpi-ranks, with    1 threads/rank, on    1 nodes
 distrk:  each k-point on  128 cores,    1 groups
 distr:  one band on NCORE=  16 cores,    8 groups


--------------------------------------------------------------------------------------------------------


 INCAR:
   SYSTEM = a-Si SPC
   NCORE = 16
   ISTART = 1
   ICHARG = 1
   ISPIN = 1
   ISYM = 1
   EDIFF = 1E-6
   NELM = 150
   EDIFFG = -0.01
   NSW = 0
   ISIF = 2
   IBRION = -1
   PREC = Accurate
   ENCUT = 1200
   KSPACING = 0.23
   KGAMMA = .TRUE.
   METAGGA = SCAN
   LASPH = .TRUE.
   LDIAG = .FALSE.
   LMIXTAU = .TRUE.
   ADDGRID = .TRUE.
   ALGO = Normal
   ISMEAR = 0
   SIGMA = 0.1
   LORBIT = 11
   NEDOS = 2000
   LWAVE = .FALSE.
   LCHARG = .FALSE.

 POTCAR:    PAW_PBE H 15Jun2001                   
 POTCAR:    PAW_PBE Si 05Jan2001                  
 POTCAR:    PAW_PBE H 15Jun2001                   
   SHA256 =  030f79b5d3ab3cf0e668861823c8fb652ff669f3e15e46930bd03bfd63a607b6 H/POTCAR              
   COPYR  = (c) Copyright 15Jun2001 Georg Kresse                                                    
   COPYR  = This file is part of the software VASP. Any use, copying, and all other rights are regul
   COPYR  = If you do not have a valid VASP license, you may not use, copy or distribute this file. 
   VRHFIN =H: ultrasoft test                                                                        
   LEXCH  = PE                                                                                      
   EATOM  =    12.4884 eV,    0.9179 Ry                                                             
                                                                                                    
   TITEL  = PAW_PBE H 15Jun2001                                                                     
   LULTRA =        F    use ultrasoft PP ?                                                          
   IUNSCR =        0    unscreen: 0-lin 1-nonlin 2-no                                               
   RPACOR =    0.000    partial core radius                                                         
   POMASS =    1.000; ZVAL   =    1.000    mass and valenz                                          
   RCORE  =    1.100    outmost cutoff radius                                                       
   RWIGS  =    0.700; RWIGS  =    0.370    wigner-seitz radius (au A)                               
   ENMAX  =  250.000; ENMIN  =  200.000 eV                                                          
   RCLOC  =    0.701    cutoff for local pot                                                        
   LCOR   =        T    correct aug charges                                                         
   LPAW   =        T    paw PP                                                                      
   EAUG   =  400.000                                                                                
   RMAX   =    1.123    core radius for proj-oper                                                   
   RAUG   =    1.200    factor for augmentation sphere                                              
   RDEP   =    1.112    radius for radial grids                                                     
   RDEPT  =    0.926    core radius for aug-charge                                                  
                                                                                                    
   Atomic configuration                                                                             
    2 entries                                                                                       
     n  l   j            E        occ.                                                              
     1  0  0.50        -6.4927   1.0000                                                             
     2  1  0.50        -3.4015   0.0000                                                             
   Description                                                                                      
     l       E           TYP  RCUT    TYP  RCUT                                                     
     0     -6.4927494     23  1.100                                                                 
     0      6.8029130     23  1.100                                                                 
     1     -4.0817478     23  1.100                                                                 
  local pseudopotential read in
  atomic valenz-charges read in
  non local Contribution for L=           0  read in
    real space projection operators read in
  non local Contribution for L=           0  read in
    real space projection operators read in
  non local Contribution for L=           1  read in
    real space projection operators read in
    PAW grid and wavefunctions read in

   number of l-projection  operators is LMAX  =           3
   number of lm-projection operators is LMMAX =           5

 POTCAR:    PAW_PBE Si 05Jan2001                  
   SHA256 =  79d9987ad8750f624c4d6acb2a16d13abf6a777132adc04dc6c8399be72b42bb Si/POTCAR             
   COPYR  = (c) Copyright 05Jan2001 Georg Kresse                                                    
   COPYR  = This file is part of the software VASP. Any use, copying, and all other rights are regul
   COPYR  = If you do not have a valid VASP license, you may not use, copy or distribute this file. 
   VRHFIN =Si: s2p2                                                                                 
   LEXCH  = PE                                                                                      
   EATOM  =   103.0669 eV,    7.5752 Ry                                                             
                                                                                                    
   TITEL  = PAW_PBE Si 05Jan2001                                                                    
   LULTRA =        F    use ultrasoft PP ?                                                          
   IUNSCR =        1    unscreen: 0-lin 1-nonlin 2-no                                               
   RPACOR =    1.500    partial core radius                                                         
   POMASS =   28.085; ZVAL   =    4.000    mass and valenz                                          
   RCORE  =    1.900    outmost cutoff radius                                                       
   RWIGS  =    2.480; RWIGS  =    1.312    wigner-seitz radius (au A)                               
   ENMAX  =  245.345; ENMIN  =  184.009 eV                                                          
   ICORE  =        2    local potential                                                             
   LCOR   =        T    correct aug charges                                                         
   LPAW   =        T    paw PP                                                                      
   EAUG   =  322.069                                                                                
   DEXC   =    0.000                                                                                
   RMAX   =    1.950    core radius for proj-oper                                                   
   RAUG   =    1.300    factor for augmentation sphere                                              
   RDEP   =    1.993    radius for radial grids                                                     
   RDEPT  =    1.837    core radius for aug-charge                                                  
                                                                                                    
   Atomic configuration                                                                             
    6 entries                                                                                       
     n  l   j            E        occ.                                                              
     1  0  0.50     -1785.8828   2.0000                                                             
     2  0  0.50      -139.4969   2.0000                                                             
     2  1  1.50       -95.5546   6.0000                                                             
     3  0  0.50       -10.8127   2.0000                                                             
     3  1  0.50        -4.0811   2.0000                                                             
     3  2  1.50        -4.0817   0.0000                                                             
   Description                                                                                      
     l       E           TYP  RCUT    TYP  RCUT                                                     
     0    -10.8127223     23  1.900                                                                 
     0     -7.6451159     23  1.900                                                                 
     1     -4.0811372     23  1.900                                                                 
     1      2.4879257     23  1.900                                                                 
     2     -4.0817478      7  1.900                                                                 
  local pseudopotential read in
  partial core-charges read in
  partial kinetic energy density read in
  atomic valenz-charges read in
  non local Contribution for L=           0  read in
    real space projection operators read in
  non local Contribution for L=           0  read in
    real space projection operators read in
  non local Contribution for L=           1  read in
    real space projection operators read in
  non local Contribution for L=           1  read in
    real space projection operators read in
    PAW grid and wavefunctions read in

   number of l-projection  operators is LMAX  =           4
   number of lm-projection operators is LMMAX =           8

 -----------------------------------------------------------------------------
|                                                                             |
|               ----> ADVICE to this user running VASP <----                  |
|                                                                             |
|     You have a (more or less) 'large supercell' and for larger cells it     |
|     might be more efficient to use real-space projection operators.         |
|     Therefore, try LREAL= Auto in the INCAR file.                           |
|     Mind: For very accurate calculation, you might also keep the            |
|     reciprocal projection scheme (i.e. LREAL=.FALSE.).                      |
|                                                                             |
 -----------------------------------------------------------------------------

 -----------------------------------------------------------------------------
|                                                                             |
|               ----> ADVICE to this user running VASP <----                  |
|                                                                             |
|     You enforced a specific xc type in the INCAR file but a different       |
|     type was found in the POTCAR file.                                      |
|     I HOPE YOU KNOW WHAT YOU ARE DOING!                                     |
|                                                                             |
 -----------------------------------------------------------------------------

  PAW_PBE H 15Jun2001                   :
 energy of atom  1       EATOM=  -12.4884
 kinetic energy error for atom=    0.0000 (will be added to EATOM!!)
  PAW_PBE Si 05Jan2001                  :
 energy of atom  2       EATOM= -103.0669
 kinetic energy error for atom=    0.0001 (will be added to EATOM!!)


 POSCAR:  H Si
  positions in cartesian coordinates
  No initial velocities read in


 exchange-correlation table for SCAN
   RHO(1)=    0.500       N(1)  =     2000
   RHO(2)=  100.500       N(2)  =     4000



--------------------------------------------------------------------------------------------------------


 ion  position               nearest neighbor table
   1  0.878  0.196  0.424-  69 1.48
   2  0.480  0.175  0.489-  78 1.48
   3  0.674  0.999  0.603-  51 1.48
   4  0.559  0.888  0.626-  51 1.48
   5  0.506  0.307  0.633-  45 1.48
   6  0.598  0.294  0.453-  57 1.49
   7  0.524  0.090  0.556-   9 0.75
   8  0.517  0.079  0.461-  76 1.48
   9  0.543  0.044  0.563-   7 0.75
  10  0.226  0.310  0.384-  27 1.48
  11  0.645  0.110  0.493-  63 1.48
  12  0.384  0.087  0.620-  61 1.49
  13  0.686  0.062  0.420-  14 0.74
  14  0.662  0.029  0.403-  13 0.74
  15  0.469  0.948  0.413-  76 1.48
  16  0.747  0.290  0.416-  69 1.48
  17  0.715  0.183  0.635-  68 1.48
  18  0.769  0.875  0.496-  56 2.33  19 2.36  65 2.38  41 2.40
  19  0.870  0.764  0.463-  42 2.31  55 2.32  18 2.36  40 2.42
  20  0.720  0.654  0.558-  29 2.37  34 2.37  55 2.37  41 2.40
  21  0.459  0.728  0.571-  25 2.37  66 2.40  67 2.44  29 2.65
  22  0.997  0.527  0.458-  75 2.33  71 2.35  60 2.42  64 2.45
  23  0.154  0.126  0.442-  73 2.34  43 2.44  27 2.47  52 2.49
  24  0.332  0.329  0.491-  78 2.33  32 2.36  36 2.38  27 2.39
  25  0.515  0.768  0.488-  62 2.30  65 2.31  21 2.37  74 2.39  66 2.63
  26  0.180  0.122  0.585-  73 2.37  61 2.37  70 2.38  35 2.39
  27  0.204  0.287  0.438-  10 1.48  24 2.39  60 2.45  23 2.47
  28  0.905  0.825  0.609-  41 2.30  40 2.33  54 2.35
  29  0.572  0.587  0.558-  62 2.33  20 2.37  33 2.40  21 2.65
  30  0.166  0.704  0.456-  75 2.28  38 2.32  37 2.34  39 2.36  66 2.90
  31  0.397  0.583  0.438-  32 2.32  38 2.33  62 2.35  74 2.48  66 2.97
  32  0.429  0.427  0.443-  31 2.32  57 2.35  24 2.36
  33  0.610  0.427  0.548-  57 2.34  45 2.35  46 2.39  29 2.40
  34  0.825  0.532  0.568-  64 2.36  20 2.37  46 2.41  71 2.56  55 3.11  59 3.14
  35  0.127  0.974  0.612-  54 2.30  50 2.33  26 2.39  72 2.94
  36  0.272  0.370  0.573-  48 2.29  24 2.38  70 2.39
  37  0.266  0.822  0.433-  30 2.34  74 2.35  52 2.45  66 2.56
  38  0.267  0.597  0.490-  30 2.32  66 2.33  31 2.33  48 2.33
  39  0.110  0.777  0.530-  40 2.30  44 2.32  50 2.35  30 2.36
  40  0.958  0.737  0.541-  39 2.30  28 2.33  64 2.35  19 2.42
  41  0.757  0.809  0.580-  28 2.30  51 2.33  18 2.40  20 2.40
  42  0.952  0.773  0.387-  19 2.31  75 2.32  77 2.32
  43  0.040  0.064  0.383-  79 2.32  77 2.36  23 2.44
  44  0.087  0.921  0.494-  39 2.32  52 2.35  77 2.37  72 2.39
  45  0.543  0.292  0.581-   5 1.48  33 2.35  78 2.37  68 2.39
  46  0.760  0.379  0.574-  59 2.33  33 2.39  34 2.41  68 2.43
  47  0.025  0.300  0.530-  60 2.34  73 2.37  59 2.39  70 2.40
  48  0.188  0.487  0.538-  36 2.29  38 2.33  58 2.34  60 2.41
  49  0.355  0.978  0.518-  61 2.34  52 2.34  67 2.37  76 2.37
  50  0.193  0.829  0.602-  67 2.31  35 2.33  39 2.35
  51  0.633  0.909  0.589-   4 1.48   3 1.48  41 2.33  65 2.36
  52  0.228  0.976  0.464-  49 2.34  44 2.35  37 2.45  23 2.49
  53  0.706  0.473  0.422-  80 2.32  57 2.37  71 2.39  55 2.92
  54  0.970  0.971  0.623-  35 2.30  72 2.31  28 2.35
  55  0.767  0.643  0.471-  80 2.32  19 2.32  20 2.37  71 2.45  53 2.92  34 3.11
  56  0.839  0.019  0.496-  18 2.33  72 2.34  63 2.39  79 2.40
  57  0.583  0.395  0.462-   6 1.49  33 2.34  32 2.35  53 2.37
  58  0.108  0.581  0.596-  64 2.32  48 2.34
  59  0.871  0.346  0.512-  69 2.31  46 2.33  47 2.39  71 2.41  34 3.14
  60  0.102  0.403  0.476-  47 2.34  48 2.41  22 2.42  27 2.45
  61  0.340  0.108  0.570-  12 1.49  49 2.34  78 2.36  26 2.37
  62  0.544  0.615  0.471-  25 2.30  80 2.31  29 2.33  31 2.35  74 3.09
  63  0.736  0.142  0.512-  11 1.48  69 2.34  68 2.38  56 2.39
  64  0.975  0.577  0.547-  58 2.32  40 2.35  34 2.36  22 2.45  71 3.01
  65  0.607  0.895  0.501-  25 2.31  76 2.34  51 2.36  18 2.38
  66  0.341  0.735  0.507-  38 2.33  67 2.33  21 2.40  74 2.49  37 2.56  25 2.63  30 2.90  31 2.97

  67  0.341  0.847  0.571-  50 2.31  66 2.33  49 2.37  21 2.44
  68  0.694  0.228  0.586-  17 1.48  63 2.38  45 2.39  46 2.43
  69  0.807  0.244  0.455-  16 1.48   1 1.48  59 2.31  63 2.34
  70  0.141  0.279  0.595-  26 2.38  36 2.39  47 2.40  73 2.97
  71  0.841  0.492  0.473-  22 2.35  53 2.39  59 2.41  55 2.45  34 2.56  64 3.01
  72  0.981  0.017  0.538-  54 2.31  56 2.34  73 2.35  44 2.39  35 2.94
  73  0.072  0.145  0.518-  23 2.34  72 2.35  26 2.37  47 2.37  70 2.97
  74  0.408  0.749  0.419-  37 2.35  25 2.39  31 2.48  66 2.49  62 3.09
  75  0.046  0.650  0.409-  30 2.28  42 2.32  22 2.33
  76  0.488  0.982  0.466-  15 1.48   8 1.48  65 2.34  49 2.37
  77  0.011  0.914  0.413-  42 2.32  79 2.36  43 2.36  44 2.37
  78  0.429  0.223  0.530-   2 1.48  24 2.33  61 2.36  45 2.37
  79  0.893  0.024  0.409-  43 2.32  77 2.36  56 2.40
  80  0.656  0.622  0.409-  62 2.31  55 2.32  53 2.32

  LATTYP: Found a simple tetragonal cell.
 ALAT       =    14.5733989906
 C/A-ratio  =     1.7895941789
  
  Lattice vectors:
  
 A1 = (  14.5733989906,   0.0000000000,   0.0000000000)
 A2 = (   0.0000000000,  14.5733989906,   0.0000000000)
 A3 = (   0.0000000000,   0.0000000000,  26.0804700000)


Analysis of symmetry for initial positions (statically):
=====================================================================
 Subroutine PRICEL returns:
 Original cell was already a primitive cell.
 

 Routine SETGRP: Setting up the symmetry group for a 
 simple tetragonal supercell.


 Subroutine GETGRP returns: Found  1 space group operations
 (whereof  1 operations were pure point group operations)
 out of a pool of 16 trial point group operations.


The static configuration has the point symmetry C_1 .


Analysis of symmetry for dynamics (positions and initial velocities):
=====================================================================
 Subroutine PRICEL returns:
 Original cell was already a primitive cell.
 

 Routine SETGRP: Setting up the symmetry group for a 
 simple tetragonal supercell.


 Subroutine GETGRP returns: Found  1 space group operations
 (whereof  1 operations were pure point group operations)
 out of a pool of 16 trial point group operations.


The dynamic configuration has the point symmetry C_1 .


 Subroutine INISYM returns: Found  1 space group operations
 (whereof  1 operations are pure point group operations),
 and found     1 'primitive' translations


----------------------------------------------------------------------------------------

                                     Primitive cell                                     

  volume of cell :    5539.0734

  direct lattice vectors                    reciprocal lattice vectors
    14.573398991  0.000000000  0.000000000     0.068618172  0.000000000  0.000000000
     0.000000000 14.573398991  0.000000000     0.000000000  0.068618172  0.000000000
     0.000000000  0.000000000 26.080470000     0.000000000  0.000000000  0.038342867

  length of vectors
    14.573398991 14.573398991 26.080470000     0.068618172  0.068618172  0.038342867

  position of ions in fractional coordinates (direct lattice)
     0.878128006  0.196064876  0.423971804
     0.480423714  0.174896828  0.488739420
     0.673566199  0.999289674  0.602564402
     0.559093017  0.887676532  0.626215602
     0.505848981  0.307073240  0.633347225
     0.597595445  0.294432554  0.453468145
     0.524369128  0.090273249  0.555786258
     0.516510219  0.078990079  0.461195774
     0.543340982  0.044372963  0.563441977
     0.225808596  0.309585295  0.384113093
     0.645407667  0.109725157  0.492644710
     0.384220226  0.086944989  0.620106592
     0.686186865  0.061973800  0.420409979
     0.661911756  0.029311570  0.403195562
     0.468741774  0.948441167  0.413348813
     0.747313993  0.290229654  0.416442153
     0.715042313  0.182938195  0.635052977
     0.768866527  0.874908582  0.496144307
     0.870287796  0.763608883  0.463324920
     0.719565325  0.654154010  0.557912530
     0.459298364  0.728031840  0.570511424
     0.996631374  0.526772049  0.458092054
     0.154371933  0.125535708  0.442012265
     0.331851421  0.329126570  0.491136494
     0.514712015  0.767807894  0.487861394
     0.179746072  0.121532074  0.584729778
     0.204406424  0.287139981  0.438340940
     0.905106667  0.825212135  0.609137509
     0.571899672  0.586738446  0.557596902
     0.166153143  0.704042825  0.456164121
     0.396841799  0.582500331  0.438314546
     0.428907305  0.426780346  0.443305206
     0.609876937  0.427047437  0.548379161
     0.824797181  0.531502926  0.567929644
     0.126972460  0.973919158  0.611955945
     0.272371212  0.369735380  0.573075481
     0.265884966  0.822435929  0.432653528
     0.267300681  0.596503559  0.489881424
     0.109701844  0.777202184  0.530271343
     0.958290163  0.737336091  0.540730495
     0.757041076  0.809494495  0.580281268
     0.951722191  0.772869794  0.387337993
     0.039688635  0.063609042  0.383471545
     0.086647814  0.920619519  0.493710051
     0.543349044  0.292174172  0.581200624
     0.760321582  0.379462307  0.573837391
     0.025438921  0.299632768  0.530087684
     0.188452205  0.487472288  0.538431592
     0.355153189  0.978389734  0.518102172
     0.193336839  0.829386205  0.601725874
     0.632928266  0.909028970  0.589389308
     0.227704938  0.976439653  0.463649123
     0.706332114  0.473351264  0.422274780
     0.970120483  0.971041923  0.622983906
     0.767339938  0.642901109  0.471220054
     0.838906881  0.018735594  0.495692222
     0.583068619  0.394597152  0.461878876
     0.107971512  0.581247807  0.595579478
     0.870916323  0.345726840  0.512404929
     0.101820080  0.402559337  0.475823124
     0.339856733  0.108147873  0.569945682
     0.543532831  0.615378907  0.471197465
     0.735606524  0.142472244  0.511578741
     0.975383306  0.577254163  0.546735058
     0.607135729  0.894658405  0.500564461
     0.340859146  0.734876395  0.506940133
     0.341011759  0.846812996  0.570847985
     0.693989769  0.228303586  0.585749597
     0.806736621  0.243722465  0.454638225
     0.141237442  0.279222895  0.594738417
     0.841415828  0.491885173  0.472874327
     0.980627033  0.016954439  0.538224683
     0.071873647  0.145298466  0.518115213
     0.407612008  0.748673589  0.419402091
     0.045993550  0.650301345  0.408585840
     0.488004803  0.981950679  0.465725328
     0.010556256  0.913526206  0.413316117
     0.428806983  0.222935125  0.529810126
     0.892522721  0.023621682  0.408820751
     0.656141531  0.622431109  0.408844993

  ion indices of the primitive-cell ions
   primitive index   ion index
                 1           1
                 2           2
                 3           3
                 4           4
                 5           5
                 6           6
                 7           7
                 8           8
                 9           9
                10          10
                11          11
                12          12
                13          13
                14          14
                15          15
                16          16
                17          17
                18          18
                19          19
                20          20
                21          21
                22          22
                23          23
                24          24
                25          25
                26          26
                27          27
                28          28
                29          29
                30          30
                31          31
                32          32
                33          33
                34          34
                35          35
                36          36
                37          37
                38          38
                39          39
                40          40
                41          41
                42          42
                43          43
                44          44
                45          45
                46          46
                47          47
                48          48
                49          49
                50          50
                51          51
                52          52
                53          53
                54          54
                55          55
                56          56
                57          57
                58          58
                59          59
                60          60
                61          61
                62          62
                63          63
                64          64
                65          65
                66          66
                67          67
                68          68
                69          69
                70          70
                71          71
                72          72
                73          73
                74          74
                75          75
                76          76
                77          77
                78          78
                79          79
                80          80

----------------------------------------------------------------------------------------


 -----------------------------------------------------------------------------
|                                                                             |
|           W    W    AA    RRRRR   N    N  II  N    N   GGGG   !!!           |
|           W    W   A  A   R    R  NN   N  II  NN   N  G    G  !!!           |
|           W    W  A    A  R    R  N N  N  II  N N  N  G       !!!           |
|           W WW W  AAAAAA  RRRRR   N  N N  II  N  N N  G  GGG   !            |
|           WW  WW  A    A  R   R   N   NN  II  N   NN  G    G                |
|           W    W  A    A  R    R  N    N  II  N    N   GGGG   !!!           |
|                                                                             |
|     The requested file  could not be found or opened for reading            |
|     k-point information. Automatic k-point generation is used as a          |
|     fallback, which may lead to unwanted results.                           |
|                                                                             |
 -----------------------------------------------------------------------------



Automatic generation of k-mesh.
 Grid dimensions derived from KSPACING:
 generate k-points for:    2    2    2

 Generating k-lattice:

  Cartesian coordinates                     Fractional coordinates (reciprocal lattice)
     0.034309086  0.000000000  0.000000000     0.500000000  0.000000000  0.000000000
     0.000000000  0.034309086  0.000000000     0.000000000  0.500000000  0.000000000
     0.000000000  0.000000000  0.019171434     0.000000000  0.000000000  0.500000000

  Length of vectors
     0.034309086  0.034309086  0.019171434

  Shift w.r.t. Gamma in fractional coordinates (k-lattice)
     0.000000000  0.000000000  0.000000000

 
 Subroutine IBZKPT returns following result:
 ===========================================
 
 Found      8 irreducible k-points:
 
 Following reciprocal coordinates:
            Coordinates               Weight
  0.000000  0.000000  0.000000      1.000000
  0.500000  0.000000  0.000000      1.000000
  0.000000  0.500000  0.000000      1.000000
  0.500000  0.500000  0.000000      1.000000
  0.000000  0.000000  0.500000      1.000000
  0.500000  0.000000  0.500000      1.000000
  0.000000  0.500000  0.500000      1.000000
  0.500000  0.500000  0.500000      1.000000
 
 Following cartesian coordinates:
            Coordinates               Weight
  0.000000  0.000000  0.000000      1.000000
  0.034309  0.000000  0.000000      1.000000
  0.000000  0.034309  0.000000      1.000000
  0.034309  0.034309  0.000000      1.000000
  0.000000  0.000000  0.019171      1.000000
  0.034309  0.000000  0.019171      1.000000
  0.000000  0.034309  0.019171      1.000000
  0.034309  0.034309  0.019171      1.000000
 


--------------------------------------------------------------------------------------------------------




 Dimension of arrays:
   k-points           NKPTS =      8   k-points in BZ     NKDIM =      8   number of bands    NBANDS=    176
   number of dos      NEDOS =   2000   number of ions     NIONS =     80
   non local maximal  LDIM  =      4   non local SUM 2l+1 LMDIM =      8
   total plane-waves  NPLWV = ******
   max r-space proj   IRMAX =      1   max aug-charges    IRDMAX= 409029
   dimension x,y,z NGX =   168 NGY =  168 NGZ =  300
   dimension x,y,z NGXF=   336 NGYF=  336 NGZF=  600
   support grid    NGXF=   672 NGYF=  672 NGZF= 1200
   ions per type =              17  63
   NGX,Y,Z   is equivalent  to a cutoff of  19.16, 19.16, 19.12 a.u.
   NGXF,Y,Z  is equivalent  to a cutoff of  38.33, 38.33, 38.25 a.u.

 SYSTEM =  a-Si SPC                                
 POSCAR =   H Si                                   

 Startparameter for this run:
   NWRITE =      2    write-flag & timer
   PREC   = accura    normal or accurate (medium, high low for compatibility)
   ISTART =      1    job   : 0-new  1-cont  2-samecut
   ICHARG =      1    charge: 1-file 2-atom 10-const
   ISPIN  =      1    spin polarized calculation?
   LNONCOLLINEAR =      F non collinear calculations
   LSORBIT =      F    spin-orbit coupling
   INIWAV =      1    electr: 0-lowe 1-rand  2-diag
   LASPH  =      T    aspherical Exc in radial PAW
 Electronic Relaxation 1
   ENCUT  = 1200.0 eV  88.20 Ry    9.39 a.u.  41.16 41.16 73.67*2*pi/ulx,y,z
   ENINI  = 1200.0     initial cutoff
   ENAUG  =  400.0 eV  augmentation charge cutoff
   NELM   =    150;   NELMIN=  2; NELMDL=  0     # of ELM steps 
   EDIFF  = 0.1E-05   stopping-criterion for ELM
   LREAL  =      F    real-space projection
   NLSPLINE    = F    spline interpolate recip. space projectors
   LCOMPAT=      F    compatible to vasp.4.4
   GGA_COMPAT  = T    GGA compatible to vasp.4.4-vasp.4.6
   LMAXPAW     = -100 max onsite density
   LMAXMIX     =    2 max onsite mixed and CHGCAR
   VOSKOWN=      0    Vosko Wilk Nusair interpolation
   ROPT   =    0.00000   0.00000
 Ionic relaxation
   EDIFFG = -.1E-01   stopping-criterion for IOM
   NSW    =      0    number of steps for IOM
   NBLOCK =      1;   KBLOCK =      1    inner block; outer block 
   IBRION =     -1    ionic relax: 0-MD 1-quasi-New 2-CG
   NFREE  =      0    steps in history (QN), initial steepest desc. (CG)
   ISIF   =      2    stress and relaxation
   IWAVPR =     10    prediction:  0-non 1-charg 2-wave 3-comb
   ISYM   =      1    0-nonsym 1-usesym 2-fastsym
   LCORR  =      T    Harris-Foulkes like correction to forces

   POTIM  = 0.5000    time-step for ionic-motion
   TEIN   =    0.0    initial temperature
   TEBEG  =    0.0;   TEEND  =   0.0 temperature during run
   SMASS  =  -3.00    Nose mass-parameter (am)
   estimated Nose-frequenzy (Omega)   =  0.10E-29 period in steps = 0.13E+47 mass=  -0.485E-26a.u.
   SCALEE = 1.0000    scale energy and forces
   NPACO  =    256;   APACO  = 10.0  distance and # of slots for P.C.
   PSTRESS=    0.0 pullay stress

  Mass of Ions in am
   POMASS =   1.00 28.09
  Ionic Valenz
   ZVAL   =   1.00  4.00
  Atomic Wigner-Seitz radii
   RWIGS  =  -1.00 -1.00
  virtual crystal weights 
   VCA    =   1.00  1.00
   NELECT =     269.0000    total number of electrons
   NUPDOWN=      -1.0000    fix difference up-down

 DOS related values:
   EMIN   =  10.00;   EMAX   =-10.00  energy-range for DOS
   EFERMI =   0.00;   METHOD = LEGACY      
   ISMEAR =     0;   SIGMA  =   0.10  broadening in eV -4-tet -1-fermi 0-gaus
   EFERMI_NEDOS =   21; number of points for ismear=-14 and -15

 Electronic relaxation 2 (details)
   IALGO  =     38    algorithm
   LDIAG  =      F    sub-space diagonalisation (order eigenvalues)
   LSUBROT=      F    optimize rotation matrix (better conditioning)
   TURBO    =      0    0=normal 1=particle mesh
   IRESTART =      0    0=no restart 2=restart with 2 vectors
   NREBOOT  =      0    no. of reboots
   NMIN     =      0    reboot dimension
   EREF     =   0.00    reference energy to select bands
   IMIX   =      4    mixing-type and parameters
     AMIX     =   0.40;   BMIX     =  1.00
     AMIX_MAG =   1.60;   BMIX_MAG =  1.00
     AMIN     =   0.10
     WC   =   100.;   INIMIX=   1;  MIXPRE=   1;  MAXMIX= -45

 Intra band minimization:
   WEIMIN = 0.0000     energy-eigenvalue tresh-hold
   EBREAK =  0.14E-08  absolut break condition
   DEPER  =   0.30     relativ break condition  

   TIME   =   0.40     timestep for ELM

  volume/ion in A,a.u.               =      69.24       467.24
  Fermi-wavevector in a.u.,A,eV,Ry     =   0.597283  1.128701  4.853831  0.356747
  Thomas-Fermi vector in A             =   1.647949

 Write flags
   LWAVE        =      F    write WAVECAR
   LDOWNSAMPLE  =      F    k-point downsampling of WAVECAR
   LCHARG       =      F    write CHGCAR
   LVTOT        =      F    write LOCPOT, total local potential
   LVHAR        =      F    write LOCPOT, Hartree potential only
   WRT_POTENTIAL= false  ! write potential to hdf5 file
   LELF         =      F    write electronic localiz. function (ELF)
   LORBIT       =     11    0 simple, 1 ext, 2 COOP (PROOUT), +10 PAW based schemes


 Python interface
   PLUGINS active      =      F    recompile with -DPLUGINS to activate

 Dipole corrections
   LMONO      =      F    monopole corrections only (constant potential shift)
   LDIPOL     =      F    correct potential (dipole corrections)
   IDIPOL     =      0    1-x, 2-y, 3-z, 4-all directions 
   EPSILON    =  1.0000000 bulk dielectric constant
   LVACPOTAV  =      F  vacuum potentials using an averaging scheme for the charge density
   VACPOTFLAT =  0.1000000 required flatness to determine vacuum potential

Coulomb truncation method
  LTRUNCATE          =      F  Coulomb kernel truncation to be used
  IDIMENSIONALITY    =      3  Dimensionality of cutoff (0 molecules / 2 surfaces)
  ISURFACE           =     -1  Direction of surface normal
  LCOARSEN           =      F  Coarsen the charge grid before padding, preferred


 Exchange correlation treatment:
   METAGGA = SCAN    functional components
   XC_C    = 1    coefficients multiplying the functional components
   LIBXC   =     F    Libxc                    
   VOSKOWN =     0    Vosko Wilk Nusair interpolation
   LHFCALC =     F    Hartree Fock is set to
   LHFONE  =     F    Hartree Fock one center treatment
   AEXX    =    0.0000 exact exchange contribution

 Parameters of functionals:
   SCAN:
     P1 =  0.000000E+00
     P2 =  0.000000E+00
     P3 =  0.000000E+00

 Accuracy and mixing parameters for tau-dependent meta-GGA functionals:
   LMAXTAU = 6
   LMIXTAU = T

 Van der Waals corrections
   IVDW    =     0    specifies the selected vdW correction

 Linear response parameters
   LEPSILON=     F    determine dielectric tensor
   LRPA    =     F    only Hartree local field effects (RPA)
   LNABLA  =     F    use nabla operator in PAW spheres
   LVEL    =     F    velocity operator in full k-point grid
   CSHIFT  =0.1000    complex shift for real part using Kramers Kronig
   OMEGAMAX=  -1.0    maximum frequency
   DEG_THRESHOLD= 0.2000000E-02 threshold for treating states as degnerate
   RTIME   =   -0.100 relaxation time in fs
  (WPLASMAI=    0.000 imaginary part of plasma frequency in eV, 0.658/RTIME)
   DFIELD  = 0.0000000 0.0000000 0.0000000 field for delta impulse in time

  Optional k-point grid parameters
   LKPOINTS_OPT  =     F    use optional k-point grid
   KPOINTS_OPT_MODE=     1    mode for optional k-point grid

 Orbital magnetization related:
   ORBITALMAG=     F  switch on orbital magnetization
   LCHIMAG   =     F  perturbation theory with respect to B field
   DQ        =  0.001000  dq finite difference perturbation B field
   LLRAUG    =     F  two centre corrections for induced B field
   LBONE     =     F  B-component reconstruction in AE one-centre
   LVGVCALC  =     T  calculate vGv susceptibility
   LVGVAPPL  =     F  apply vGv susceptibility instead of pGv for G=0

 Random number generation:
   RANDOM_GENERATOR = DEFAULT
   PCG_SEED         = not used


--------------------------------------------------------------------------------------------------------


 Static calculation
 charge density and potential will be updated during run
 non-spin polarized calculation
 Variant of blocked Davidson
 perform Loewdin sub-space diagonalisation
    ordering is kept fixed
    before iterative eigenvector-optimisation
 modified Broyden-mixing scheme, WC =      100.0
 initial mixing is a Kerker type mixing with AMIX =  0.4000 and BMIX =      1.0000
 Hartree-type preconditioning will be used
 using additional bands           41
 reciprocal scheme for non local part
 use partial core corrections
 calculate Harris-corrections to forces   (improved forces if not selfconsistent)
 use gradient corrections 
 use of overlap-Matrix (Vanderbilt PP)
 Gauss-broadening in eV      SIGMA  =   0.10


--------------------------------------------------------------------------------------------------------


  energy-cutoff  :     1200.00
  volume of cell :     5539.07
      direct lattice vectors                 reciprocal lattice vectors
    14.573398991  0.000000000  0.000000000     0.068618172  0.000000000  0.000000000
     0.000000000 14.573398991  0.000000000     0.000000000  0.068618172  0.000000000
     0.000000000  0.000000000 26.080470000     0.000000000  0.000000000  0.038342867

  length of vectors
    14.573398991 14.573398991 26.080470000     0.068618172  0.068618172  0.038342867



 old parameters found on file WAVECAR:
  energy-cutoff  :     1200.00
  volume of cell :     5539.07
      direct lattice vectors                 reciprocal lattice vectors
    14.573398991  0.000000000  0.000000000     0.068618172  0.000000000  0.000000000
     0.000000000 14.573398991  0.000000000     0.000000000  0.068618172  0.000000000
     0.000000000  0.000000000 26.080470000     0.000000000  0.000000000  0.038342867

  length of vectors


 k-points in units of 2pi/SCALE and weight: read from INCAR                         
   0.00000000  0.00000000  0.00000000       0.125
   0.03430909  0.00000000  0.00000000       0.125
   0.00000000  0.03430909  0.00000000       0.125
   0.03430909  0.03430909  0.00000000       0.125
   0.00000000  0.00000000  0.01917143       0.125
   0.03430909  0.00000000  0.01917143       0.125
   0.00000000  0.03430909  0.01917143       0.125
   0.03430909  0.03430909  0.01917143       0.125

 k-points in reciprocal lattice and weights: read from INCAR                         
   0.00000000  0.00000000  0.00000000       0.125
   0.50000000  0.00000000  0.00000000       0.125
   0.00000000  0.50000000  0.00000000       0.125
   0.50000000  0.50000000  0.00000000       0.125
   0.00000000  0.00000000  0.50000000       0.125
   0.50000000  0.00000000  0.50000000       0.125
   0.00000000  0.50000000  0.50000000       0.125
   0.50000000  0.50000000  0.50000000       0.125

 position of ions in fractional coordinates (direct lattice) 
   0.87812801  0.19606488  0.42397180
   0.48042371  0.17489683  0.48873942
   0.67356620  0.99928967  0.60256440
   0.55909302  0.88767653  0.62621560
   0.50584898  0.30707324  0.63334722
   0.59759544  0.29443255  0.45346815
   0.52436913  0.09027325  0.55578626
   0.51651022  0.07899008  0.46119577
   0.54334098  0.04437296  0.56344198
   0.22580860  0.30958530  0.38411309
   0.64540767  0.10972516  0.49264471
   0.38422023  0.08694499  0.62010659
   0.68618687  0.06197380  0.42040998
   0.66191176  0.02931157  0.40319556
   0.46874177  0.94844117  0.41334881
   0.74731399  0.29022965  0.41644215
   0.71504231  0.18293819  0.63505298
   0.76886653  0.87490858  0.49614431
   0.87028780  0.76360888  0.46332492
   0.71956532  0.65415401  0.55791253
   0.45929836  0.72803184  0.57051142
   0.99663137  0.52677205  0.45809205
   0.15437193  0.12553571  0.44201227
   0.33185142  0.32912657  0.49113649
   0.51471202  0.76780789  0.48786139
   0.17974607  0.12153207  0.58472978
   0.20440642  0.28713998  0.43834094
   0.90510667  0.82521213  0.60913751
   0.57189967  0.58673845  0.55759690
   0.16615314  0.70404283  0.45616412
   0.39684180  0.58250033  0.43831455
   0.42890730  0.42678035  0.44330521
   0.60987694  0.42704744  0.54837916
   0.82479718  0.53150293  0.56792964
   0.12697246  0.97391916  0.61195594
   0.27237121  0.36973538  0.57307548
   0.26588497  0.82243593  0.43265353
   0.26730068  0.59650356  0.48988142
   0.10970184  0.77720218  0.53027134
   0.95829016  0.73733609  0.54073049
   0.75704108  0.80949450  0.58028127
   0.95172219  0.77286979  0.38733799
   0.03968864  0.06360904  0.38347155
   0.08664781  0.92061952  0.49371005
   0.54334904  0.29217417  0.58120062
   0.76032158  0.37946231  0.57383739
   0.02543892  0.29963277  0.53008768
   0.18845221  0.48747229  0.53843159
   0.35515319  0.97838973  0.51810217
   0.19333684  0.82938621  0.60172587
   0.63292827  0.90902897  0.58938931
   0.22770494  0.97643965  0.46364912
   0.70633211  0.47335126  0.42227478
   0.97012048  0.97104192  0.62298391
   0.76733994  0.64290111  0.47122005
   0.83890688  0.01873559  0.49569222
   0.58306862  0.39459715  0.46187888
   0.10797151  0.58124781  0.59557948
   0.87091632  0.34572684  0.51240493
   0.10182008  0.40255934  0.47582312
   0.33985673  0.10814787  0.56994568
   0.54353283  0.61537891  0.47119746
   0.73560652  0.14247224  0.51157874
   0.97538331  0.57725416  0.54673506
   0.60713573  0.89465841  0.50056446
   0.34085915  0.73487640  0.50694013
   0.34101176  0.84681300  0.57084798
   0.69398977  0.22830359  0.58574960
   0.80673662  0.24372246  0.45463823
   0.14123744  0.27922290  0.59473842
   0.84141583  0.49188517  0.47287433
   0.98062703  0.01695444  0.53822468
   0.07187365  0.14529847  0.51811521
   0.40761201  0.74867359  0.41940209
   0.04599355  0.65030135  0.40858584
   0.48800480  0.98195068  0.46572533
   0.01055626  0.91352621  0.41331612
   0.42880698  0.22293512  0.52981013
   0.89252272  0.02362168  0.40882075
   0.65614153  0.62243111  0.40884499

 position of ions in cartesian coordinates  (Angst):
  12.79730980  2.85733167 11.05738392
   7.00140647  2.54884126 12.74655378
   9.81614896 14.56304712 15.71516281
   8.14788561 12.93646427 16.33199722
   7.37193903  4.47510085 16.51799330
   8.70899685  4.29088308 11.82666236
   7.64184052  1.31558807 14.49516684
   7.52730950  1.15115394 12.02820256
   7.91832492  0.64666489 14.69483158
   3.29079877  4.51171003 10.01784999
   9.40578344  1.59906849 12.84840558
   5.59939466  1.26708401 16.17267137
  10.00007497  0.90316892 10.96448985
   9.64630411  0.42716921 10.51552976
   6.83116090 13.82201154 10.78033131
  10.89090499  4.22963255 10.86100708
  10.42059692  2.66603130 16.56248011
  11.20499867 12.75039185 12.93967672
  12.68305129 11.12837693 12.08373168
  10.48651258  9.53324739 14.55062101
   6.69353831 10.60989848 14.87920609
  14.52430666  7.67685925 11.94725608
   2.24972377  1.82948196 11.52788762
   4.83620317  4.79649282 12.80907060
   7.50110356 11.18957079 12.72365444
   2.61951122  1.77113540 15.25002743
   2.97889637  4.18460551 11.43213774
  13.19048058 12.02614569 15.88659254
   8.33452210  8.55077348 14.54238927
   2.42141604 10.26029700 11.89697466
   5.78333388  8.48900973 11.43144937
   6.25063728  6.21964027 11.56160813
   8.88797994  6.22353269 14.30198626
  12.02009841  7.74580421 14.81187205
   1.85042032 14.19331248 15.96009866
   3.96937434  5.38830121 14.94607788
   3.87484769 11.98568694 11.28380735
   3.89547947  8.69308437 12.77633778
   1.59872874 11.32647752 13.82972586
  13.96554490 10.74549304 14.10250545
  11.03266165 11.79708626 15.13400819
  13.86982722 11.26333987 10.10195691
   0.57839832  0.92699995 10.00111813
   1.26275317 13.41655557 12.87619018
   7.91844241  4.25797079 15.15798544
  11.08046978  5.53005560 14.96594886
   0.37073154  4.36666788 13.82493594
   2.74638918  7.10412815 14.04254897
   5.17578912 14.25846396 13.51234815
   2.81757490 12.08697609 15.69329361
   9.22391615 13.24764187 15.37155017
   3.31843492 14.23004466 12.09218704
  10.29365971  6.89833684 11.01312472
  14.13795287 14.15138138 16.24771308
  11.18275108  9.36925437 12.28964047
  12.22572470  0.27304128 12.92788612
   8.49729163  5.75062173 12.04601816
   1.57351193  8.47075620 15.53299272
  12.69221106  5.03841518 13.36376138
   1.48386465  5.86665783 12.40969071
   4.95286777  1.57608210 14.86445126
   7.92112081  8.96816234 12.28905135
  10.72028738  2.07630485 13.34221401
  14.21465009  8.41255523 14.25910727
   8.84803122 13.03821390 13.05495641
   4.96747633 10.70964692 13.22123692
   4.96970042 12.34094366 14.88798374
  10.11378980  3.32715925 15.27662479
  11.75689466  3.55186472 11.85717860
   2.05830959  4.06922666 15.51105745
  12.26228858  7.16843889 12.33278470
  14.29106902  0.24708381 14.03715271
   1.04744334  2.11749252 13.51268827
   5.94029243 10.91071893 10.93820364
   0.67028235  9.47710097 10.65611074
   7.11188870 14.31035903 12.14633544
   0.15384053 13.31318189 10.77947860
   6.24917525  3.24892252 13.81769710
  13.00708972  0.34424819 10.66223734
   9.56221232  9.07093690 10.66286957



--------------------------------------------------------------------------------------------------------


 k-point     1 :   0.0000 0.0000 0.0000  plane waves:  522763
 k-point     2 :   0.5000 0.0000 0.0000  plane waves:  522910
 k-point     3 :   0.0000 0.5000 0.0000  plane waves:  522910
 k-point     4 :   0.5000 0.5000 0.0000  plane waves:  523116
 k-point     5 :   0.0000 0.0000 0.5000  plane waves:  522724
 k-point     6 :   0.5000 0.0000 0.5000  plane waves:  522792
 k-point     7 :   0.0000 0.5000 0.5000  plane waves:  522792
 k-point     8 :   0.5000 0.5000 0.5000  plane waves:  522784

 maximum and minimum number of plane-waves per node :     32778    32601

 maximum number of plane-waves:    523116
 maximum index in each direction: 
   IXMAX=   41   IYMAX=   41   IZMAX=   73
   IXMIN=  -41   IYMIN=  -41   IZMIN=  -74


 parallel 3D FFT for wavefunctions:
    minimum data exchange during FFTs selected (reduces bandwidth)
 parallel 3D FFT for charge:
    minimum data exchange during FFTs selected (reduces bandwidth)


 total amount of memory used by VASP MPI-rank0   378632. kBytes
=======================================================================

   base                                    :      30000. kBytes
   nonl-proj                               :      75460. kBytes
   fftplans                                :     102065. kBytes
   grid                                    :      78750. kBytes
   one-center                              :         15. kBytes
   wavefun                                 :      92342. kBytes

     INWAV:  cpu time     27.8113: real time     27.8282
 Broyden mixing: mesh for mixing (old mesh)
   NGX = 83   NGY = 83   NGZ =147
  (NGX  =336   NGY  =336   NGZ  =600)
  gives a total of ****** points

 initial charge density was supplied:
 number of electron     268.9999999 magnetization 
 keeping initial charge density in first step


--------------------------------------------------------------------------------------------------------


 Maximum index for augmentation-charges        11432 (set IRDMAX)


--------------------------------------------------------------------------------------------------------


 First call to EWALD:  gamma=   0.100
 Maximum number of real-space cells   3x   3x   2
 Maximum number of reciprocal cells   2x   2x   4

    FEWALD:  cpu time      0.0154: real time      0.0157


--------------------------------------- Ionic step        1  -------------------------------------------




--------------------------------------- Iteration      1(   1)  ---------------------------------------


    POTLOK:  cpu time      2.0095: real time      2.0103
    SETDIJ:  cpu time      1.4874: real time      1.4880
    EDDIAG:  cpu time     54.2356: real time     54.2644
     EDDAV:  cpu time    240.8805: real time    241.0394
       DOS:  cpu time      0.0098: real time      0.0098
    CHARGE:  cpu time     30.5561: real time     30.5828
    MIXING:  cpu time      0.0494: real time      0.0496
    --------------------------------------------
      LOOP:  cpu time    329.2283: real time    329.4444

 eigenvalue-minimisations  :  2816
 total energy-change (2. order) :-0.6957523E+03  (-0.7670077E+00)
 number of electron     268.9999999 magnetization 
 augmentation part      -13.9695841 magnetization 

 Broyden mixing:
  rms(total) = 0.97555E+00    rms(broyden)= 0.24324E+02
  rms(prec ) = 0.10072E+01
  weight for this iteration     100.00
  WARNING: grid for Broyden might be to small

 Free energy of the ion-electron system (eV)
  ---------------------------------------------------
  alpha Z        PSCENC =        27.75967223
  Ewald energy   TEWEN  =     33452.85871187
  -Hartree energ DENC   =    -39200.50488981
  -exchange      EXHF   =         0.00000000
  -V(xc)+E(xc)   XCENC  =      -256.73632388
  PAW double counting   =     24247.30993831   -23619.50531812
  entropy T*S    EENTRO =        -0.11358253
  eigenvalues    EBANDS =     -2052.33335065
  atomic energy  EATOM  =      6705.51280941
  Solvation  Ediel_sol  =         0.00000000
  ---------------------------------------------------
  free energy    TOTEN  =      -695.75233318 eV

  energy without entropy =     -695.63875065  energy(sigma->0) =     -695.69554191


--------------------------------------------------------------------------------------------------------




--------------------------------------- Iteration      1(   2)  ---------------------------------------


    POTLOK:  cpu time      1.9675: real time      1.9923
    SETDIJ:  cpu time      1.4834: real time      1.4845
    EDDIAG:  cpu time     54.1412: real time     54.1699
     EDDAV:  cpu time    241.1699: real time    241.3193
       DOS:  cpu time      0.0027: real time      0.0027
    CHARGE:  cpu time     30.4360: real time     30.4634
    MIXING:  cpu time      0.0420: real time      0.0422
    --------------------------------------------
      LOOP:  cpu time    329.2427: real time    329.4743

 eigenvalue-minimisations  :  2832
 total energy-change (2. order) : 0.4738812E+02  (-0.7656317E+00)
 number of electron     268.9999999 magnetization 
 augmentation part      -13.9196380 magnetization 

 Broyden mixing:
  rms(total) = 0.66599E+00    rms(broyden)= 0.13936E+02
  rms(prec ) = 0.68165E+00
  weight for this iteration     100.00
  WARNING: grid for Broyden might be to small

 eigenvalues of (default mixing * dielectric matrix)
  average eigenvalue GAMMA=   0.6358
  0.6358

 Free energy of the ion-electron system (eV)
  ---------------------------------------------------
  alpha Z        PSCENC =        27.75967223
  Ewald energy   TEWEN  =     33452.85871187
  -Hartree energ DENC   =    -39189.20664134
  -exchange      EXHF   =         0.00000000
  -V(xc)+E(xc)   XCENC  =      -251.03792711
  PAW double counting   =     28866.78385612   -28238.80266519
  entropy T*S    EENTRO =        -0.11037823
  eigenvalues    EBANDS =     -2022.12164671
  atomic energy  EATOM  =      6705.51280941
  Solvation  Ediel_sol  =         0.00000000
  ---------------------------------------------------
  free energy    TOTEN  =      -648.36420895 eV

  energy without entropy =     -648.25383072  energy(sigma->0) =     -648.30901983


--------------------------------------------------------------------------------------------------------




--------------------------------------- Iteration      1(   3)  ---------------------------------------


    POTLOK:  cpu time      1.9711: real time      1.9955
    SETDIJ:  cpu time      1.4808: real time      1.4814
    EDDIAG:  cpu time     54.1583: real time     54.1872
     EDDAV:  cpu time    240.3461: real time    240.4970
       DOS:  cpu time      0.0026: real time      0.0026
    CHARGE:  cpu time     30.4324: real time     30.4584
    MIXING:  cpu time      0.0393: real time      0.0393
    --------------------------------------------
      LOOP:  cpu time    328.4306: real time    328.6614

 eigenvalue-minimisations  :  2816
 total energy-change (2. order) :-0.2145553E+01  (-0.5725926E+00)
 number of electron     268.9999999 magnetization 
 augmentation part      -13.8768035 magnetization 

 Broyden mixing:
  rms(total) = 0.28608E+00    rms(broyden)= 0.19677E+02
  rms(prec ) = 0.34886E+00
  weight for this iteration     100.00
  WARNING: grid for Broyden might be to small

 eigenvalues of (default mixing * dielectric matrix)
  average eigenvalue GAMMA=   0.7596
  0.8908  0.6284

 Free energy of the ion-electron system (eV)
  ---------------------------------------------------
  alpha Z        PSCENC =        27.75967223
  Ewald energy   TEWEN  =     33452.85871187
  -Hartree energ DENC   =    -39190.10075815
  -exchange      EXHF   =         0.00000000
  -V(xc)+E(xc)   XCENC  =      -252.90886778
  PAW double counting   =     34227.06179200   -33599.17343809
  entropy T*S    EENTRO =        -0.11499431
  eigenvalues    EBANDS =     -2021.40468880
  atomic energy  EATOM  =      6705.51280941
  Solvation  Ediel_sol  =         0.00000000
  ---------------------------------------------------
  free energy    TOTEN  =      -650.50976163 eV

  energy without entropy =     -650.39476732  energy(sigma->0) =     -650.45226447


--------------------------------------------------------------------------------------------------------




--------------------------------------- Iteration      1(   4)  ---------------------------------------


    POTLOK:  cpu time      1.9984: real time      2.0001
    SETDIJ:  cpu time      1.4746: real time      1.4753
    EDDIAG:  cpu time     54.1860: real time     54.2144
     EDDAV:  cpu time    244.9251: real time    245.0741
       DOS:  cpu time      0.0030: real time      0.0030
    CHARGE:  cpu time     30.4297: real time     30.4581
    MIXING:  cpu time      0.0415: real time      0.0415
    --------------------------------------------
      LOOP:  cpu time    333.0583: real time    333.2665

 eigenvalue-minimisations  :  2912
 total energy-change (2. order) : 0.2699367E+00  (-0.5924795E-01)
 number of electron     268.9999999 magnetization 
 augmentation part      -13.8733589 magnetization 

 Broyden mixing:
  rms(total) = 0.44197E-01    rms(broyden)= 0.21040E+01
  rms(prec ) = 0.51514E-01
  weight for this iteration     100.00
  WARNING: grid for Broyden might be to small

 eigenvalues of (default mixing * dielectric matrix)
  average eigenvalue GAMMA=   1.0364
  1.7636  0.7219  0.6236

 Free energy of the ion-electron system (eV)
  ---------------------------------------------------
  alpha Z        PSCENC =        27.75967223
  Ewald energy   TEWEN  =     33452.85871187
  -Hartree energ DENC   =    -39192.03452557
  -exchange      EXHF   =         0.00000000
  -V(xc)+E(xc)   XCENC  =      -253.16707241
  PAW double counting   =     38697.40201122   -38069.54869461
  entropy T*S    EENTRO =        -0.11207916
  eigenvalues    EBANDS =     -2018.91065790
  atomic energy  EATOM  =      6705.51280941
  Solvation  Ediel_sol  =         0.00000000
  ---------------------------------------------------
  free energy    TOTEN  =      -650.23982493 eV

  energy without entropy =     -650.12774578  energy(sigma->0) =     -650.18378535


--------------------------------------------------------------------------------------------------------




--------------------------------------- Iteration      1(   5)  ---------------------------------------


    POTLOK:  cpu time      1.9686: real time      1.9942
    SETDIJ:  cpu time      1.4847: real time      1.4853
    EDDIAG:  cpu time     54.1821: real time     54.2099
     EDDAV:  cpu time    274.6730: real time    274.8511
       DOS:  cpu time      0.0055: real time      0.0055
    CHARGE:  cpu time     30.4459: real time     30.4732
    MIXING:  cpu time      0.0399: real time      0.0399
    --------------------------------------------
      LOOP:  cpu time    362.7998: real time    363.0591

 eigenvalue-minimisations  :  3544
 total energy-change (2. order) :-0.2282496E-01  (-0.5184939E-02)
 number of electron     268.9999999 magnetization 
 augmentation part      -13.8739689 magnetization 

 Broyden mixing:
  rms(total) = 0.25313E-01    rms(broyden)= 0.33178E+00
  rms(prec ) = 0.26877E-01
  weight for this iteration     100.00
  WARNING: grid for Broyden might be to small

 eigenvalues of (default mixing * dielectric matrix)
  average eigenvalue GAMMA=   1.1573
  2.4508  0.9129  0.6327  0.6327

 Free energy of the ion-electron system (eV)
  ---------------------------------------------------
  alpha Z        PSCENC =        27.75967223
  Ewald energy   TEWEN  =     33452.85871187
  -Hartree energ DENC   =    -39192.38659927
  -exchange      EXHF   =         0.00000000
  -V(xc)+E(xc)   XCENC  =      -253.98066822
  PAW double counting   =     38236.99015677   -37609.11643661
  entropy T*S    EENTRO =        -0.11228284
  eigenvalues    EBANDS =     -2017.78801323
  atomic energy  EATOM  =      6705.51280941
  Solvation  Ediel_sol  =         0.00000000
  ---------------------------------------------------
  free energy    TOTEN  =      -650.26264990 eV

  energy without entropy =     -650.15036706  energy(sigma->0) =     -650.20650848


--------------------------------------------------------------------------------------------------------




--------------------------------------- Iteration      1(   6)  ---------------------------------------


    POTLOK:  cpu time      1.9709: real time      1.9978
    SETDIJ:  cpu time      1.4815: real time      1.4821
    EDDIAG:  cpu time     54.1542: real time     54.1868
     EDDAV:  cpu time    262.2369: real time    262.4040
       DOS:  cpu time      0.0027: real time      0.0028
    CHARGE:  cpu time     30.4465: real time     30.4728
    MIXING:  cpu time      0.0405: real time      0.0405
    --------------------------------------------
      LOOP:  cpu time    350.3332: real time    350.5868

 eigenvalue-minimisations  :  3280
 total energy-change (2. order) :-0.3584308E-02  (-0.1056075E-02)
 number of electron     268.9999999 magnetization 
 augmentation part      -13.8723831 magnetization 

 Broyden mixing:
  rms(total) = 0.14112E-01    rms(broyden)= 0.27407E+00
  rms(prec ) = 0.15299E-01
  weight for this iteration     100.00
  WARNING: grid for Broyden might be to small

 eigenvalues of (default mixing * dielectric matrix)
  average eigenvalue GAMMA=   1.1460
  2.5549  1.1335  0.7868  0.6273  0.6273

 Free energy of the ion-electron system (eV)
  ---------------------------------------------------
  alpha Z        PSCENC =        27.75967223
  Ewald energy   TEWEN  =     33452.85871187
  -Hartree energ DENC   =    -39192.84181491
  -exchange      EXHF   =         0.00000000
  -V(xc)+E(xc)   XCENC  =      -254.05389266
  PAW double counting   =     38172.18551981   -37544.29949333
  entropy T*S    EENTRO =        -0.11235626
  eigenvalues    EBANDS =     -2017.27539036
  atomic energy  EATOM  =      6705.51280941
  Solvation  Ediel_sol  =         0.00000000
  ---------------------------------------------------
  free energy    TOTEN  =      -650.26623420 eV

  energy without entropy =     -650.15387795  energy(sigma->0) =     -650.21005608


--------------------------------------------------------------------------------------------------------




--------------------------------------- Iteration      1(   7)  ---------------------------------------


    POTLOK:  cpu time      1.9707: real time      2.0003
    SETDIJ:  cpu time      1.4868: real time      1.4879
    EDDIAG:  cpu time     54.2106: real time     54.2363
     EDDAV:  cpu time    252.4396: real time    252.5972
       DOS:  cpu time      0.0036: real time      0.0036
    CHARGE:  cpu time     30.4445: real time     30.4723
    MIXING:  cpu time      0.0411: real time      0.0411
    --------------------------------------------
      LOOP:  cpu time    340.5969: real time    340.8388

 eigenvalue-minimisations  :  3072
 total energy-change (2. order) :-0.1182916E-02  (-0.3685706E-03)
 number of electron     268.9999999 magnetization 
 augmentation part      -13.8711545 magnetization 

 Broyden mixing:
  rms(total) = 0.49150E-02    rms(broyden)= 0.16530E+00
  rms(prec ) = 0.61269E-02
  weight for this iteration     100.00
  WARNING: grid for Broyden might be to small

 eigenvalues of (default mixing * dielectric matrix)
  average eigenvalue GAMMA=   1.1642
  2.5969  1.4602  0.9761  0.7089  0.6089  0.6343

 Free energy of the ion-electron system (eV)
  ---------------------------------------------------
  alpha Z        PSCENC =        27.75967223
  Ewald energy   TEWEN  =     33452.85871187
  -Hartree energ DENC   =    -39192.94060653
  -exchange      EXHF   =         0.00000000
  -V(xc)+E(xc)   XCENC  =      -254.00341457
  PAW double counting   =     38192.87473139   -37564.97920093
  entropy T*S    EENTRO =        -0.11261563
  eigenvalues    EBANDS =     -2017.23750436
  atomic energy  EATOM  =      6705.51280941
  Solvation  Ediel_sol  =         0.00000000
  ---------------------------------------------------
  free energy    TOTEN  =      -650.26741712 eV

  energy without entropy =     -650.15480149  energy(sigma->0) =     -650.21110931


--------------------------------------------------------------------------------------------------------




--------------------------------------- Iteration      1(   8)  ---------------------------------------


    POTLOK:  cpu time      1.9663: real time      1.9889
    SETDIJ:  cpu time      1.4832: real time      1.4846
    EDDIAG:  cpu time     54.2007: real time     54.2312
     EDDAV:  cpu time    254.0536: real time    254.2177
       DOS:  cpu time      0.0031: real time      0.0031
    CHARGE:  cpu time     30.4470: real time     30.4755
    MIXING:  cpu time      0.0421: real time      0.0421
    --------------------------------------------
      LOOP:  cpu time    342.1960: real time    342.4430

 eigenvalue-minimisations  :  3104
 total energy-change (2. order) :-0.1128141E-03  (-0.9185990E-04)
 number of electron     268.9999999 magnetization 
 augmentation part      -13.8713059 magnetization 

 Broyden mixing:
  rms(total) = 0.28102E-02    rms(broyden)= 0.37977E-01
  rms(prec ) = 0.33717E-02
  weight for this iteration     100.00
  WARNING: grid for Broyden might be to small

 eigenvalues of (default mixing * dielectric matrix)
  average eigenvalue GAMMA=   1.2104
  2.6597  1.9750  1.0733  0.8743  0.6765  0.6294  0.5843

 Free energy of the ion-electron system (eV)
  ---------------------------------------------------
  alpha Z        PSCENC =        27.75967223
  Ewald energy   TEWEN  =     33452.85871187
  -Hartree energ DENC   =    -39192.81919678
  -exchange      EXHF   =         0.00000000
  -V(xc)+E(xc)   XCENC  =      -254.01457434
  PAW double counting   =     38204.09087358   -37576.19184372
  entropy T*S    EENTRO =        -0.11232040
  eigenvalues    EBANDS =     -2017.35166178
  atomic energy  EATOM  =      6705.51280941
  Solvation  Ediel_sol  =         0.00000000
  ---------------------------------------------------
  free energy    TOTEN  =      -650.26752994 eV

  energy without entropy =     -650.15520954  energy(sigma->0) =     -650.21136974


--------------------------------------------------------------------------------------------------------




--------------------------------------- Iteration      1(   9)  ---------------------------------------


    POTLOK:  cpu time      1.9717: real time      1.9984
    SETDIJ:  cpu time      1.4916: real time      1.4922
    EDDIAG:  cpu time     54.1970: real time     54.2269
     EDDAV:  cpu time    256.3442: real time    256.5050
       DOS:  cpu time      0.0041: real time      0.0041
    CHARGE:  cpu time     30.4479: real time     30.4750
    MIXING:  cpu time      0.0429: real time      0.0429
    --------------------------------------------
      LOOP:  cpu time    344.4996: real time    344.7449

 eigenvalue-minimisations  :  3152
 total energy-change (2. order) :-0.6815922E-04  (-0.3374829E-04)
 number of electron     268.9999999 magnetization 
 augmentation part      -13.8712821 magnetization 

 Broyden mixing:
  rms(total) = 0.17222E-02    rms(broyden)= 0.20060E-01
  rms(prec ) = 0.20305E-02
  weight for this iteration     100.00
  WARNING: grid for Broyden might be to small

 eigenvalues of (default mixing * dielectric matrix)
  average eigenvalue GAMMA=   1.2686
  2.7920  2.5327  1.2363  0.9804  0.7651  0.6566  0.6251  0.5603

 Free energy of the ion-electron system (eV)
  ---------------------------------------------------
  alpha Z        PSCENC =        27.75967223
  Ewald energy   TEWEN  =     33452.85871187
  -Hartree energ DENC   =    -39192.73736245
  -exchange      EXHF   =         0.00000000
  -V(xc)+E(xc)   XCENC  =      -254.02199791
  PAW double counting   =     38201.94692433   -37574.04642604
  entropy T*S    EENTRO =        -0.11260227
  eigenvalues    EBANDS =     -2017.42732726
  atomic energy  EATOM  =      6705.51280941
  Solvation  Ediel_sol  =         0.00000000
  ---------------------------------------------------
  free energy    TOTEN  =      -650.26759809 eV

  energy without entropy =     -650.15499583  energy(sigma->0) =     -650.21129696


--------------------------------------------------------------------------------------------------------




--------------------------------------- Iteration      1(  10)  ---------------------------------------


    POTLOK:  cpu time      1.9739: real time      2.0005
    SETDIJ:  cpu time      1.5340: real time      1.5352
    EDDIAG:  cpu time     54.2157: real time     54.2436
     EDDAV:  cpu time    246.7991: real time    246.9545
       DOS:  cpu time      0.0145: real time      0.0151
    CHARGE:  cpu time     30.4460: real time     30.4739
    MIXING:  cpu time      0.0590: real time      0.0590
    --------------------------------------------
      LOOP:  cpu time    335.0424: real time    335.2821

 eigenvalue-minimisations  :  2952
 total energy-change (2. order) :-0.9291868E-04  (-0.2192207E-04)
 number of electron     268.9999999 magnetization 
 augmentation part      -13.8713434 magnetization 

 Broyden mixing:
  rms(total) = 0.80637E-03    rms(broyden)= 0.15299E-01
  rms(prec ) = 0.10150E-02
  weight for this iteration     100.00
  WARNING: grid for Broyden might be to small

 eigenvalues of (default mixing * dielectric matrix)
  average eigenvalue GAMMA=   1.2541
  3.0628  2.5994  1.3272  0.9931  0.8364  0.7040  0.6254  0.6049  0.5340

 Free energy of the ion-electron system (eV)
  ---------------------------------------------------
  alpha Z        PSCENC =        27.75967223
  Ewald energy   TEWEN  =     33452.85871187
  -Hartree energ DENC   =    -39192.62189742
  -exchange      EXHF   =         0.00000000
  -V(xc)+E(xc)   XCENC  =      -254.02461484
  PAW double counting   =     38198.11513665   -37570.21312623
  entropy T*S    EENTRO =        -0.11253256
  eigenvalues    EBANDS =     -2017.54185011
  atomic energy  EATOM  =      6705.51280941
  Solvation  Ediel_sol  =         0.00000000
  ---------------------------------------------------
  free energy    TOTEN  =      -650.26769101 eV

  energy without entropy =     -650.15515846  energy(sigma->0) =     -650.21142473


--------------------------------------------------------------------------------------------------------




--------------------------------------- Iteration      1(  11)  ---------------------------------------


    POTLOK:  cpu time      1.9746: real time      2.0012
    SETDIJ:  cpu time      1.5549: real time      1.5563
    EDDIAG:  cpu time     54.2198: real time     54.2501
     EDDAV:  cpu time    247.8539: real time    248.0166
       DOS:  cpu time      0.0027: real time      0.0027
    CHARGE:  cpu time     30.4461: real time     30.4739
    MIXING:  cpu time      0.0441: real time      0.0441
    --------------------------------------------
      LOOP:  cpu time    336.0957: real time    336.3444

 eigenvalue-minimisations  :  2968
 total energy-change (2. order) :-0.1101263E-03  (-0.1301917E-04)
 number of electron     268.9999999 magnetization 
 augmentation part      -13.8714124 magnetization 

 Broyden mixing:
  rms(total) = 0.43695E-03    rms(broyden)= 0.10546E-01
  rms(prec ) = 0.63679E-03
  weight for this iteration     100.00
  WARNING: grid for Broyden might be to small

 eigenvalues of (default mixing * dielectric matrix)
  average eigenvalue GAMMA=   1.3680
  3.7631  2.6523  1.9272  1.2125  0.9482  0.7669  0.6793  0.6254  0.5828  0.5222

 Free energy of the ion-electron system (eV)
  ---------------------------------------------------
  alpha Z        PSCENC =        27.75967223
  Ewald energy   TEWEN  =     33452.85871187
  -Hartree energ DENC   =    -39192.52692635
  -exchange      EXHF   =         0.00000000
  -V(xc)+E(xc)   XCENC  =      -254.03177621
  PAW double counting   =     38197.75211242   -37569.84970577
  entropy T*S    EENTRO =        -0.11251754
  eigenvalues    EBANDS =     -2017.63018120
  atomic energy  EATOM  =      6705.51280941
  Solvation  Ediel_sol  =         0.00000000
  ---------------------------------------------------
  free energy    TOTEN  =      -650.26780114 eV

  energy without entropy =     -650.15528360  energy(sigma->0) =     -650.21154237


--------------------------------------------------------------------------------------------------------




--------------------------------------- Iteration      1(  12)  ---------------------------------------


    POTLOK:  cpu time      1.9849: real time      2.0143
    SETDIJ:  cpu time      1.4904: real time      1.4914
    EDDIAG:  cpu time     54.1851: real time     54.2140
     EDDAV:  cpu time    246.3961: real time    246.5451
       DOS:  cpu time      0.0097: real time      0.0099
    CHARGE:  cpu time     30.4561: real time     30.4906
    MIXING:  cpu time      0.0604: real time      0.0604
    --------------------------------------------
      LOOP:  cpu time    334.5827: real time    334.8259

 eigenvalue-minimisations  :  2944
 total energy-change (2. order) :-0.1034115E-03  (-0.1235780E-04)
 number of electron     268.9999999 magnetization 
 augmentation part      -13.8714499 magnetization 

 Broyden mixing:
  rms(total) = 0.27919E-03    rms(broyden)= 0.66394E-02
  rms(prec ) = 0.44111E-03
  weight for this iteration     100.00
  WARNING: grid for Broyden might be to small

 eigenvalues of (default mixing * dielectric matrix)
  average eigenvalue GAMMA=   1.5171
  5.3828  2.6718  2.3686  1.2435  1.0534  0.8743  0.7161  0.6555  0.6255  0.5737
  0.5224

 Free energy of the ion-electron system (eV)
  ---------------------------------------------------
  alpha Z        PSCENC =        27.75967223
  Ewald energy   TEWEN  =     33452.85871187
  -Hartree energ DENC   =    -39192.44672155
  -exchange      EXHF   =         0.00000000
  -V(xc)+E(xc)   XCENC  =      -254.03594834
  PAW double counting   =     38199.12780188   -37571.22546919
  entropy T*S    EENTRO =        -0.11253815
  eigenvalues    EBANDS =     -2017.70622270
  atomic energy  EATOM  =      6705.51280941
  Solvation  Ediel_sol  =         0.00000000
  ---------------------------------------------------
  free energy    TOTEN  =      -650.26790455 eV

  energy without entropy =     -650.15536640  energy(sigma->0) =     -650.21163548


--------------------------------------------------------------------------------------------------------




--------------------------------------- Iteration      1(  13)  ---------------------------------------


    POTLOK:  cpu time      2.0115: real time      2.0151
    SETDIJ:  cpu time      1.5011: real time      1.5025
    EDDIAG:  cpu time     54.2111: real time     54.2405
     EDDAV:  cpu time    246.3587: real time    246.5274
       DOS:  cpu time      0.0027: real time      0.0027
    CHARGE:  cpu time     30.4506: real time     30.4797
    MIXING:  cpu time      0.0455: real time      0.0455
    --------------------------------------------
      LOOP:  cpu time    334.5811: real time    334.8134

 eigenvalue-minimisations  :  2944
 total energy-change (2. order) :-0.1321912E-03  (-0.1862810E-04)
 number of electron     268.9999999 magnetization 
 augmentation part      -13.8714748 magnetization 

 Broyden mixing:
  rms(total) = 0.16889E-03    rms(broyden)= 0.52570E-02
  rms(prec ) = 0.29850E-03
  weight for this iteration     100.00
  WARNING: grid for Broyden might be to small

 eigenvalues of (default mixing * dielectric matrix)
  average eigenvalue GAMMA=   1.6875
  7.4808  2.7619  2.6530  1.4195  1.1149  0.9971  0.8151  0.6794  0.5085  0.6409
  0.6171  0.5619

 Free energy of the ion-electron system (eV)
  ---------------------------------------------------
  alpha Z        PSCENC =        27.75967223
  Ewald energy   TEWEN  =     33452.85871187
  -Hartree energ DENC   =    -39192.35563515
  -exchange      EXHF   =         0.00000000
  -V(xc)+E(xc)   XCENC  =      -254.03991134
  PAW double counting   =     38198.85363649   -37570.95152258
  entropy T*S    EENTRO =        -0.11254077
  eigenvalues    EBANDS =     -2017.79325690
  atomic energy  EATOM  =      6705.51280941
  Solvation  Ediel_sol  =         0.00000000
  ---------------------------------------------------
  free energy    TOTEN  =      -650.26803674 eV

  energy without entropy =     -650.15549597  energy(sigma->0) =     -650.21176636


--------------------------------------------------------------------------------------------------------




--------------------------------------- Iteration      1(  14)  ---------------------------------------


    POTLOK:  cpu time      1.9813: real time      2.0094
    SETDIJ:  cpu time      1.5066: real time      1.5073
    EDDIAG:  cpu time     54.2214: real time     54.2499
     EDDAV:  cpu time    247.4641: real time    247.6251
       DOS:  cpu time      0.0027: real time      0.0027
    CHARGE:  cpu time     30.4620: real time     30.4897
    MIXING:  cpu time      0.0465: real time      0.0465
    --------------------------------------------
      LOOP:  cpu time    335.6846: real time    335.9307

 eigenvalue-minimisations  :  2968
 total energy-change (2. order) :-0.1198306E-03  (-0.1663372E-04)
 number of electron     268.9999999 magnetization 
 augmentation part      -13.8714882 magnetization 

 Broyden mixing:
  rms(total) = 0.12183E-03    rms(broyden)= 0.38288E-02
  rms(prec ) = 0.19746E-03
  weight for this iteration     100.00
  WARNING: grid for Broyden might be to small

 eigenvalues of (default mixing * dielectric matrix)
  average eigenvalue GAMMA=   1.8078
  9.1581  2.9081  2.7043  1.8490  1.2498  0.9847  0.9286  0.7534  0.5013  0.6580
  0.6327  0.6145  0.5588

 Free energy of the ion-electron system (eV)
  ---------------------------------------------------
  alpha Z        PSCENC =        27.75967223
  Ewald energy   TEWEN  =     33452.85871187
  -Hartree energ DENC   =    -39192.26867098
  -exchange      EXHF   =         0.00000000
  -V(xc)+E(xc)   XCENC  =      -254.04127582
  PAW double counting   =     38198.76521559   -37570.86326178
  entropy T*S    EENTRO =        -0.11255165
  eigenvalues    EBANDS =     -2017.87880544
  atomic energy  EATOM  =      6705.51280941
  Solvation  Ediel_sol  =         0.00000000
  ---------------------------------------------------
  free energy    TOTEN  =      -650.26815657 eV

  energy without entropy =     -650.15560492  energy(sigma->0) =     -650.21188075


--------------------------------------------------------------------------------------------------------




--------------------------------------- Iteration      1(  15)  ---------------------------------------


    POTLOK:  cpu time      1.9927: real time      2.0195
    SETDIJ:  cpu time      1.4790: real time      1.4795
    EDDIAG:  cpu time     54.2081: real time     54.2367
     EDDAV:  cpu time    248.7237: real time    248.8813
       DOS:  cpu time      0.0043: real time      0.0043
    CHARGE:  cpu time     30.4662: real time     30.4939
    MIXING:  cpu time      0.0469: real time      0.0469
    --------------------------------------------
      LOOP:  cpu time    336.9209: real time    337.1622

 eigenvalue-minimisations  :  2992
 total energy-change (2. order) :-0.8305153E-04  (-0.9208411E-05)
 number of electron     268.9999999 magnetization 
 augmentation part      -13.8715010 magnetization 

 Broyden mixing:
  rms(total) = 0.80209E-04    rms(broyden)= 0.26165E-02
  rms(prec ) = 0.12649E-03
  weight for this iteration     100.00
  WARNING: grid for Broyden might be to small

 eigenvalues of (default mixing * dielectric matrix)
  average eigenvalue GAMMA=   1.8274
  9.7792  3.0800  2.6990  2.0587  1.3071  1.0565  1.0565  0.8539  0.7223  0.5044
  0.5645  0.6512  0.6247  0.6247

 Free energy of the ion-electron system (eV)
  ---------------------------------------------------
  alpha Z        PSCENC =        27.75967223
  Ewald energy   TEWEN  =     33452.85871187
  -Hartree energ DENC   =    -39192.20881023
  -exchange      EXHF   =         0.00000000
  -V(xc)+E(xc)   XCENC  =      -254.04251166
  PAW double counting   =     38198.82098068   -37570.91912262
  entropy T*S    EENTRO =        -0.11255011
  eigenvalues    EBANDS =     -2017.93741919
  atomic energy  EATOM  =      6705.51280941
  Solvation  Ediel_sol  =         0.00000000
  ---------------------------------------------------
  free energy    TOTEN  =      -650.26823962 eV

  energy without entropy =     -650.15568951  energy(sigma->0) =     -650.21196457


--------------------------------------------------------------------------------------------------------




--------------------------------------- Iteration      1(  16)  ---------------------------------------


    POTLOK:  cpu time      1.9929: real time      1.9944
    SETDIJ:  cpu time      1.4787: real time      1.4794
    EDDIAG:  cpu time     54.1912: real time     54.2240
     EDDAV:  cpu time    245.8154: real time    245.9749
       DOS:  cpu time      0.0056: real time      0.0056
    CHARGE:  cpu time     30.4692: real time     30.4954
    MIXING:  cpu time      0.0486: real time      0.0486
    --------------------------------------------
      LOOP:  cpu time    334.0015: real time    334.2223

 eigenvalue-minimisations  :  2928
 total energy-change (2. order) :-0.5150924E-04  (-0.6526942E-05)
 number of electron     268.9999999 magnetization 
 augmentation part      -13.8715118 magnetization 

 Broyden mixing:
  rms(total) = 0.45418E-04    rms(broyden)= 0.17413E-02
  rms(prec ) = 0.69341E-04
  weight for this iteration     100.00
  WARNING: grid for Broyden might be to small

 eigenvalues of (default mixing * dielectric matrix)
  average eigenvalue GAMMA=   1.8007
  9.9136  3.1452  2.7088  2.1771  1.4418  1.1962  0.9872  0.9872  0.8004  0.5053
  0.6923  0.6484  0.6321  0.5739  0.6005

 Free energy of the ion-electron system (eV)
  ---------------------------------------------------
  alpha Z        PSCENC =        27.75967223
  Ewald energy   TEWEN  =     33452.85871187
  -Hartree energ DENC   =    -39192.15582065
  -exchange      EXHF   =         0.00000000
  -V(xc)+E(xc)   XCENC  =      -254.04293289
  PAW double counting   =     38198.82260030   -37570.92075262
  entropy T*S    EENTRO =        -0.11255860
  eigenvalues    EBANDS =     -2017.99002017
  atomic energy  EATOM  =      6705.51280941
  Solvation  Ediel_sol  =         0.00000000
  ---------------------------------------------------
  free energy    TOTEN  =      -650.26829113 eV

  energy without entropy =     -650.15573253  energy(sigma->0) =     -650.21201183


[...]
   -.160E+02 -.213E+02 -.209E+03   0.158E+02 0.223E+02 0.208E+03   0.380E+00 -.804E+00 0.147E+01   0.120E-04 0.388E-04 -.153E-04
   -.107E+02 0.331E+01 0.191E+03   0.128E+02 -.165E+01 -.193E+03   -.182E+01 -.150E+01 0.236E+01   0.640E-05 0.227E-04 -.704E-05
   0.675E+01 0.108E+02 -.279E+03   -.660E+01 -.112E+02 0.278E+03   0.203E+00 0.181E+00 0.150E+01   0.452E-05 0.703E-05 -.401E-04
   0.369E+02 0.223E+02 -.191E+03   -.357E+02 -.222E+02 0.187E+03   -.140E+01 -.318E+00 0.369E+01   -.121E-04 -.293E-04 -.276E-04
   -.431E+01 0.270E+02 0.154E+03   0.363E+01 -.279E+02 -.153E+03   0.789E+00 0.772E+00 -.789E+00   -.227E-05 -.394E-04 -.468E-04
   0.137E+02 0.394E+02 0.210E+03   -.135E+02 -.401E+02 -.206E+03   -.475E+00 0.613E+00 -.361E+01   -.113E-04 -.115E-04 -.185E-04
   0.126E+02 0.339E+02 0.187E+03   -.124E+02 -.343E+02 -.187E+03   -.190E+00 0.397E+00 -.230E+00   -.959E-05 0.101E-04 -.118E-04
   0.275E+02 -.220E+01 -.129E+03   -.268E+02 0.396E+00 0.129E+03   -.709E+00 0.181E+01 0.424E+00   -.468E-05 -.362E-05 -.150E-04
   -.286E+01 0.203E+02 -.214E+03   0.329E+01 -.190E+02 0.213E+03   -.433E+00 -.127E+01 0.924E+00   -.142E-05 -.508E-04 -.386E-04
   -.245E+02 -.171E+02 -.271E+03   0.223E+02 0.148E+02 0.269E+03   0.195E+01 0.196E+01 0.112E+01   0.694E-04 0.503E-04 -.707E-06
   -.392E+02 -.143E+02 -.202E+03   0.409E+02 0.151E+02 0.203E+03   -.129E+01 -.807E+00 -.712E+00   -.675E-05 0.157E-05 -.233E-04
   -.978E+01 -.307E+02 0.235E+03   0.102E+02 0.284E+02 -.235E+03   -.225E+00 0.222E+01 0.221E+00   -.107E-05 -.334E-04 -.187E-04
   -.533E+01 0.540E+02 0.289E+02   0.541E+01 -.524E+02 -.302E+02   -.153E+00 -.164E+01 0.122E+01   -.115E-04 -.114E-04 -.304E-04
   -.151E+02 0.261E+02 -.827E+02   0.130E+02 -.248E+02 0.812E+02   0.187E+01 -.141E+01 0.147E+01   0.691E-04 -.582E-04 -.585E-04
   0.564E+01 0.127E+02 -.103E+03   -.414E+01 -.120E+02 0.104E+03   -.152E+01 -.767E+00 -.540E+00   0.608E-04 -.106E-03 -.102E-03
   0.198E+02 0.502E+01 -.216E+03   -.193E+02 -.235E+01 0.215E+03   -.730E+00 -.268E+01 0.142E+01   -.117E-03 -.362E-04 -.307E-04
   0.244E+02 0.110E+02 0.308E+03   -.256E+02 -.100E+02 -.308E+03   0.925E+00 -.102E+01 -.463E+00   0.352E-04 -.617E-04 -.270E-04
   -.185E+02 -.533E+02 0.300E+03   0.169E+02 0.517E+02 -.300E+03   0.165E+01 0.148E+01 0.337E+00   0.535E-04 0.272E-04 -.415E-04
   -.489E+01 -.127E+02 0.345E+02   0.444E+01 0.115E+02 -.353E+02   0.352E+00 0.137E+01 0.704E+00   0.633E-04 -.132E-04 -.402E-04
   0.194E+02 0.296E+01 -.184E+03   -.195E+02 -.181E+01 0.186E+03   -.635E-01 -.114E+01 -.166E+01   -.134E-04 0.207E-04 -.103E-04
   -.117E+02 0.142E+02 -.212E+03   0.112E+02 -.152E+02 0.209E+03   0.335E+00 0.861E+00 0.305E+01   0.686E-05 0.972E-05 -.217E-04
   0.298E+02 -.191E+01 -.755E+02   -.271E+02 0.221E+01 0.737E+02   -.272E+01 -.153E-01 0.188E+01   0.219E-04 0.192E-04 0.203E-05
   -.209E+02 0.402E+01 -.982E+02   0.204E+02 -.525E+01 0.100E+03   0.240E+00 0.108E+01 -.200E+01   0.768E-05 -.109E-04 -.151E-04
   -.254E+02 -.260E+02 -.200E+02   0.243E+02 0.269E+02 0.200E+02   0.131E+01 -.905E+00 0.225E+00   -.904E-05 -.115E-05 -.200E-04
   -.194E+02 0.338E+02 -.267E+03   0.188E+02 -.346E+02 0.269E+03   0.557E+00 0.663E+00 -.925E+00   0.451E-04 -.989E-05 -.366E-04
   0.172E+02 -.175E+02 -.218E+03   -.167E+02 0.180E+02 0.219E+03   -.355E+00 -.897E+00 -.835E+00   -.538E-04 0.110E-04 0.140E-05
   -.387E+02 -.382E+02 0.150E+03   0.380E+02 0.374E+02 -.146E+03   0.576E+00 0.802E+00 -.390E+01   0.261E-04 -.285E-05 -.194E-04
   -.295E+01 0.468E+02 0.249E+03   0.299E+01 -.448E+02 -.249E+03   -.270E+00 -.179E+01 -.184E-01   -.349E-05 0.301E-05 -.555E-05
   0.366E+02 -.347E+02 -.293E+03   -.383E+02 0.382E+02 0.294E+03   0.105E+01 -.293E+01 0.508E+00   0.513E-04 0.115E-03 0.479E-04
   0.669E+01 -.399E+01 0.113E+03   -.762E+01 0.703E+01 -.113E+03   0.588E+00 -.281E+01 0.353E+00   -.350E-05 -.569E-04 -.376E-04
   0.291E+02 -.316E+02 0.194E+02   -.278E+02 0.308E+02 -.211E+02   -.117E+01 0.883E+00 0.132E+01   -.236E-04 0.463E-04 -.212E-04
   0.187E+02 0.329E+02 0.139E+03   -.175E+02 -.344E+02 -.138E+03   -.925E+00 0.145E+01 -.127E+01   -.146E-04 0.181E-04 -.138E-04
   -.220E+02 0.126E+02 -.262E+03   0.229E+02 -.116E+02 0.266E+03   -.612E+00 -.686E+00 -.297E+01   0.400E-04 -.310E-04 -.333E-04
   -.219E+02 0.264E+02 -.206E+02   0.185E+02 -.273E+02 0.201E+02   0.318E+01 0.958E+00 0.291E+00   0.530E-05 0.258E-04 -.498E-05
   -.228E+01 0.848E+01 0.123E+03   0.264E+01 -.823E+01 -.119E+03   -.250E+00 -.159E+00 -.355E+01   0.147E-04 0.168E-04 -.140E-04
   -.142E+02 -.226E+02 -.157E+03   0.161E+02 0.210E+02 0.158E+03   -.179E+01 0.176E+01 -.625E+00   -.203E-04 0.228E-04 -.525E-05
   0.436E+01 0.270E+02 0.980E+02   -.360E+01 -.246E+02 -.969E+02   -.516E+00 -.226E+01 -.763E+00   -.180E-04 -.223E-04 -.335E-04
   0.742E+01 -.239E+01 -.200E+02   -.944E+01 0.228E+01 0.175E+02   0.210E+01 0.113E+00 0.254E+01   -.167E-04 0.537E-04 0.386E-05
   -.803E+01 0.341E+02 -.133E+03   0.101E+02 -.324E+02 0.134E+03   -.222E+01 -.178E+01 -.112E+01   0.193E-04 -.615E-04 -.479E-04
   -.392E+01 -.274E+02 0.480E+02   0.268E+01 0.272E+02 -.471E+02   0.107E+01 0.327E+00 -.104E+01   -.494E-04 -.171E-04 -.244E-04
   0.227E+01 0.188E+02 -.264E+02   -.329E+01 -.191E+02 0.280E+02   0.642E+00 0.372E+00 -.182E+01   -.133E-04 -.195E-04 -.362E-04
   -.278E+02 -.110E+02 -.209E+03   0.255E+02 0.110E+02 0.207E+03   0.208E+01 0.371E-01 0.170E+01   -.326E-05 -.632E-05 -.223E-04
   -.859E+01 0.174E+02 -.197E+03   0.782E+01 -.177E+02 0.199E+03   0.711E+00 0.555E+00 -.147E+01   0.177E-05 0.230E-04 -.226E-05
   0.771E+01 0.211E+01 0.152E+03   -.692E+01 -.225E+01 -.153E+03   -.674E+00 0.142E+00 0.129E+01   0.121E-05 0.431E-04 -.186E-05
   0.126E+02 -.236E+02 -.251E+03   -.115E+02 0.242E+02 0.250E+03   -.822E+00 -.498E+00 0.887E+00   0.105E-04 0.109E-04 -.153E-04
   -.625E+01 0.325E+02 0.119E+03   0.722E+01 -.328E+02 -.120E+03   -.460E+00 -.134E+00 -.176E+00   0.466E-05 -.110E-05 -.870E-05
   0.336E+02 -.383E+02 -.887E+02   -.337E+02 0.382E+02 0.880E+02   0.345E+00 0.271E-01 0.207E+00   0.483E-04 0.659E-04 -.224E-04
   0.219E+02 -.332E+02 -.212E+02   -.213E+02 0.319E+02 0.200E+02   -.753E+00 0.123E+01 0.972E+00   0.557E-04 0.579E-04 0.448E-05
   -.213E+02 -.156E+02 0.278E+03   0.231E+02 0.173E+02 -.279E+03   -.155E+01 -.150E+01 0.418E+00   -.182E-04 -.250E-04 -.502E-05
   -.130E+02 0.443E+02 0.271E+03   0.135E+02 -.423E+02 -.270E+03   -.740E+00 -.190E+01 -.101E+01   0.336E-04 -.281E-04 -.285E-04
   -.587E+01 -.304E+02 0.135E+03   0.705E+01 0.330E+02 -.138E+03   -.821E+00 -.225E+01 0.205E+01   -.281E-04 -.743E-05 -.187E-04
   -.971E+01 0.593E+01 0.242E+03   0.827E+01 -.432E+01 -.241E+03   0.162E+01 -.143E+01 -.153E+01   0.447E-04 -.428E-04 -.517E-04
   -.344E+01 -.767E+01 -.468E+02   0.481E+01 0.653E+01 0.437E+02   -.134E+01 0.129E+01 0.280E+01   -.164E-04 0.286E-04 -.955E-05
   0.612E+02 -.332E+02 0.250E+03   -.604E+02 0.315E+02 -.252E+03   -.780E+00 0.177E+01 0.144E+01   0.251E-04 0.990E-05 -.210E-04
   0.109E+02 -.232E+02 0.289E+03   -.105E+02 0.244E+02 -.288E+03   -.308E+00 -.866E+00 -.149E+01   -.108E-04 -.268E-04 -.574E-05
 -----------------------------------------------------------------------------------------------
   0.498E+01 0.689E+01 -.356E+01   -.675E-13 -.178E-13 -.114E-12   -.497E+01 -.690E+01 0.356E+01   0.205E-03 -.936E-04 -.147E-02


 POSITION                                       TOTAL-FORCE (eV/Angst)
 -----------------------------------------------------------------------------------
     12.79731      2.85733     11.05738         0.067122     -0.057785      0.044105
      7.00141      2.54884     12.74655         0.011463      0.095428      0.107058
      9.81615     14.56305     15.71516         0.043728      0.085027     -0.038414
      8.14789     12.93646     16.33200        -0.129896      0.067994      0.062186
      7.37194      4.47510     16.51799         0.072033     -0.079404      0.171682
      8.70900      4.29088     11.82666        -0.145746     -0.075101      0.149134
      7.64184      1.31559     14.49517         0.098607     -0.057808      0.128429
      7.52731      1.15115     12.02820        -0.075655     -0.083895     -0.213725
      7.91832      0.64666     14.69483        -0.056301      0.159166      0.048073
      3.29080      4.51171     10.01785         0.017442     -0.001521     -0.091584
      9.40578      1.59907     12.84841         0.010611      0.027213     -0.035440
      5.59939      1.26708     16.17267        -0.124607      0.018376      0.027442
     10.00007      0.90317     10.96449        -0.089473     -0.041313     -0.183293
      9.64630      0.42717     10.51553        -0.016395      0.006460     -0.115664
      6.83116     13.82201     10.78033        -0.095332     -0.116812     -0.136607
     10.89090      4.22963     10.86101        -0.086664      0.071909      0.028936
     10.42060      2.66603     16.56248        -0.005201     -0.214971      0.086469
     11.20500     12.75039     12.93968         0.009462      0.072249      0.130825
     12.68305     11.12838     12.08373         0.239434     -0.166986     -0.048940
     10.48651      9.53325     14.55062        -0.005219      0.051663      0.177422
      6.69354     10.60990     14.87921         0.436788      0.272786     -0.128548
     14.52431      7.67686     11.94726        -0.042567     -0.211323     -0.005770
      2.24972      1.82948     11.52789        -0.181214      0.147945     -0.230057
      4.83620      4.79649     12.80907        -0.003290     -0.095509     -0.129300
      7.50110     11.18957     12.72365         0.163904     -0.335531      0.404527
      2.61951      1.77114     15.25003         0.249554      0.150785      0.369705
      2.97890      4.18461     11.43214         0.197171      0.108930     -0.155745
     13.19048     12.02615     15.88659         0.299194     -0.141016     -0.260397
      8.33452      8.55077     14.54239        -0.154956     -0.233195     -0.087921
      2.42142     10.26030     11.89697         0.185470     -0.072379      0.031603
      5.78333      8.48901     11.43145        -0.250015     -0.092357      0.096441
      6.25064      6.21964     11.56161         0.035600      0.041441     -0.031799
      8.88798      6.22353     14.30199        -0.069593      0.056605      0.130836
     12.02010      7.74580     14.81187        -0.052300     -0.028467     -0.074735
      1.85042     14.19331     15.96010        -0.251010     -0.200720     -0.554941
      3.96937      5.38830     14.94608         0.109883     -0.145067      0.622335
      3.87485     11.98569     11.28381         0.179124     -0.017306      0.124549
      3.89548      8.69308     12.77634        -0.056379     -0.069828     -0.037899
      1.59873     11.32648     13.82973        -0.164783     -0.227303      0.003406
     13.96554     10.74549     14.10251        -0.079103     -0.097254     -0.001895
     11.03266     11.79709     15.13401        -0.255726     -0.132479      0.234499
     13.86983     11.26334     10.10196        -0.136264     -0.087197     -0.080570
      0.57840      0.92700     10.00112         0.025466     -0.218365      0.493907
      1.26275     13.41656     12.87619        -0.066470      0.243565     -0.098787
      7.91844      4.25797     15.15799        -0.160851     -0.027665      0.086617
     11.08047      5.53006     14.96595        -0.159299     -0.143042     -0.104805
      0.37073      4.36667     13.82494        -0.168922      0.279429      0.141416
      2.74639      7.10413     14.04255        -0.213048     -0.078706     -0.268151
      5.17579     14.25846     13.51235         0.205268     -0.093924      0.237291
      2.81757     12.08698     15.69329         0.041970      0.108191      0.423478
      9.22392     13.24764     15.37155         0.088593     -0.400438      0.092673
      3.31843     14.23004     12.09219        -0.175454     -0.099258      0.121114
     10.29366      6.89834     11.01312        -0.320072      0.266595      0.422457
     14.13795     14.15138     16.24771        -0.381383      0.340777      0.765755
     11.18275      9.36925     12.28964        -0.308476      0.008382      0.053672
     12.22572      0.27304     12.92789        -0.004524      0.144689     -0.263797
      8.49729      5.75062     12.04602         0.291325     -0.028298     -0.497433
      1.57351      8.47076     15.53299         0.179238      0.241213      0.146435
     12.69221      5.03842     13.36376        -0.082432      0.126772     -0.136691
      1.48386      5.86666     12.40969         0.058073      0.069706      0.096551
      4.95287      1.57608     14.86445         0.040329      0.154512      0.144988
      7.92112      8.96816     12.28905         0.175267      0.053774      0.290481
     10.72029      2.07630     13.34221         0.156353      0.016388      0.056714
     14.21465      8.41256     14.25911        -0.264003     -0.064694     -0.131780
      8.84803     13.03821     13.05496        -0.148229      0.088142     -0.124033
      4.96748     10.70965     13.22124        -0.273490      0.070177     -0.376559
      4.96970     12.34094     14.88798        -0.118004     -0.092444     -0.081195
     10.11379      3.32716     15.27662        -0.010187      0.286328      0.436366
     11.75689      3.55186     11.85718         0.097428      0.021001     -0.142311
      2.05831      4.06923     15.51106         0.304021     -0.027083     -0.475785
     12.26229      7.16844     12.33278         0.462461     -0.476043     -0.344866
     14.29107      0.24708     14.03715         0.302021     -0.119787     -0.502698
      1.04744      2.11749     13.51269        -0.180156      0.001611     -0.077119
      5.94029     10.91072     10.93820         0.077032     -0.020945     -0.342123
      0.67028      9.47710     10.65611        -0.319212      0.093845      0.135695
      7.11189     14.31036     12.14634         0.330492      0.290791     -0.016777
      0.15384     13.31318     10.77948         0.191321      0.172246     -0.245596
      6.24918      3.24892     13.81770        -0.020588      0.199397     -0.241963
     13.00709      0.34425     10.66224         0.275681      0.159682      0.200939
      9.56221      9.07094     10.66287         0.173557      0.102031     -0.410496
 -----------------------------------------------------------------------------------
    total drift:                                0.012070     -0.002309      0.001077


--------------------------------------------------------------------------------------------------------



  FREE ENERGIE OF THE ION-ELECTRON SYSTEM (eV)
  ---------------------------------------------------
  free  energy   TOTEN  =      -650.26831538 eV

  energy  without entropy=     -650.15575691  energy(sigma->0) =     -650.21203615



--------------------------------------------------------------------------------------------------------


    POTLOK:  cpu time      3.4527: real time      3.4551


--------------------------------------------------------------------------------------------------------


     LOOP+:  cpu time   7252.0849: real time   7257.3651
    4ORBIT:  cpu time      0.0000: real time      0.0000



 total charge

# of ion       s       p       d       tot
------------------------------------------
    1        0.570   0.017   0.000   0.587
    2        0.576   0.018   0.000   0.594
    3        0.572   0.016   0.000   0.587
    4        0.574   0.016   0.000   0.590
    5        0.568   0.016   0.000   0.584
    6        0.567   0.016   0.000   0.582
    7        0.610   0.033   0.000   0.644
    8        0.578   0.018   0.000   0.596
    9        0.611   0.033   0.000   0.644
   10        0.570   0.016   0.000   0.586
   11        0.568   0.017   0.000   0.585
   12        0.566   0.015   0.000   0.581
   13        0.613   0.033   0.000   0.646
   14        0.613   0.032   0.000   0.646
   15        0.575   0.016   0.000   0.591
   16        0.571   0.016   0.000   0.587
   17        0.571   0.016   0.000   0.586
   18        0.768   0.915   0.000   1.683
   19        0.760   0.912   0.000   1.672
   20        0.753   0.922   0.000   1.675
   21        0.827   0.793   0.000   1.620
   22        0.762   0.895   0.000   1.657
   23        0.768   0.856   0.000   1.624
   24        0.750   0.927   0.000   1.677
   25        0.758   0.946   0.000   1.703
   26        0.753   0.911   0.000   1.663
   27        0.740   0.917   0.000   1.657
   28        0.789   0.865   0.000   1.655
   29        0.778   0.864   0.000   1.643
   30        0.757   0.939   0.000   1.696
   31        0.758   0.910   0.000   1.667
   32        0.789   0.854   0.000   1.643
   33        0.762   0.924   0.000   1.687
   34        0.789   0.829   0.000   1.619
   35        0.794   0.844   0.000   1.638
   36        0.810   0.860   0.000   1.670
   37        0.795   0.844   0.000   1.639
   38        0.770   0.935   0.000   1.705
   39        0.756   0.952   0.000   1.707
   40        0.762   0.944   0.000   1.705
   41        0.753   0.940   0.000   1.693
   42        0.814   0.853   0.000   1.667
   43        0.818   0.807   0.000   1.625
   44        0.770   0.917   0.000   1.687
   45        0.741   0.969   0.000   1.710
   46        0.756   0.913   0.000   1.669
   47        0.754   0.911   0.000   1.665
   48        0.763   0.945   0.000   1.708
   49        0.757   0.942   0.000   1.699
   50        0.799   0.864   0.000   1.663
   51        0.739   1.004   0.000   1.743
   52        0.760   0.884   0.000   1.644
   53        0.815   0.830   0.000   1.645
   54        0.810   0.869   0.000   1.679
   55        0.776   0.897   0.000   1.672
   56        0.759   0.925   0.000   1.684
   57        0.748   0.970   0.000   1.718
   58        0.879   0.735   0.000   1.614
   59        0.760   0.935   0.000   1.696
   60        0.760   0.898   0.000   1.658
   61        0.739   0.977   0.000   1.716
   62        0.772   0.936   0.000   1.707
   63        0.737   0.981   0.000   1.718
   64        0.769   0.918   0.000   1.687
   65        0.751   0.957   0.000   1.707
   66        0.764   0.923   0.000   1.688
   67        0.778   0.886   0.000   1.664
   68        0.746   0.940   0.000   1.686
   69        0.742   1.017   0.000   1.759
   70        0.814   0.801   0.000   1.615
   71        0.756   0.917   0.000   1.673
   72        0.761   0.910   0.000   1.671
   73        0.768   0.914   0.000   1.682
   74        0.823   0.809   0.000   1.632
   75        0.792   0.891   0.000   1.683
   76        0.742   1.004   0.000   1.746
   77        0.768   0.910   0.000   1.678
   78        0.741   0.985   0.000   1.727
   79        0.821   0.824   0.000   1.644
   80        0.819   0.866   0.000   1.685
--------------------------------------------------
tot         58.558  57.271   0.000 115.829


 total amount of memory used by VASP MPI-rank0   378632. kBytes
=======================================================================

   base                                    :      30000. kBytes
   nonl-proj                               :      75460. kBytes
   fftplans                                :     102065. kBytes
   grid                                    :      78750. kBytes
   one-center                              :         15. kBytes
   wavefun                                 :      92342. kBytes

  
  
 General timing and accounting informations for this job:
 ========================================================
  
                  Total CPU time used (sec):     7400.917
                            User time (sec):     6531.615
                          System time (sec):      869.302
                         Elapsed time (sec):     7407.413
  
                   Maximum memory used (kb):      635936.
                   Average memory used (kb):          N/A
  
                          Minor page faults:     12695145
                          Major page faults:         1167
                 Voluntary context switches:         3127
