 vasp.6.5.0 16Dec24 (build Jan 20 2025 08:32:48) complex                         
 executed on        HPECrayEX_GCC date 2025.07.28  18:15:29
 running  128 mpi-ranks, with    1 threads/rank, on    1 nodes
 distrk:  each k-point on  128 cores,    1 groups
 distr:  one band on NCORE=  16 cores,    8 groups


--------------------------------------------------------------------------------------------------------


 INCAR:
   SYSTEM = a-Si SPC
   NCORE = 16
   ISTART = 1
   ICHARG = 1
   ISPIN = 1
   ISYM = 1
   EDIFF = 1E-6
   NELM = 150
   EDIFFG = -0.01
   NSW = 0
   ISIF = 2
   IBRION = -1
   PREC = Accurate
   ENCUT = 1200
   KSPACING = 0.23
   KGAMMA = .TRUE.
   METAGGA = SCAN
   LASPH = .TRUE.
   LDIAG = .FALSE.
   LMIXTAU = .TRUE.
   ADDGRID = .TRUE.
   ALGO = Normal
   ISMEAR = 0
   SIGMA = 0.1
   LORBIT = 11
   NEDOS = 2000
   LWAVE = .FALSE.
   LCHARG = .FALSE.

 POTCAR:    PAW_PBE H 15Jun2001                   
 POTCAR:    PAW_PBE Si 05Jan2001                  
 POTCAR:    PAW_PBE H 15Jun2001                   
   SHA256 =  030f79b5d3ab3cf0e668861823c8fb652ff669f3e15e46930bd03bfd63a607b6 H/POTCAR              
   COPYR  = (c) Copyright 15Jun2001 Georg Kresse                                                    
   COPYR  = This file is part of the software VASP. Any use, copying, and all other rights are regul
   COPYR  = If you do not have a valid VASP license, you may not use, copy or distribute this file. 
   VRHFIN =H: ultrasoft test                                                                        
   LEXCH  = PE                                                                                      
   EATOM  =    12.4884 eV,    0.9179 Ry                                                             
                                                                                                    
   TITEL  = PAW_PBE H 15Jun2001                                                                     
   LULTRA =        F    use ultrasoft PP ?                                                          
   IUNSCR =        0    unscreen: 0-lin 1-nonlin 2-no                                               
   RPACOR =    0.000    partial core radius                                                         
   POMASS =    1.000; ZVAL   =    1.000    mass and valenz                                          
   RCORE  =    1.100    outmost cutoff radius                                                       
   RWIGS  =    0.700; RWIGS  =    0.370    wigner-seitz radius (au A)                               
   ENMAX  =  250.000; ENMIN  =  200.000 eV                                                          
   RCLOC  =    0.701    cutoff for local pot                                                        
   LCOR   =        T    correct aug charges                                                         
   LPAW   =        T    paw PP                                                                      
   EAUG   =  400.000                                                                                
   RMAX   =    1.123    core radius for proj-oper                                                   
   RAUG   =    1.200    factor for augmentation sphere                                              
   RDEP   =    1.112    radius for radial grids                                                     
   RDEPT  =    0.926    core radius for aug-charge                                                  
                                                                                                    
   Atomic configuration                                                                             
    2 entries                                                                                       
     n  l   j            E        occ.                                                              
     1  0  0.50        -6.4927   1.0000                                                             
     2  1  0.50        -3.4015   0.0000                                                             
   Description                                                                                      
     l       E           TYP  RCUT    TYP  RCUT                                                     
     0     -6.4927494     23  1.100                                                                 
     0      6.8029130     23  1.100                                                                 
     1     -4.0817478     23  1.100                                                                 
  local pseudopotential read in
  atomic valenz-charges read in
  non local Contribution for L=           0  read in
    real space projection operators read in
  non local Contribution for L=           0  read in
    real space projection operators read in
  non local Contribution for L=           1  read in
    real space projection operators read in
    PAW grid and wavefunctions read in

   number of l-projection  operators is LMAX  =           3
   number of lm-projection operators is LMMAX =           5

 POTCAR:    PAW_PBE Si 05Jan2001                  
   SHA256 =  79d9987ad8750f624c4d6acb2a16d13abf6a777132adc04dc6c8399be72b42bb Si/POTCAR             
   COPYR  = (c) Copyright 05Jan2001 Georg Kresse                                                    
   COPYR  = This file is part of the software VASP. Any use, copying, and all other rights are regul
   COPYR  = If you do not have a valid VASP license, you may not use, copy or distribute this file. 
   VRHFIN =Si: s2p2                                                                                 
   LEXCH  = PE                                                                                      
   EATOM  =   103.0669 eV,    7.5752 Ry                                                             
                                                                                                    
   TITEL  = PAW_PBE Si 05Jan2001                                                                    
   LULTRA =        F    use ultrasoft PP ?                                                          
   IUNSCR =        1    unscreen: 0-lin 1-nonlin 2-no                                               
   RPACOR =    1.500    partial core radius                                                         
   POMASS =   28.085; ZVAL   =    4.000    mass and valenz                                          
   RCORE  =    1.900    outmost cutoff radius                                                       
   RWIGS  =    2.480; RWIGS  =    1.312    wigner-seitz radius (au A)                               
   ENMAX  =  245.345; ENMIN  =  184.009 eV                                                          
   ICORE  =        2    local potential                                                             
   LCOR   =        T    correct aug charges                                                         
   LPAW   =        T    paw PP                                                                      
   EAUG   =  322.069                                                                                
   DEXC   =    0.000                                                                                
   RMAX   =    1.950    core radius for proj-oper                                                   
   RAUG   =    1.300    factor for augmentation sphere                                              
   RDEP   =    1.993    radius for radial grids                                                     
   RDEPT  =    1.837    core radius for aug-charge                                                  
                                                                                                    
   Atomic configuration                                                                             
    6 entries                                                                                       
     n  l   j            E        occ.                                                              
     1  0  0.50     -1785.8828   2.0000                                                             
     2  0  0.50      -139.4969   2.0000                                                             
     2  1  1.50       -95.5546   6.0000                                                             
     3  0  0.50       -10.8127   2.0000                                                             
     3  1  0.50        -4.0811   2.0000                                                             
     3  2  1.50        -4.0817   0.0000                                                             
   Description                                                                                      
     l       E           TYP  RCUT    TYP  RCUT                                                     
     0    -10.8127223     23  1.900                                                                 
     0     -7.6451159     23  1.900                                                                 
     1     -4.0811372     23  1.900                                                                 
     1      2.4879257     23  1.900                                                                 
     2     -4.0817478      7  1.900                                                                 
  local pseudopotential read in
  partial core-charges read in
  partial kinetic energy density read in
  atomic valenz-charges read in
  non local Contribution for L=           0  read in
    real space projection operators read in
  non local Contribution for L=           0  read in
    real space projection operators read in
  non local Contribution for L=           1  read in
    real space projection operators read in
  non local Contribution for L=           1  read in
    real space projection operators read in
    PAW grid and wavefunctions read in

   number of l-projection  operators is LMAX  =           4
   number of lm-projection operators is LMMAX =           8

 -----------------------------------------------------------------------------
|                                                                             |
|               ----> ADVICE to this user running VASP <----                  |
|                                                                             |
|     You have a (more or less) 'large supercell' and for larger cells it     |
|     might be more efficient to use real-space projection operators.         |
|     Therefore, try LREAL= Auto in the INCAR file.                           |
|     Mind: For very accurate calculation, you might also keep the            |
|     reciprocal projection scheme (i.e. LREAL=.FALSE.).                      |
|                                                                             |
 -----------------------------------------------------------------------------

 -----------------------------------------------------------------------------
|                                                                             |
|               ----> ADVICE to this user running VASP <----                  |
|                                                                             |
|     You enforced a specific xc type in the INCAR file but a different       |
|     type was found in the POTCAR file.                                      |
|     I HOPE YOU KNOW WHAT YOU ARE DOING!                                     |
|                                                                             |
 -----------------------------------------------------------------------------

  PAW_PBE H 15Jun2001                   :
 energy of atom  1       EATOM=  -12.4884
 kinetic energy error for atom=    0.0000 (will be added to EATOM!!)
  PAW_PBE Si 05Jan2001                  :
 energy of atom  2       EATOM= -103.0669
 kinetic energy error for atom=    0.0001 (will be added to EATOM!!)


 POSCAR:  H Si
  positions in cartesian coordinates
  No initial velocities read in


 exchange-correlation table for SCAN
   RHO(1)=    0.500       N(1)  =     2000
   RHO(2)=  100.500       N(2)  =     4000



--------------------------------------------------------------------------------------------------------


 ion  position               nearest neighbor table
   1  0.049  0.170  0.648-  10 0.81 146 1.95
   2  0.663  0.400  0.528- 140 1.49
   3  0.356  0.230  0.659-  15 0.74
   4  0.960  0.445  0.522-  93 1.49
   5  0.381  0.168  0.301-  74 1.49
   6  0.078  0.117  0.410-  25 0.74
   7  0.731  0.166  0.428- 127 1.49
   8  0.902  0.156  0.645-  19 0.75
   9  0.964  0.031  0.695- 146 1.48
  10  0.057  0.225  0.647-   1 0.81
  11  0.270  0.309  0.335- 100 1.50
  12  0.299  0.391  0.522-  16 0.75
  13  0.306  0.224  0.564-  75 1.48
  14  0.035  0.241  0.361-  30 0.74
  15  0.311  0.209  0.654-   3 0.74
  16  0.296  0.385  0.548-  12 0.75
  17  0.181  0.143  0.598-  75 1.47
  18  0.338  0.181  0.405-  54 0.75
  19  0.865  0.192  0.646-   8 0.75
  20  0.782  0.347  0.461- 142 1.49
  21  0.818  0.897  0.548- 137 1.50
  22  0.402  0.278  0.480-  85 1.48
  23  0.615  0.199  0.391-  76 1.49
  24  0.575  0.524  0.506-  59 0.75
  25  0.032  0.122  0.421-   6 0.74
  26  0.708  0.292  0.379-  52 0.75
  27  0.537  0.361  0.457-  85 1.48
  28  0.427  0.140  0.469-  77 1.48
  29  0.569  0.291  0.529- 111 1.46
  30  0.985  0.237  0.364-  14 0.74
  31  0.195  0.153  0.457- 128 1.46
  32  0.998  0.060  0.495-  96 1.49
  33  0.408  0.042  0.661-  64 1.48
  34  0.876  0.192  0.558- 114 1.49
  35  0.940  0.986  0.408-  87 1.51
  36  0.379  0.616  0.629-  66 1.49
  37  0.853  0.071  0.556-  46 0.78
  38  0.720  0.239  0.512- 111 1.47
  39  0.664  0.033  0.451-  95 1.48
  40  0.785  0.006  0.492-  43 0.77
  41  0.455  0.257  0.593- 123 1.48
  42  0.068  0.259  0.465- 128 1.47
  43  0.805  0.051  0.483-  40 0.77
  44  0.001  0.295  0.555- 114 1.48
  45  0.402  0.101  0.582-  64 1.48
  46  0.811  0.047  0.567-  37 0.78 103 1.97
  47  0.557  0.161  0.634-  62 1.49
  48  0.226  0.109  0.353-  72 1.49
  49  0.592  0.141  0.500- 111 1.47
  50  0.465  0.382  0.537-  85 1.61 123 1.78
  51  0.466  0.306  0.314-  74 1.49
  52  0.751  0.317  0.376-  26 0.75
  53  0.031  0.152  0.554-  56 0.74
  54  0.314  0.226  0.409-  18 0.75
  55  0.227  0.091  0.523-  68 1.49
  56  0.044  0.126  0.575-  53 0.74
  57  0.162  0.265  0.396- 128 1.56 100 1.75
  58  0.155  0.246  0.534-  75 1.49
  59  0.531  0.498  0.506-  24 0.75
  60  0.661  0.419  0.433- 107 1.48
  61  0.229  0.312  0.470- 128 1.47
  62  0.646  0.168  0.610-  47 1.49 103 2.33 111 2.33  63 2.35
  63  0.710  0.304  0.639-  62 2.35 116 2.35 101 2.37
  64  0.391  0.018  0.611-  33 1.48  45 1.48 139 2.32 144 2.35
  65  0.785  0.712  0.513- 117 2.30  83 2.30  78 2.35 135 2.37
  66  0.307  0.565  0.602-  36 1.49 134 2.27 124 2.32 125 2.40
  67  0.732  0.644  0.647- 119 2.28  81 2.30 131 2.31
  68  0.200  0.993  0.527-  55 1.49  89 2.34  96 2.37 144 2.38
  69  0.085  0.464  0.607- 124 2.32  88 2.35  93 2.35 136 2.37
  70  0.282  0.798  0.590- 144 2.33  94 2.33 126 2.35  71 3.02
  71  0.095  0.843  0.628- 118 2.32 122 2.34 126 2.41 144 2.79  70 3.02 146 3.10
  72  0.219  0.022  0.381-  48 1.49 108 2.30 109 2.33
  73  0.433  0.846  0.371- 109 2.35  91 2.41 115 2.41
  74  0.474  0.205  0.310-  51 1.49   5 1.49  76 2.29
  75  0.209  0.232  0.578-  17 1.47  13 1.48  58 1.49 136 2.33
  76  0.547  0.134  0.371-  23 1.49  74 2.29  97 2.34  77 2.34
  77  0.464  0.075  0.435-  28 1.48 109 2.32  95 2.34  76 2.34
  78  0.890  0.715  0.575-  79 2.31 119 2.31 137 2.33  65 2.35
  79  0.016  0.732  0.527-  78 2.31 129 2.35 130 2.36 126 2.38  80 2.92
  80  0.200  0.670  0.502- 125 2.31 113 2.31 130 2.39 126 2.45  79 2.92
  81  0.671  0.787  0.634-  67 2.30 106 2.32 133 2.35 117 2.59  84 3.03
  82  0.893  0.654  0.393- 141 2.41 105 2.42  99 2.43 135 2.49  92 2.55
  83  0.774  0.559  0.495- 140 2.28 141 2.29  65 2.30 107 2.33
  84  0.544  0.672  0.574- 133 2.37 145 2.37 117 2.39 131 2.39  81 3.03
  85  0.449  0.368  0.481-  27 1.48  22 1.48  50 1.61 120 2.31
  86  0.762  0.980  0.358-  97 2.27 104 2.29  87 2.31
  87  0.892  0.060  0.380-  35 1.51  86 2.31 127 2.32
  88  0.933  0.475  0.632- 119 2.28 101 2.32  69 2.35
  89  0.301  0.910  0.479- 113 2.30  94 2.31 109 2.33  68 2.34
  90  0.211  0.623  0.367- 143 2.35  99 2.43  91 2.44
  91  0.338  0.718  0.393- 113 2.36 102 2.38  73 2.41  90 2.44
  92  0.738  0.700  0.360- 104 2.35  98 2.46  82 2.55 135 3.14
  93  0.058  0.473  0.526-   4 1.49 132 2.35  69 2.35 130 2.47 141 3.11
  94  0.388  0.825  0.531-  89 2.31 139 2.32 145 2.33  70 2.33
  95  0.581  0.982  0.465-  39 1.48 115 2.33  77 2.34 138 2.37
  96  0.040  0.975  0.515-  32 1.49 118 2.34 129 2.35  68 2.37
  97  0.614  0.005  0.337-  86 2.27  76 2.34
  98  0.616  0.630  0.407- 107 2.32 110 2.33  92 2.46 102 2.48
  99  0.059  0.668  0.394- 121 2.32  82 2.43  90 2.43 130 2.47
 100  0.190  0.355  0.358-  11 1.50  57 1.75 143 2.36 128 3.08
 101  0.825  0.381  0.596- 140 2.31  88 2.32 114 2.33  63 2.37
 102  0.450  0.616  0.424-  91 2.38 120 2.38  98 2.48 145 2.58 110 2.87
 103  0.696  0.018  0.600-  46 1.97  62 2.33 106 2.34 138 2.37
 104  0.731  0.845  0.395-  86 2.29  92 2.35 115 2.39 135 2.40
 105  0.846  0.498  0.377- 112 2.36 107 2.41  82 2.42 141 2.55
 106  0.760  0.913  0.653-  81 2.32 137 2.33 103 2.34
 107  0.711  0.507  0.425-  60 1.48  98 2.32  83 2.33 105 2.41 141 3.12
 108  0.106  0.930  0.350-  72 2.30 121 2.35
 109  0.358  0.967  0.409-  77 2.32  72 2.33  89 2.33  73 2.35
 110  0.585  0.731  0.468- 115 2.33  98 2.33 145 2.38 117 2.49 102 2.87
 111  0.630  0.212  0.532-  29 1.46  49 1.47  38 1.47  62 2.33
 112  0.954  0.410  0.419- 142 2.34 132 2.34 141 2.35 105 2.36
 113  0.233  0.782  0.447-  89 2.30  80 2.31 121 2.35  91 2.36
 114  0.902  0.286  0.544-  44 1.48  34 1.49 101 2.33 142 2.35
 115  0.572  0.854  0.416- 110 2.33  95 2.33 104 2.39  73 2.41
 116  0.586  0.407  0.639- 123 2.30  63 2.35 131 2.36
 117  0.654  0.777  0.544-  65 2.30 138 2.39  84 2.39 110 2.49  81 2.59
 118  0.996  0.946  0.592- 137 2.28 146 2.31  71 2.32  96 2.34
 119  0.887  0.623  0.641-  67 2.28  88 2.28  78 2.31
 120  0.363  0.491  0.454-  85 2.31 125 2.36 102 2.38 143 2.39
 121  0.095  0.820  0.410-  99 2.32 113 2.35 129 2.35 108 2.35
 122  0.164  0.957  0.674- 144 2.34  71 2.34 146 2.34
 123  0.461  0.358  0.598-  41 1.48  50 1.78 134 2.28 116 2.30
 124  0.160  0.598  0.629- 126 2.31  66 2.32  69 2.32
 125  0.327  0.583  0.520-  80 2.31 145 2.34 120 2.36  66 2.40
 126  0.144  0.720  0.578- 124 2.31  70 2.35  79 2.38  71 2.41  80 2.45
 127  0.831  0.155  0.438-   7 1.49  87 2.32 142 2.33
 128  0.164  0.247  0.449-  31 1.46  61 1.47  42 1.47  57 1.56 100 3.08
 129  0.992  0.848  0.471- 121 2.35  96 2.35  79 2.35 135 2.45
 130  0.056  0.611  0.476-  79 2.36 141 2.38  80 2.39  93 2.47  99 2.47 132 2.50
 131  0.632  0.549  0.607-  67 2.31 140 2.34 116 2.36  84 2.39
 132  0.098  0.455  0.447- 112 2.34  93 2.35 143 2.35 130 2.50 141 3.05
 133  0.511  0.775  0.636-  81 2.35 139 2.37  84 2.37
 134  0.321  0.414  0.620-  66 2.27 123 2.28 136 2.30
 135  0.846  0.782  0.445-  65 2.37 104 2.40 129 2.45  82 2.49  92 3.14
 136  0.182  0.345  0.634- 134 2.30  75 2.33  69 2.37
 137  0.861  0.868  0.594-  21 1.50 118 2.28 106 2.33  78 2.33
 138  0.612  0.935  0.543- 139 2.30 103 2.37  95 2.37 117 2.39
 139  0.482  0.899  0.584- 138 2.30  94 2.32  64 2.32 133 2.37
 140  0.721  0.466  0.554-   2 1.49  83 2.28 101 2.31 131 2.34
 141  0.911  0.547  0.456-  83 2.29 112 2.35 130 2.38  82 2.41 105 2.55 132 3.05  93 3.11 107 3.12

 142  0.874  0.300  0.463-  20 1.49 127 2.33 112 2.34 114 2.35
 143  0.233  0.482  0.404- 132 2.35  90 2.35 100 2.36 120 2.39
 144  0.245  0.951  0.604-  70 2.33 122 2.34  64 2.35  68 2.38  71 2.79
 145  0.448  0.684  0.508-  94 2.33 125 2.34  84 2.37 110 2.38 102 2.58
 146  0.030  0.038  0.655-   9 1.48   1 1.95 118 2.31 122 2.34  71 3.10

  LATTYP: Found a simple tetragonal cell.
 ALAT       =    14.5917708481
 C/A-ratio  =     1.9579803094
  
  Lattice vectors:
  
 A1 = (  14.5917708481,   0.0000000000,   0.0000000000)
 A2 = (   0.0000000000,  14.5917708481,   0.0000000000)
 A3 = (   0.0000000000,   0.0000000000,  28.5704000000)


Analysis of symmetry for initial positions (statically):
=====================================================================
 Subroutine PRICEL returns:
 Original cell was already a primitive cell.
 

 Routine SETGRP: Setting up the symmetry group for a 
 simple tetragonal supercell.


 Subroutine GETGRP returns: Found  1 space group operations
 (whereof  1 operations were pure point group operations)
 out of a pool of 16 trial point group operations.


The static configuration has the point symmetry C_1 .


Analysis of symmetry for dynamics (positions and initial velocities):
=====================================================================
 Subroutine PRICEL returns:
 Original cell was already a primitive cell.
 

 Routine SETGRP: Setting up the symmetry group for a 
 simple tetragonal supercell.


 Subroutine GETGRP returns: Found  1 space group operations
 (whereof  1 operations were pure point group operations)
 out of a pool of 16 trial point group operations.


The dynamic configuration has the point symmetry C_1 .


 Subroutine INISYM returns: Found  1 space group operations
 (whereof  1 operations are pure point group operations),
 and found     1 'primitive' translations


----------------------------------------------------------------------------------------

                                     Primitive cell                                     

  volume of cell :    6083.2032

  direct lattice vectors                    reciprocal lattice vectors
    14.591770848  0.000000000  0.000000000     0.068531778  0.000000000  0.000000000
     0.000000000 14.591770848  0.000000000     0.000000000  0.068531778  0.000000000
     0.000000000  0.000000000 28.570400000     0.000000000  0.000000000  0.035001260

  length of vectors
    14.591770848 14.591770848 28.570400000     0.068531778  0.068531778  0.035001260

  position of ions in fractional coordinates (direct lattice)
     0.048997028  0.170235818  0.648279186
     0.663176081  0.399699357  0.527509137
     0.355696277  0.230299788  0.659444403
     0.959965228  0.445291801  0.522120440
     0.380723011  0.168016101  0.300947612
     0.078442691  0.116804811  0.410164447
     0.730937023  0.165637047  0.428088917
     0.902051965  0.156173074  0.645480832
     0.963799832  0.031210777  0.694681765
     0.057434167  0.224750385  0.647190104
     0.269610407  0.308567385  0.334965467
     0.299169819  0.390826860  0.521744436
     0.305622040  0.223571334  0.563638071
     0.035315348  0.241023032  0.360716750
     0.310665818  0.209223101  0.653545783
     0.295955196  0.385497314  0.547917724
     0.180888040  0.142653779  0.598050565
     0.338051492  0.181353811  0.405124449
     0.865230219  0.192022687  0.646101640
     0.782327345  0.346554932  0.461326464
     0.817968666  0.897230678  0.548458463
     0.402310280  0.277787581  0.479523899
     0.615428618  0.199290975  0.390978020
     0.575400232  0.523638976  0.505999573
     0.032068929  0.121909728  0.420710996
     0.707868335  0.291610777  0.379400054
     0.537436374  0.360836993  0.456878223
     0.427279100  0.140302829  0.469356190
     0.569396811  0.290947375  0.528598007
     0.985011178  0.237036772  0.364017226
     0.195044976  0.152893039  0.456577629
     0.997644810  0.060112406  0.495095820
     0.407944461  0.041890739  0.660643421
     0.875606389  0.191889809  0.558379583
     0.940268343  0.985756856  0.407940144
     0.378704083  0.616396575  0.628826738
     0.853443531  0.070971354  0.555859133
     0.719580873  0.239413996  0.512449236
     0.664007698  0.033206880  0.450549011
     0.784646026  0.005891482  0.491920613
     0.455023213  0.257036147  0.593085098
     0.068138996  0.258842854  0.464691347
     0.805433594  0.051184576  0.482923013
     0.001000467  0.294813960  0.554529839
     0.402453367  0.101370820  0.581862644
     0.811239485  0.047280978  0.567147438
     0.556781111  0.160892500  0.634066737
     0.225898275  0.108663067  0.353490904
     0.591552256  0.141218362  0.500463837
     0.465064816  0.381914303  0.536677538
     0.466147174  0.305990169  0.313955652
     0.751327768  0.317483667  0.375703702
     0.030524994  0.151957227  0.554136699
     0.313853886  0.225833940  0.409144509
     0.227470168  0.091117012  0.523179640
     0.043884217  0.125846501  0.575406231
     0.162015352  0.264675247  0.395640964
     0.154840130  0.246431103  0.534499547
     0.530922969  0.497700672  0.506420081
     0.660638053  0.419354739  0.432689838
     0.229458192  0.312205694  0.469630941
     0.646402779  0.168060204  0.609556262
     0.709570909  0.304003838  0.639272918
     0.390690347  0.018239197  0.611060219
     0.784532151  0.712378604  0.513429369
     0.306851808  0.565090052  0.602346066
     0.732171752  0.643509391  0.646838412
     0.199954424  0.993117516  0.526754497
     0.085214530  0.464085183  0.606927590
     0.282454249  0.797851745  0.590360103
     0.094569903  0.843347957  0.628444473
     0.218602249  0.021983758  0.381002727
     0.433276070  0.845653573  0.370959719
     0.474005604  0.204773312  0.310178881
     0.208904213  0.231594078  0.578209676
     0.546794409  0.134283425  0.371341553
     0.464165248  0.074704114  0.434574047
     0.890173126  0.714932034  0.575277662
     0.015998021  0.731575351  0.526858029
     0.199979001  0.670286005  0.501618150
     0.671018468  0.786600977  0.634098650
     0.893407274  0.653790798  0.392949404
     0.773948395  0.558913769  0.495278712
     0.543699173  0.671769734  0.574477786
     0.448623886  0.368226362  0.481439326
     0.761896965  0.980486181  0.357853825
     0.891781236  0.059561447  0.380429227
     0.932685032  0.474828699  0.632191841
     0.300530498  0.909630089  0.479264049
     0.210799595  0.623118141  0.366773899
     0.338474588  0.718117433  0.393435453
     0.738073598  0.700135388  0.359621294
     0.057974678  0.473169751  0.526004487
     0.388475462  0.824685634  0.530828225
     0.580691830  0.982167596  0.464912193
     0.040107453  0.975083797  0.514616578
     0.613826992  0.004999088  0.337272151
     0.616372182  0.629710862  0.407113708
     0.059459766  0.668097809  0.394356707
     0.189586333  0.355079504  0.357776018
     0.825062438  0.381472797  0.596452172
     0.450324967  0.615982626  0.424081572
     0.696224039  0.017750943  0.599941216
     0.730545341  0.844854656  0.395116035
     0.846036176  0.497948765  0.377312917
     0.760101990  0.912828087  0.652845446
     0.710573478  0.506658979  0.425167082
     0.106031981  0.929887435  0.349598677
     0.358387324  0.967042266  0.408979325
     0.584599152  0.730806100  0.468183617
     0.630128974  0.211570613  0.531548720
     0.953735803  0.409565585  0.419385900
     0.233263763  0.782205873  0.446804964
     0.902112871  0.286491829  0.543982946
     0.572179576  0.853766820  0.416465890
     0.586045261  0.407245716  0.639481299
     0.654108843  0.777305273  0.544122564
     0.996248010  0.945625263  0.592093365
     0.886577407  0.623311711  0.641261780
     0.363403171  0.490955998  0.454246735
     0.095196683  0.820437430  0.409575887
     0.163868843  0.957437756  0.673955217
     0.460634390  0.358069172  0.597788915
     0.160289741  0.597768847  0.628983409
     0.326705212  0.582618185  0.519554079
     0.143585954  0.720082943  0.578418227
     0.830714084  0.155036159  0.437534193
     0.163903100  0.246931713  0.449465638
     0.991902163  0.847681990  0.470959035
     0.056291844  0.610897688  0.475832182
     0.631879637  0.548924804  0.606821856
     0.097966521  0.454898067  0.447052872
     0.510648344  0.775410118  0.636054950
     0.320965500  0.413775144  0.619967444
     0.846176470  0.781576985  0.445285664
     0.181974491  0.344742535  0.633839569
     0.860760356  0.867934115  0.593693269
     0.612037205  0.935459331  0.542765752
     0.481884928  0.898917612  0.584437886
     0.721060550  0.466187432  0.553703511
     0.911071814  0.546944036  0.456480653
     0.873632376  0.300329101  0.463377480
     0.232517308  0.481584796  0.404194727
     0.245383971  0.950895201  0.603622260
     0.448413358  0.684185392  0.507522182
     0.029951492  0.038465096  0.655358291

  ion indices of the primitive-cell ions
   primitive index   ion index
                 1           1
                 2           2
                 3           3
                 4           4
                 5           5
                 6           6
                 7           7
                 8           8
                 9           9
                10          10
                11          11
                12          12
                13          13
                14          14
                15          15
                16          16
                17          17
                18          18
                19          19
                20          20
                21          21
                22          22
                23          23
                24          24
                25          25
                26          26
                27          27
                28          28
                29          29
                30          30
                31          31
                32          32
                33          33
                34          34
                35          35
                36          36
                37          37
                38          38
                39          39
                40          40
                41          41
                42          42
                43          43
                44          44
                45          45
                46          46
                47          47
                48          48
                49          49
                50          50
                51          51
                52          52
                53          53
                54          54
                55          55
                56          56
                57          57
                58          58
                59          59
                60          60
                61          61
                62          62
                63          63
                64          64
                65          65
                66          66
                67          67
                68          68
                69          69
                70          70
                71          71
                72          72
                73          73
                74          74
                75          75
                76          76
                77          77
                78          78
                79          79
                80          80
                81          81
                82          82
                83          83
                84          84
                85          85
                86          86
                87          87
                88          88
                89          89
                90          90
                91          91
                92          92
                93          93
                94          94
                95          95
                96          96
                97          97
                98          98
                99          99
               100         100
               101         101
               102         102
               103         103
               104         104
               105         105
               106         106
               107         107
               108         108
               109         109
               110         110
               111         111
               112         112
               113         113
               114         114
               115         115
               116         116
               117         117
               118         118
               119         119
               120         120
               121         121
               122         122
               123         123
               124         124
               125         125
               126         126
               127         127
               128         128
               129         129
               130         130
               131         131
               132         132
               133         133
               134         134
               135         135
               136         136
               137         137
               138         138
               139         139
               140         140
               141         141
               142         142
               143         143
               144         144
               145         145
               146         146

----------------------------------------------------------------------------------------


 -----------------------------------------------------------------------------
|                                                                             |
|           W    W    AA    RRRRR   N    N  II  N    N   GGGG   !!!           |
|           W    W   A  A   R    R  NN   N  II  NN   N  G    G  !!!           |
|           W    W  A    A  R    R  N N  N  II  N N  N  G       !!!           |
|           W WW W  AAAAAA  RRRRR   N  N N  II  N  N N  G  GGG   !            |
|           WW  WW  A    A  R   R   N   NN  II  N   NN  G    G                |
|           W    W  A    A  R    R  N    N  II  N    N   GGGG   !!!           |
|                                                                             |
|     The requested file  could not be found or opened for reading            |
|     k-point information. Automatic k-point generation is used as a          |
|     fallback, which may lead to unwanted results.                           |
|                                                                             |
 -----------------------------------------------------------------------------



Automatic generation of k-mesh.
 Grid dimensions derived from KSPACING:
 generate k-points for:    2    2    1

 Generating k-lattice:

  Cartesian coordinates                     Fractional coordinates (reciprocal lattice)
     0.034265889  0.000000000  0.000000000     0.500000000  0.000000000  0.000000000
     0.000000000  0.034265889  0.000000000     0.000000000  0.500000000  0.000000000
     0.000000000  0.000000000  0.035001260     0.000000000  0.000000000  1.000000000

  Length of vectors
     0.034265889  0.034265889  0.035001260

  Shift w.r.t. Gamma in fractional coordinates (k-lattice)
     0.000000000  0.000000000  0.000000000

 
 Subroutine IBZKPT returns following result:
 ===========================================
 
 Found      4 irreducible k-points:
 
 Following reciprocal coordinates:
            Coordinates               Weight
  0.000000  0.000000  0.000000      1.000000
  0.500000  0.000000  0.000000      1.000000
  0.000000  0.500000  0.000000      1.000000
  0.500000  0.500000  0.000000      1.000000
 
 Following cartesian coordinates:
            Coordinates               Weight
  0.000000  0.000000  0.000000      1.000000
  0.034266  0.000000  0.000000      1.000000
  0.000000  0.034266  0.000000      1.000000
  0.034266  0.034266  0.000000      1.000000
 


--------------------------------------------------------------------------------------------------------




 Dimension of arrays:
   k-points           NKPTS =      4   k-points in BZ     NKDIM =      4   number of bands    NBANDS=    280
   number of dos      NEDOS =   2000   number of ions     NIONS =    146
   non local maximal  LDIM  =      4   non local SUM 2l+1 LMDIM =      8
   total plane-waves  NPLWV = ******
   max r-space proj   IRMAX =      1   max aug-charges    IRDMAX= 402241
   dimension x,y,z NGX =   168 NGY =  168 NGZ =  324
   dimension x,y,z NGXF=   336 NGYF=  336 NGZF=  648
   support grid    NGXF=   672 NGYF=  672 NGZF= 1296
   ions per type =              61  85
   NGX,Y,Z   is equivalent  to a cutoff of  19.14, 19.14, 18.85 a.u.
   NGXF,Y,Z  is equivalent  to a cutoff of  38.28, 38.28, 37.71 a.u.

 SYSTEM =  a-Si SPC                                
 POSCAR =   H Si                                   

 Startparameter for this run:
   NWRITE =      2    write-flag & timer
   PREC   = accura    normal or accurate (medium, high low for compatibility)
   ISTART =      1    job   : 0-new  1-cont  2-samecut
   ICHARG =      1    charge: 1-file 2-atom 10-const
   ISPIN  =      1    spin polarized calculation?
   LNONCOLLINEAR =      F non collinear calculations
   LSORBIT =      F    spin-orbit coupling
   INIWAV =      1    electr: 0-lowe 1-rand  2-diag
   LASPH  =      T    aspherical Exc in radial PAW
 Electronic Relaxation 1
   ENCUT  = 1200.0 eV  88.20 Ry    9.39 a.u.  41.21 41.21 80.70*2*pi/ulx,y,z
   ENINI  = 1200.0     initial cutoff
   ENAUG  =  400.0 eV  augmentation charge cutoff
   NELM   =    150;   NELMIN=  2; NELMDL=  0     # of ELM steps 
   EDIFF  = 0.1E-05   stopping-criterion for ELM
   LREAL  =      F    real-space projection
   NLSPLINE    = F    spline interpolate recip. space projectors
   LCOMPAT=      F    compatible to vasp.4.4
   GGA_COMPAT  = T    GGA compatible to vasp.4.4-vasp.4.6
   LMAXPAW     = -100 max onsite density
   LMAXMIX     =    2 max onsite mixed and CHGCAR
   VOSKOWN=      0    Vosko Wilk Nusair interpolation
   ROPT   =    0.00000   0.00000
 Ionic relaxation
   EDIFFG = -.1E-01   stopping-criterion for IOM
   NSW    =      0    number of steps for IOM
   NBLOCK =      1;   KBLOCK =      1    inner block; outer block 
   IBRION =     -1    ionic relax: 0-MD 1-quasi-New 2-CG
   NFREE  =      0    steps in history (QN), initial steepest desc. (CG)
   ISIF   =      2    stress and relaxation
   IWAVPR =     10    prediction:  0-non 1-charg 2-wave 3-comb
   ISYM   =      1    0-nonsym 1-usesym 2-fastsym
   LCORR  =      T    Harris-Foulkes like correction to forces

   POTIM  = 0.5000    time-step for ionic-motion
   TEIN   =    0.0    initial temperature
   TEBEG  =    0.0;   TEEND  =   0.0 temperature during run
   SMASS  =  -3.00    Nose mass-parameter (am)
   estimated Nose-frequenzy (Omega)   =  0.10E-29 period in steps = 0.13E+47 mass=  -0.487E-26a.u.
   SCALEE = 1.0000    scale energy and forces
   NPACO  =    256;   APACO  = 10.0  distance and # of slots for P.C.
   PSTRESS=    0.0 pullay stress

  Mass of Ions in am
   POMASS =   1.00 28.09
  Ionic Valenz
   ZVAL   =   1.00  4.00
  Atomic Wigner-Seitz radii
   RWIGS  =  -1.00 -1.00
  virtual crystal weights 
   VCA    =   1.00  1.00
   NELECT =     401.0000    total number of electrons
   NUPDOWN=      -1.0000    fix difference up-down

 DOS related values:
   EMIN   =  10.00;   EMAX   =-10.00  energy-range for DOS
   EFERMI =   0.00;   METHOD = LEGACY      
   ISMEAR =     0;   SIGMA  =   0.10  broadening in eV -4-tet -1-fermi 0-gaus
   EFERMI_NEDOS =   21; number of points for ismear=-14 and -15

 Electronic relaxation 2 (details)
   IALGO  =     38    algorithm
   LDIAG  =      F    sub-space diagonalisation (order eigenvalues)
   LSUBROT=      F    optimize rotation matrix (better conditioning)
   TURBO    =      0    0=normal 1=particle mesh
   IRESTART =      0    0=no restart 2=restart with 2 vectors
   NREBOOT  =      0    no. of reboots
   NMIN     =      0    reboot dimension
   EREF     =   0.00    reference energy to select bands
   IMIX   =      4    mixing-type and parameters
     AMIX     =   0.40;   BMIX     =  1.00
     AMIX_MAG =   1.60;   BMIX_MAG =  1.00
     AMIN     =   0.10
     WC   =   100.;   INIMIX=   1;  MIXPRE=   1;  MAXMIX= -45

 Intra band minimization:
   WEIMIN = 0.0000     energy-eigenvalue tresh-hold
   EBREAK =  0.89E-09  absolut break condition
   DEPER  =   0.30     relativ break condition  

   TIME   =   0.40     timestep for ELM

  volume/ion in A,a.u.               =      41.67       281.17
  Fermi-wavevector in a.u.,A,eV,Ry     =   0.661321  1.249715  5.950443  0.437345
  Thomas-Fermi vector in A             =   1.734043

 Write flags
   LWAVE        =      F    write WAVECAR
   LDOWNSAMPLE  =      F    k-point downsampling of WAVECAR
   LCHARG       =      F    write CHGCAR
   LVTOT        =      F    write LOCPOT, total local potential
   LVHAR        =      F    write LOCPOT, Hartree potential only
   WRT_POTENTIAL= false  ! write potential to hdf5 file
   LELF         =      F    write electronic localiz. function (ELF)
   LORBIT       =     11    0 simple, 1 ext, 2 COOP (PROOUT), +10 PAW based schemes


 Python interface
   PLUGINS active      =      F    recompile with -DPLUGINS to activate

 Dipole corrections
   LMONO      =      F    monopole corrections only (constant potential shift)
   LDIPOL     =      F    correct potential (dipole corrections)
   IDIPOL     =      0    1-x, 2-y, 3-z, 4-all directions 
   EPSILON    =  1.0000000 bulk dielectric constant
   LVACPOTAV  =      F  vacuum potentials using an averaging scheme for the charge density
   VACPOTFLAT =  0.1000000 required flatness to determine vacuum potential

Coulomb truncation method
  LTRUNCATE          =      F  Coulomb kernel truncation to be used
  IDIMENSIONALITY    =      3  Dimensionality of cutoff (0 molecules / 2 surfaces)
  ISURFACE           =     -1  Direction of surface normal
  LCOARSEN           =      F  Coarsen the charge grid before padding, preferred


 Exchange correlation treatment:
   METAGGA = SCAN    functional components
   XC_C    = 1    coefficients multiplying the functional components
   LIBXC   =     F    Libxc                    
   VOSKOWN =     0    Vosko Wilk Nusair interpolation
   LHFCALC =     F    Hartree Fock is set to
   LHFONE  =     F    Hartree Fock one center treatment
   AEXX    =    0.0000 exact exchange contribution

 Parameters of functionals:
   SCAN:
     P1 =  0.000000E+00
     P2 =  0.000000E+00
     P3 =  0.000000E+00

 Accuracy and mixing parameters for tau-dependent meta-GGA functionals:
   LMAXTAU = 6
   LMIXTAU = T

 Van der Waals corrections
   IVDW    =     0    specifies the selected vdW correction

 Linear response parameters
   LEPSILON=     F    determine dielectric tensor
   LRPA    =     F    only Hartree local field effects (RPA)
   LNABLA  =     F    use nabla operator in PAW spheres
   LVEL    =     F    velocity operator in full k-point grid
   CSHIFT  =0.1000    complex shift for real part using Kramers Kronig
   OMEGAMAX=  -1.0    maximum frequency
   DEG_THRESHOLD= 0.2000000E-02 threshold for treating states as degnerate
   RTIME   =   -0.100 relaxation time in fs
  (WPLASMAI=    0.000 imaginary part of plasma frequency in eV, 0.658/RTIME)
   DFIELD  = 0.0000000 0.0000000 0.0000000 field for delta impulse in time

  Optional k-point grid parameters
   LKPOINTS_OPT  =     F    use optional k-point grid
   KPOINTS_OPT_MODE=     1    mode for optional k-point grid

 Orbital magnetization related:
   ORBITALMAG=     F  switch on orbital magnetization
   LCHIMAG   =     F  perturbation theory with respect to B field
   DQ        =  0.001000  dq finite difference perturbation B field
   LLRAUG    =     F  two centre corrections for induced B field
   LBONE     =     F  B-component reconstruction in AE one-centre
   LVGVCALC  =     T  calculate vGv susceptibility
   LVGVAPPL  =     F  apply vGv susceptibility instead of pGv for G=0

 Random number generation:
   RANDOM_GENERATOR = DEFAULT
   PCG_SEED         = not used


--------------------------------------------------------------------------------------------------------


 Static calculation
 charge density and potential will be updated during run
 non-spin polarized calculation
 Variant of blocked Davidson
 perform Loewdin sub-space diagonalisation
    ordering is kept fixed
    before iterative eigenvector-optimisation
 modified Broyden-mixing scheme, WC =      100.0
 initial mixing is a Kerker type mixing with AMIX =  0.4000 and BMIX =      1.0000
 Hartree-type preconditioning will be used
 using additional bands           79
 reciprocal scheme for non local part
 use partial core corrections
 calculate Harris-corrections to forces   (improved forces if not selfconsistent)
 use gradient corrections 
 use of overlap-Matrix (Vanderbilt PP)
 Gauss-broadening in eV      SIGMA  =   0.10


--------------------------------------------------------------------------------------------------------


  energy-cutoff  :     1200.00
  volume of cell :     6083.20
      direct lattice vectors                 reciprocal lattice vectors
    14.591770848  0.000000000  0.000000000     0.068531778  0.000000000  0.000000000
     0.000000000 14.591770848  0.000000000     0.000000000  0.068531778  0.000000000
     0.000000000  0.000000000 28.570400000     0.000000000  0.000000000  0.035001260

  length of vectors
    14.591770848 14.591770848 28.570400000     0.068531778  0.068531778  0.035001260



 old parameters found on file WAVECAR:
  energy-cutoff  :     1200.00
  volume of cell :     6083.20
      direct lattice vectors                 reciprocal lattice vectors
    14.591770848  0.000000000  0.000000000     0.068531778  0.000000000  0.000000000
     0.000000000 14.591770848  0.000000000     0.000000000  0.068531778  0.000000000
     0.000000000  0.000000000 28.570400000     0.000000000  0.000000000  0.035001260

  length of vectors


 k-points in units of 2pi/SCALE and weight: read from INCAR                         
   0.00000000  0.00000000  0.00000000       0.250
   0.03426589  0.00000000  0.00000000       0.250
   0.00000000  0.03426589  0.00000000       0.250
   0.03426589  0.03426589  0.00000000       0.250

 k-points in reciprocal lattice and weights: read from INCAR                         
   0.00000000  0.00000000  0.00000000       0.250
   0.50000000  0.00000000  0.00000000       0.250
   0.00000000  0.50000000  0.00000000       0.250
   0.50000000  0.50000000  0.00000000       0.250

 position of ions in fractional coordinates (direct lattice) 
   0.04899703  0.17023582  0.64827919
   0.66317608  0.39969936  0.52750914
   0.35569628  0.23029979  0.65944440
   0.95996523  0.44529180  0.52212044
   0.38072301  0.16801610  0.30094761
   0.07844269  0.11680481  0.41016445
   0.73093702  0.16563705  0.42808892
   0.90205196  0.15617307  0.64548083
   0.96379983  0.03121078  0.69468176
   0.05743417  0.22475038  0.64719010
   0.26961041  0.30856739  0.33496547
   0.29916982  0.39082686  0.52174444
   0.30562204  0.22357133  0.56363807
   0.03531535  0.24102303  0.36071675
   0.31066582  0.20922310  0.65354578
   0.29595520  0.38549731  0.54791772
   0.18088804  0.14265378  0.59805056
   0.33805149  0.18135381  0.40512445
   0.86523022  0.19202269  0.64610164
   0.78232734  0.34655493  0.46132646
   0.81796867  0.89723068  0.54845846
   0.40231028  0.27778758  0.47952390
   0.61542862  0.19929098  0.39097802
   0.57540023  0.52363898  0.50599957
   0.03206893  0.12190973  0.42071100
   0.70786834  0.29161078  0.37940005
   0.53743637  0.36083699  0.45687822
   0.42727910  0.14030283  0.46935619
   0.56939681  0.29094737  0.52859801
   0.98501118  0.23703677  0.36401723
   0.19504498  0.15289304  0.45657763
   0.99764481  0.06011241  0.49509582
   0.40794446  0.04189074  0.66064342
   0.87560639  0.19188981  0.55837958
   0.94026834  0.98575686  0.40794014
   0.37870408  0.61639658  0.62882674
   0.85344353  0.07097135  0.55585913
   0.71958087  0.23941400  0.51244924
   0.66400770  0.03320688  0.45054901
   0.78464603  0.00589148  0.49192061
   0.45502321  0.25703615  0.59308510
   0.06813900  0.25884285  0.46469135
   0.80543359  0.05118458  0.48292301
   0.00100047  0.29481396  0.55452984
   0.40245337  0.10137082  0.58186264
   0.81123949  0.04728098  0.56714744
   0.55678111  0.16089250  0.63406674
   0.22589828  0.10866307  0.35349090
   0.59155226  0.14121836  0.50046384
   0.46506482  0.38191430  0.53667754
   0.46614717  0.30599017  0.31395565
   0.75132777  0.31748367  0.37570370
   0.03052499  0.15195723  0.55413670
   0.31385389  0.22583394  0.40914451
   0.22747017  0.09111701  0.52317964
   0.04388422  0.12584650  0.57540623
   0.16201535  0.26467525  0.39564096
   0.15484013  0.24643110  0.53449955
   0.53092297  0.49770067  0.50642008
   0.66063805  0.41935474  0.43268984
   0.22945819  0.31220569  0.46963094
   0.64640278  0.16806020  0.60955626
   0.70957091  0.30400384  0.63927292
   0.39069035  0.01823920  0.61106022
   0.78453215  0.71237860  0.51342937
   0.30685181  0.56509005  0.60234607
   0.73217175  0.64350939  0.64683841
   0.19995442  0.99311752  0.52675450
   0.08521453  0.46408518  0.60692759
   0.28245425  0.79785174  0.59036010
   0.09456990  0.84334796  0.62844447
   0.21860225  0.02198376  0.38100273
   0.43327607  0.84565357  0.37095972
   0.47400560  0.20477331  0.31017888
   0.20890421  0.23159408  0.57820968
   0.54679441  0.13428342  0.37134155
   0.46416525  0.07470411  0.43457405
   0.89017313  0.71493203  0.57527766
   0.01599802  0.73157535  0.52685803
   0.19997900  0.67028601  0.50161815
   0.67101847  0.78660098  0.63409865
   0.89340727  0.65379080  0.39294940
   0.77394840  0.55891377  0.49527871
   0.54369917  0.67176973  0.57447779
   0.44862389  0.36822636  0.48143933
   0.76189696  0.98048618  0.35785382
   0.89178124  0.05956145  0.38042923
   0.93268503  0.47482870  0.63219184
   0.30053050  0.90963009  0.47926405
   0.21079959  0.62311814  0.36677390
   0.33847459  0.71811743  0.39343545
   0.73807360  0.70013539  0.35962129
   0.05797468  0.47316975  0.52600449
   0.38847546  0.82468563  0.53082823
   0.58069183  0.98216760  0.46491219
   0.04010745  0.97508380  0.51461658
   0.61382699  0.00499909  0.33727215
   0.61637218  0.62971086  0.40711371
   0.05945977  0.66809781  0.39435671
   0.18958633  0.35507950  0.35777602
   0.82506244  0.38147280  0.59645217
   0.45032497  0.61598263  0.42408157
   0.69622404  0.01775094  0.59994122
   0.73054534  0.84485466  0.39511604
   0.84603618  0.49794877  0.37731292
   0.76010199  0.91282809  0.65284545
   0.71057348  0.50665898  0.42516708
   0.10603198  0.92988743  0.34959868
   0.35838732  0.96704227  0.40897933
   0.58459915  0.73080610  0.46818362
   0.63012897  0.21157061  0.53154872
   0.95373580  0.40956558  0.41938590
   0.23326376  0.78220587  0.44680496
   0.90211287  0.28649183  0.54398295
   0.57217958  0.85376682  0.41646589
   0.58604526  0.40724572  0.63948130
   0.65410884  0.77730527  0.54412256
   0.99624801  0.94562526  0.59209337
   0.88657741  0.62331171  0.64126178
   0.36340317  0.49095600  0.45424674
   0.09519668  0.82043743  0.40957589
   0.16386884  0.95743776  0.67395522
   0.46063439  0.35806917  0.59778892
   0.16028974  0.59776885  0.62898341
   0.32670521  0.58261819  0.51955408
   0.14358595  0.72008294  0.57841823
   0.83071408  0.15503616  0.43753419
   0.16390310  0.24693171  0.44946564
   0.99190216  0.84768199  0.47095903
   0.05629184  0.61089769  0.47583218
   0.63187964  0.54892480  0.60682186
   0.09796652  0.45489807  0.44705287
   0.51064834  0.77541012  0.63605495
   0.32096550  0.41377514  0.61996744
   0.84617647  0.78157698  0.44528566
   0.18197449  0.34474253  0.63383957
   0.86076036  0.86793412  0.59369327
   0.61203720  0.93545933  0.54276575
   0.48188493  0.89891761  0.58443789
   0.72106055  0.46618743  0.55370351
   0.91107181  0.54694404  0.45648065
   0.87363238  0.30032910  0.46337748
   0.23251731  0.48158480  0.40419473
   0.24538397  0.95089520  0.60362226
   0.44841336  0.68418539  0.50752218
   0.02995149  0.03846510  0.65535829

 position of ions in cartesian coordinates  (Angst):
   0.71495341  2.48404204 18.52159565
   9.67691340  5.83232143 15.07114704
   5.19023857  3.36048173 18.84059036
  14.00759263  6.49759592 14.91718981
   5.55542293  2.45165244  8.59819365
   1.14461777  1.70438903 11.71856232
  10.66566555  2.41693783 12.23067158
  13.16253556  2.27884171 18.44164556
  14.06354629  0.45542050 19.84733589
   0.83806621  3.27950611 18.49048015
   3.93409327  4.50254458  9.57009738
   4.36541744  5.70285598 14.90644723
   4.45956677  3.26230168 16.10336514
   0.51531347  3.51695285 10.30582183
   4.53316443  3.05293555 18.67206443
   4.31851040  5.62508847 15.65422854
   2.63947683  2.08157126 17.08654385
   4.93276990  2.64627325 11.57456755
  12.62524108  2.80195105 18.45938229
  11.41554134  5.05685016 13.18028161
  11.93561133 13.09218445 15.66967766
   5.87041942  4.05341273 13.70018959
   8.98019336  2.90800824 11.17039841
   8.39610833  7.64081995 14.45661021
   0.46794247  1.77887881 12.01988145
  10.32905254  4.25511763 10.83961130
   7.84214842  5.26525071 13.05319359
   6.23475871  2.04726673 13.40969408
   8.30850779  4.24543742 15.10225650
  14.37305740  3.45878626 10.40011776
   2.84605159  2.23098019 13.04460549
  14.55740446  0.87714646 14.14508561
   5.95263209  0.61126007 18.87484679
  12.77664778  2.80001212 15.95312805
  13.72018020 14.38393815 11.65501310
   5.52596320  8.99431758 17.96583143
  12.45325243  1.03559774 15.88111778
  10.49995920  3.49347417 14.64087964
   9.68904817  0.48454719 12.87236547
  11.44937501  0.08596715 14.05436868
   6.63959446  3.75061256 16.94467849
   0.99426861  3.77697561 13.27641767
  11.75270244  0.74687361 13.79730364
   0.01459859  4.30185775 15.84313932
   5.87250731  1.47917978 16.62404848
  11.83742067  0.68991319 16.20362917
   8.12442239  2.34770649 18.11554029
   3.29625587  1.58558657 10.09937651
   8.63179496  2.06062598 14.29845200
   6.78611922  5.57280600 15.33309194
   6.80191275  4.46493843  8.96983857
  10.96320262  4.63264892 10.73400505
   0.44541372  2.21732504 15.83190714
   4.57968398  3.29531710 11.68942228
   3.31919257  1.32955856 14.94745159
   0.64034844  1.83632331 16.43958618
   2.36409089  3.86208056 11.30362061
   2.25939170  3.59586618 15.27086586
   7.74710630  7.26233416 14.46862428
   9.63987908  6.11912826 12.36212174
   3.34820135  4.55563395 13.41754383
   9.43216122  2.45229598 17.41526622
  10.35389610  4.43595434 18.26428297
   5.70086402  0.26614219 17.45823488
  11.44771337 10.39486534 14.66888244
   4.47751127  8.24566455 17.20926804
  10.68368243  9.38994157 18.48043218
   2.91768913 14.49134322 15.04958668
   1.24343090  6.77182465 17.34016401
   4.12150767 11.64206983 16.86682429
   1.37994236 12.30594013 17.95490997
   3.18979392  0.32078196 10.88540030
   6.32226513 12.33958315 10.59846757
   6.91658116  2.98800524  8.86193469
   3.04828240  3.37936772 16.51968174
   7.97869872  1.95943296 10.60937672
   6.77299293  1.09006531 12.41595435
  12.98920227 10.43212441 16.43591292
   0.23343946 10.67497988 15.05254464
   2.91804775  9.78065979 14.33143119
   9.79134772 11.47790121 18.11645208
  13.03639422  9.53996550 11.22672164
  11.29327763  8.15554164 14.15031091
   7.93353374  9.80231002 16.41306014
   6.54621694  5.37307470 13.75491412
  11.11742592 14.30702968 10.22402691
  13.01266744  0.86910698 10.86901520
  13.60952626  6.92859157 18.06197377
   4.38527216 13.27311382 13.69276559
   3.07593938  9.09239713 10.47887701
   4.93894362 10.47860502 11.24060827
  10.76980081 10.21621514 10.27452423
   0.84595322  6.90438458 15.02815860
   5.66854492 12.03362379 15.16597472
   8.47332211 14.33156450 13.28272732
   0.58523876 14.22819932 14.70280148
   8.95682281  0.07294555  9.63600025
   8.99396163  9.18859660 11.63140148
   0.86762328  9.74873013 11.26692887
   2.76640033  5.18123876 10.22180395
  12.03912203  5.56636364 17.04087714
   6.57103872  8.98827732 12.11618015
  10.15914164  0.25901769 17.14056051
  10.65995021 12.32792554 11.28862317
  12.34516601  7.26595428 10.77998096
  11.09123406 13.31977827 18.65205552
  10.36852536  7.39305172 12.14719359
   1.54719437 13.56870436  9.98817403
   5.22950570 14.11085915 11.68470291
   8.53033687 10.66375514 13.37619321
   9.19469759  3.08718990 15.18655955
  13.91669428  5.97628716 11.98202291
   3.40373138 11.41376886 12.76539655
  13.16342430  4.18042312 15.54181036
   8.34911325 12.45796979 11.89859706
   8.55143815  5.94243616 18.27023650
   9.54460635 11.34226042 15.54579931
  14.53702267 13.79834714 16.91634428
  12.93673436  9.09522166 18.32110555
   5.30269579  7.16391742 12.97801093
   1.38908819 11.97163497 11.70174692
   2.39113661 13.97071234 19.25517012
   6.72147146  5.22486331 17.07906842
   2.33891117  8.72250604 17.97030758
   4.76720759  8.50143105 14.84386785
   2.09517334 10.50728530 16.52564011
  12.12158955  2.26225211 12.50052692
   2.39163647  3.60317097 12.84141307
  14.47360907 12.36918135 13.45548801
   0.82139769  8.91407908 13.59471576
   9.22024287  8.00978495 17.33714315
   1.42950503  6.63776835 12.77247938
   7.45126362 11.31460675 18.17234433
   4.68345502  6.03771208 17.71271787
  12.34721315 11.40459226 12.72198954
   2.65533007  5.03040407 18.10905001
  12.56001787 12.66469572 16.96205417
   8.93070664 13.65000819 15.50703465
   7.03155445 13.11679980 16.69762419
  10.52155031  6.80250018 15.81953080
  13.29415113  7.98088204 13.04183485
  12.74784344  4.38233342 13.23887996
   3.39283927  7.02717499 11.54800504
   3.58058668 13.87524487 17.24572941
   6.54314496  9.98347646 14.50011174
   0.43704530  0.56127387 18.72384851



--------------------------------------------------------------------------------------------------------


 k-point     1 :   0.0000 0.0000 0.0000  plane waves:  574265
 k-point     2 :   0.5000 0.0000 0.0000  plane waves:  574222
 k-point     3 :   0.0000 0.5000 0.0000  plane waves:  574222
 k-point     4 :   0.5000 0.5000 0.0000  plane waves:  574156

 maximum and minimum number of plane-waves per node :     35976    35830

 maximum number of plane-waves:    574265
 maximum index in each direction: 
   IXMAX=   41   IYMAX=   41   IZMAX=   80
   IXMIN=  -41   IYMIN=  -41   IZMIN=  -80


 parallel 3D FFT for wavefunctions:
    minimum data exchange during FFTs selected (reduces bandwidth)
 parallel 3D FFT for charge:
    minimum data exchange during FFTs selected (reduces bandwidth)


 total amount of memory used by VASP MPI-rank0   408054. kBytes
=======================================================================

   base                                    :      30000. kBytes
   nonl-proj                               :     102209. kBytes
   fftplans                                :     110226. kBytes
   grid                                    :      85039. kBytes
   one-center                              :         30. kBytes
   wavefun                                 :      80550. kBytes

     INWAV:  cpu time     23.4987: real time     23.5145
 Broyden mixing: mesh for mixing (old mesh)
   NGX = 83   NGY = 83   NGZ =161
  (NGX  =336   NGY  =336   NGZ  =648)
  gives a total of ****** points

 initial charge density was supplied:
 number of electron     400.9999999 magnetization 
 keeping initial charge density in first step


--------------------------------------------------------------------------------------------------------


 Maximum index for augmentation-charges        10571 (set IRDMAX)


--------------------------------------------------------------------------------------------------------


 First call to EWALD:  gamma=   0.097
 Maximum number of real-space cells   3x   3x   2
 Maximum number of reciprocal cells   2x   2x   4

    FEWALD:  cpu time      0.0227: real time      0.0227


--------------------------------------- Ionic step        1  -------------------------------------------




--------------------------------------- Iteration      1(   1)  ---------------------------------------


    POTLOK:  cpu time      2.1960: real time      2.1974
    SETDIJ:  cpu time      2.2842: real time      2.2856
    EDDIAG:  cpu time     47.5295: real time     47.5564
     EDDAV:  cpu time    237.0240: real time    237.1483
       DOS:  cpu time      0.0067: real time      0.0068
    CHARGE:  cpu time     27.3587: real time     27.3805
    MIXING:  cpu time      0.0531: real time      0.0535
    --------------------------------------------
      LOOP:  cpu time    316.4523: real time    316.6285

 eigenvalue-minimisations  :  2376
 total energy-change (2. order) :-0.1072767E+04  (-0.1180979E+01)
 number of electron     400.9999999 magnetization 
 augmentation part      -18.0384116 magnetization 

 Broyden mixing:
  rms(total) = 0.11580E+01    rms(broyden)= 0.31273E+02
  rms(prec ) = 0.12032E+01
  weight for this iteration     100.00
  WARNING: grid for Broyden might be to small

 Free energy of the ion-electron system (eV)
  ---------------------------------------------------
  alpha Z        PSCENC =        56.95076034
  Ewald energy   TEWEN  =     62248.22643433
  -Hartree energ DENC   =    -70621.25411140
  -exchange      EXHF   =         0.00000000
  -V(xc)+E(xc)   XCENC  =      -222.35173822
  PAW double counting   =     34740.76757304   -33894.72995722
  entropy T*S    EENTRO =        -0.20156196
  eigenvalues    EBANDS =     -2902.64503761
  atomic energy  EATOM  =      9522.47112838
  Solvation  Ediel_sol  =         0.00000000
  ---------------------------------------------------
  free energy    TOTEN  =     -1072.76651032 eV

  energy without entropy =    -1072.56494836  energy(sigma->0) =    -1072.66572934


--------------------------------------------------------------------------------------------------------




--------------------------------------- Iteration      1(   2)  ---------------------------------------


    POTLOK:  cpu time      2.1579: real time      2.1819
    SETDIJ:  cpu time      2.2986: real time      2.3002
    EDDIAG:  cpu time     47.4800: real time     47.5063
     EDDAV:  cpu time    229.4874: real time    229.6164
       DOS:  cpu time      0.0026: real time      0.0026
    CHARGE:  cpu time     27.1813: real time     27.2053
    MIXING:  cpu time      0.0455: real time      0.0455
    --------------------------------------------
      LOOP:  cpu time    308.6532: real time    308.8581

 eigenvalue-minimisations  :  2248
 total energy-change (2. order) : 0.7259785E+02  (-0.1256712E+01)
 number of electron     400.9999999 magnetization 
 augmentation part      -17.9976775 magnetization 

 Broyden mixing:
  rms(total) = 0.79234E+00    rms(broyden)= 0.18192E+02
  rms(prec ) = 0.81846E+00
  weight for this iteration     100.00
  WARNING: grid for Broyden might be to small

 eigenvalues of (default mixing * dielectric matrix)
  average eigenvalue GAMMA=   0.6323
  0.6323

 Free energy of the ion-electron system (eV)
  ---------------------------------------------------
  alpha Z        PSCENC =        56.95076034
  Ewald energy   TEWEN  =     62248.22643433
  -Hartree energ DENC   =    -70604.39403966
  -exchange      EXHF   =         0.00000000
  -V(xc)+E(xc)   XCENC  =      -216.30755631
  PAW double counting   =     41192.54314172   -40346.20829607
  entropy T*S    EENTRO =        -0.18634812
  eigenvalues    EBANDS =     -2853.26388100
  atomic energy  EATOM  =      9522.47112838
  Solvation  Ediel_sol  =         0.00000000
  ---------------------------------------------------
  free energy    TOTEN  =     -1000.16865640 eV

  energy without entropy =     -999.98230828  energy(sigma->0) =    -1000.07548234


--------------------------------------------------------------------------------------------------------




--------------------------------------- Iteration      1(   3)  ---------------------------------------


    POTLOK:  cpu time      2.1703: real time      2.1974
    SETDIJ:  cpu time      2.2842: real time      2.2855
    EDDIAG:  cpu time     47.5089: real time     47.5384
     EDDAV:  cpu time    230.4065: real time    230.5321
       DOS:  cpu time      0.0028: real time      0.0028
    CHARGE:  cpu time     27.1829: real time     27.2099
    MIXING:  cpu time      0.0432: real time      0.0432
    --------------------------------------------
      LOOP:  cpu time    309.5988: real time    309.8093

 eigenvalue-minimisations  :  2264
 total energy-change (2. order) :-0.2615844E+01  (-0.8382190E+00)
 number of electron     400.9999999 magnetization 
 augmentation part      -17.9343726 magnetization 

 Broyden mixing:
  rms(total) = 0.42344E+00    rms(broyden)= 0.20401E+02
  rms(prec ) = 0.48745E+00
  weight for this iteration     100.00
  WARNING: grid for Broyden might be to small

 eigenvalues of (default mixing * dielectric matrix)
  average eigenvalue GAMMA=   0.6111
  0.6589  0.5634

 Free energy of the ion-electron system (eV)
  ---------------------------------------------------
  alpha Z        PSCENC =        56.95076034
  Ewald energy   TEWEN  =     62248.22643433
  -Hartree energ DENC   =    -70609.57061896
  -exchange      EXHF   =         0.00000000
  -V(xc)+E(xc)   XCENC  =      -218.61773593
  PAW double counting   =     47676.37101101   -46830.17516135
  entropy T*S    EENTRO =        -0.18689334
  eigenvalues    EBANDS =     -2848.25342511
  atomic energy  EATOM  =      9522.47112838
  Solvation  Ediel_sol  =         0.00000000
  ---------------------------------------------------
  free energy    TOTEN  =     -1002.78450063 eV

  energy without entropy =    -1002.59760729  energy(sigma->0) =    -1002.69105396


--------------------------------------------------------------------------------------------------------




--------------------------------------- Iteration      1(   4)  ---------------------------------------


    POTLOK:  cpu time      2.1610: real time      2.1850
    SETDIJ:  cpu time      2.2847: real time      2.2859
    EDDIAG:  cpu time     47.5161: real time     47.5430
     EDDAV:  cpu time    250.5203: real time    250.6632
       DOS:  cpu time      0.0055: real time      0.0055
    CHARGE:  cpu time     27.2407: real time     27.2658
    MIXING:  cpu time      0.0434: real time      0.0434
    --------------------------------------------
      LOOP:  cpu time    329.7717: real time    329.9918

 eigenvalue-minimisations  :  2600
 total energy-change (2. order) : 0.2669517E+00  (-0.1385264E+00)
 number of electron     400.9999999 magnetization 
 augmentation part      -17.9357235 magnetization 

 Broyden mixing:
  rms(total) = 0.18277E+00    rms(broyden)= 0.21077E+01
  rms(prec ) = 0.26393E+00
  weight for this iteration     100.00
  WARNING: grid for Broyden might be to small

 eigenvalues of (default mixing * dielectric matrix)
  average eigenvalue GAMMA=   0.7168
  1.0352  0.6277  0.4875

 Free energy of the ion-electron system (eV)
  ---------------------------------------------------
  alpha Z        PSCENC =        56.95076034
  Ewald energy   TEWEN  =     62248.22643433
  -Hartree energ DENC   =    -70603.00623710
  -exchange      EXHF   =         0.00000000
  -V(xc)+E(xc)   XCENC  =      -218.43817253
  PAW double counting   =     54329.50158955   -53483.38078896
  entropy T*S    EENTRO =        -0.20584097
  eigenvalues    EBANDS =     -2854.63642192
  atomic energy  EATOM  =      9522.47112838
  Solvation  Ediel_sol  =         0.00000000
  ---------------------------------------------------
  free energy    TOTEN  =     -1002.51754888 eV

  energy without entropy =    -1002.31170791  energy(sigma->0) =    -1002.41462839


--------------------------------------------------------------------------------------------------------




--------------------------------------- Iteration      1(   5)  ---------------------------------------


    POTLOK:  cpu time      2.1622: real time      2.1874
    SETDIJ:  cpu time      2.2777: real time      2.2790
    EDDIAG:  cpu time     47.4932: real time     47.5245
     EDDAV:  cpu time    257.7003: real time    257.8464
       DOS:  cpu time      0.0031: real time      0.0031
    CHARGE:  cpu time     27.1975: real time     27.2213
    MIXING:  cpu time      0.0629: real time      0.0641
    --------------------------------------------
      LOOP:  cpu time    336.8969: real time    337.1259

 eigenvalue-minimisations  :  2728
 total energy-change (2. order) :-0.1723806E-01  (-0.9301867E-01)
 number of electron     400.9999999 magnetization 
 augmentation part      -17.9348851 magnetization 

 Broyden mixing:
  rms(total) = 0.90796E-01    rms(broyden)= 0.14242E+01
  rms(prec ) = 0.13949E+00
  weight for this iteration     100.00
  WARNING: grid for Broyden might be to small

 eigenvalues of (default mixing * dielectric matrix)
  average eigenvalue GAMMA=   0.9598
  2.1955  0.6724  0.5992  0.3719

 Free energy of the ion-electron system (eV)
  ---------------------------------------------------
  alpha Z        PSCENC =        56.95076034
  Ewald energy   TEWEN  =     62248.22643433
  -Hartree energ DENC   =    -70612.80378020
  -exchange      EXHF   =         0.00000000
  -V(xc)+E(xc)   XCENC  =      -219.17067890
  PAW double counting   =     54605.86914983   -53759.74134242
  entropy T*S    EENTRO =        -0.19679093
  eigenvalues    EBANDS =     -2844.13966736
  atomic energy  EATOM  =      9522.47112838
  Solvation  Ediel_sol  =         0.00000000
  ---------------------------------------------------
  free energy    TOTEN  =     -1002.53478693 eV

  energy without entropy =    -1002.33799600  energy(sigma->0) =    -1002.43639147


--------------------------------------------------------------------------------------------------------




--------------------------------------- Iteration      1(   6)  ---------------------------------------


    POTLOK:  cpu time      2.1642: real time      2.1850
    SETDIJ:  cpu time      2.3040: real time      2.3056
    EDDIAG:  cpu time     47.5209: real time     47.5504
     EDDAV:  cpu time    246.7352: real time    246.8679
       DOS:  cpu time      0.0097: real time      0.0097
    CHARGE:  cpu time     27.1920: real time     27.2166
    MIXING:  cpu time      0.0447: real time      0.0447
    --------------------------------------------
      LOOP:  cpu time    325.9707: real time    326.1799

 eigenvalue-minimisations  :  2544
 total energy-change (2. order) : 0.8563159E-02  (-0.2325374E-01)
 number of electron     400.9999999 magnetization 
 augmentation part      -17.9329818 magnetization 

 Broyden mixing:
  rms(total) = 0.12478E+00    rms(broyden)= 0.74446E+00
  rms(prec ) = 0.15654E+00
  weight for this iteration     100.00
  WARNING: grid for Broyden might be to small

 eigenvalues of (default mixing * dielectric matrix)
  average eigenvalue GAMMA=   0.8642
  2.3494  0.7085  0.6092  0.3269  0.3269

 Free energy of the ion-electron system (eV)
  ---------------------------------------------------
  alpha Z        PSCENC =        56.95076034
  Ewald energy   TEWEN  =     62248.22643433
  -Hartree energ DENC   =    -70612.78578080
  -exchange      EXHF   =         0.00000000
  -V(xc)+E(xc)   XCENC  =      -219.50967736
  PAW double counting   =     54331.05088039   -53484.90346464
  entropy T*S    EENTRO =        -0.17989453
  eigenvalues    EBANDS =     -2843.84660988
  atomic energy  EATOM  =      9522.47112838
  Solvation  Ediel_sol  =         0.00000000
  ---------------------------------------------------
  free energy    TOTEN  =     -1002.52622377 eV

  energy without entropy =    -1002.34632924  energy(sigma->0) =    -1002.43627651


--------------------------------------------------------------------------------------------------------




--------------------------------------- Iteration      1(   7)  ---------------------------------------


    POTLOK:  cpu time      2.1596: real time      2.1857
    SETDIJ:  cpu time      2.2855: real time      2.2871
    EDDIAG:  cpu time     47.5486: real time     47.5778
     EDDAV:  cpu time    233.1551: real time    233.2762
       DOS:  cpu time      0.0027: real time      0.0027
    CHARGE:  cpu time     27.2108: real time     27.2351
    MIXING:  cpu time      0.0463: real time      0.0463
    --------------------------------------------
      LOOP:  cpu time    312.4086: real time    312.6108

 eigenvalue-minimisations  :  2312
 total energy-change (2. order) : 0.3499467E-01  (-0.6752954E-02)
 number of electron     400.9999999 magnetization 
 augmentation part      -17.9350461 magnetization 

 Broyden mixing:
  rms(total) = 0.35448E-01    rms(broyden)= 0.51133E+00
  rms(prec ) = 0.41432E-01
  weight for this iteration     100.00
  WARNING: grid for Broyden might be to small

 eigenvalues of (default mixing * dielectric matrix)
  average eigenvalue GAMMA=   0.8172
  2.4581  0.6458  0.6335  0.6335  0.2660  0.2660

 Free energy of the ion-electron system (eV)
  ---------------------------------------------------
  alpha Z        PSCENC =        56.95076034
  Ewald energy   TEWEN  =     62248.22643433
  -Hartree energ DENC   =    -70611.56241011
  -exchange      EXHF   =         0.00000000
  -V(xc)+E(xc)   XCENC  =      -219.56852295
  PAW double counting   =     54253.39039694   -53407.23742748
  entropy T*S    EENTRO =        -0.18545032
  eigenvalues    EBANDS =     -2844.97613823
  atomic energy  EATOM  =      9522.47112838
  Solvation  Ediel_sol  =         0.00000000
  ---------------------------------------------------
  free energy    TOTEN  =     -1002.49122910 eV

  energy without entropy =    -1002.30577878  energy(sigma->0) =    -1002.39850394


--------------------------------------------------------------------------------------------------------




--------------------------------------- Iteration      1(   8)  ---------------------------------------


    POTLOK:  cpu time      2.1570: real time      2.1823
    SETDIJ:  cpu time      2.2909: real time      2.2923
    EDDIAG:  cpu time     47.5089: real time     47.5377
     EDDAV:  cpu time    231.0524: real time    231.1801
       DOS:  cpu time      0.0033: real time      0.0033
    CHARGE:  cpu time     27.1937: real time     27.2178
    MIXING:  cpu time      0.0454: real time      0.0454
    --------------------------------------------
      LOOP:  cpu time    310.2516: real time    310.4589

 eigenvalue-minimisations  :  2272
 total energy-change (2. order) :-0.1700212E-01  (-0.4251411E-02)
 number of electron     400.9999999 magnetization 
 augmentation part      -17.9329151 magnetization 

 Broyden mixing:
  rms(total) = 0.41606E-01    rms(broyden)= 0.23763E+00
  rms(prec ) = 0.51160E-01
  weight for this iteration     100.00
  WARNING: grid for Broyden might be to small

 eigenvalues of (default mixing * dielectric matrix)
  average eigenvalue GAMMA=   0.8514
  2.5667  0.9152  0.7717  0.6351  0.5504  0.2602  0.2602

 Free energy of the ion-electron system (eV)
  ---------------------------------------------------
  alpha Z        PSCENC =        56.95076034
  Ewald energy   TEWEN  =     62248.22643433
  -Hartree energ DENC   =    -70610.70672348
  -exchange      EXHF   =         0.00000000
  -V(xc)+E(xc)   XCENC  =      -219.46207165
  PAW double counting   =     54265.20979588   -53419.05175552
  entropy T*S    EENTRO =        -0.18615438
  eigenvalues    EBANDS =     -2845.95964513
  atomic energy  EATOM  =      9522.47112838
  Solvation  Ediel_sol  =         0.00000000
  ---------------------------------------------------
  free energy    TOTEN  =     -1002.50823123 eV

  energy without entropy =    -1002.32207684  energy(sigma->0) =    -1002.41515404


--------------------------------------------------------------------------------------------------------




--------------------------------------- Iteration      1(   9)  ---------------------------------------


    POTLOK:  cpu time      2.1582: real time      2.1838
    SETDIJ:  cpu time      2.2785: real time      2.2803
    EDDIAG:  cpu time     47.5021: real time     47.5325
     EDDAV:  cpu time    242.0971: real time    242.2282
       DOS:  cpu time      0.0029: real time      0.0029
    CHARGE:  cpu time     27.1930: real time     27.2182
    MIXING:  cpu time      0.0468: real time      0.0468
    --------------------------------------------
      LOOP:  cpu time    321.2788: real time    321.4929

 eigenvalue-minimisations  :  2464
 total energy-change (2. order) : 0.4608084E-02  (-0.1061708E-02)
 number of electron     400.9999999 magnetization 
 augmentation part      -17.9327672 magnetization 

 Broyden mixing:
  rms(total) = 0.13622E-01    rms(broyden)= 0.66771E-01
  rms(prec ) = 0.14728E-01
  weight for this iteration     100.00
  WARNING: grid for Broyden might be to small

 eigenvalues of (default mixing * dielectric matrix)
  average eigenvalue GAMMA=   0.8505
  2.5835  1.1202  0.7046  0.6348  0.6348  0.6101  0.2579  0.2579

 Free energy of the ion-electron system (eV)
  ---------------------------------------------------
  alpha Z        PSCENC =        56.95076034
  Ewald energy   TEWEN  =     62248.22643433
  -Hartree energ DENC   =    -70609.70147755
  -exchange      EXHF   =         0.00000000
  -V(xc)+E(xc)   XCENC  =      -219.38323005
  PAW double counting   =     54270.85352302   -53424.68757999
  entropy T*S    EENTRO =        -0.18815568
  eigenvalues    EBANDS =     -2847.04502596
  atomic energy  EATOM  =      9522.47112838
  Solvation  Ediel_sol  =         0.00000000
  ---------------------------------------------------
  free energy    TOTEN  =     -1002.50362314 eV

  energy without entropy =    -1002.31546747  energy(sigma->0) =    -1002.40954531


--------------------------------------------------------------------------------------------------------




--------------------------------------- Iteration      1(  10)  ---------------------------------------


    POTLOK:  cpu time      2.1551: real time      2.1840
    SETDIJ:  cpu time      2.2864: real time      2.2878
    EDDIAG:  cpu time     47.5051: real time     47.5366
     EDDAV:  cpu time    233.0458: real time    233.1753
       DOS:  cpu time      0.0055: real time      0.0055
    CHARGE:  cpu time     27.2196: real time     27.2435
    MIXING:  cpu time      0.0475: real time      0.0475
    --------------------------------------------
      LOOP:  cpu time    312.2648: real time    312.4800

 eigenvalue-minimisations  :  2304
 total energy-change (2. order) :-0.2252692E-02  (-0.8483252E-03)
 number of electron     400.9999999 magnetization 
 augmentation part      -17.9314499 magnetization 

 Broyden mixing:
  rms(total) = 0.91080E-02    rms(broyden)= 0.62007E-01
  rms(prec ) = 0.11150E-01
  weight for this iteration     100.00
  WARNING: grid for Broyden might be to small

 eigenvalues of (default mixing * dielectric matrix)
  average eigenvalue GAMMA=   0.8679
  2.5886  1.2912  0.8925  0.6879  0.6879  0.6184  0.5287  0.2581  0.2581

 Free energy of the ion-electron system (eV)
  ---------------------------------------------------
  alpha Z        PSCENC =        56.95076034
  Ewald energy   TEWEN  =     62248.22643433
  -Hartree energ DENC   =    -70609.11138739
  -exchange      EXHF   =         0.00000000
  -V(xc)+E(xc)   XCENC  =      -219.23507142
  PAW double counting   =     54274.37220225   -53428.19430768
  entropy T*S    EENTRO =        -0.18914843
  eigenvalues    EBANDS =     -2847.79648622
  atomic energy  EATOM  =      9522.47112838
  Solvation  Ediel_sol  =         0.00000000
  ---------------------------------------------------
  free energy    TOTEN  =     -1002.50587584 eV

  energy without entropy =    -1002.31672741  energy(sigma->0) =    -1002.41130162


--------------------------------------------------------------------------------------------------------




--------------------------------------- Iteration      1(  11)  ---------------------------------------


    POTLOK:  cpu time      2.1757: real time      2.1835
    SETDIJ:  cpu time      2.2787: real time      2.2803
    EDDIAG:  cpu time     47.5131: real time     47.5453
     EDDAV:  cpu time    241.2550: real time    241.3906
       DOS:  cpu time      0.0038: real time      0.0038
    CHARGE:  cpu time     27.2154: real time     27.2409
[...]
      4.45957      3.26230     16.10337         0.052291      0.004974     -0.046164
      0.51531      3.51695     10.30582         0.018588      0.157256     -0.165569
      4.53316      3.05294     18.67206         0.076043     -0.129779      0.182829
      4.31851      5.62509     15.65423        -0.180631     -0.096271      0.265219
      2.63948      2.08157     17.08654         0.075617     -0.147484      0.092324
      4.93277      2.64627     11.57457        -0.069173      0.140296     -0.018076
     12.62524      2.80195     18.45938         0.037842     -0.078531      0.053701
     11.41554      5.05685     13.18028         0.038433     -0.096821      0.070083
     11.93561     13.09218     15.66968        -0.055835     -0.022581     -0.317742
      5.87042      4.05341     13.70019        -0.011335      0.114614     -0.015401
      8.98019      2.90801     11.17040        -0.068431      0.028977     -0.061562
      8.39611      7.64082     14.45661        -0.119118     -0.021273     -0.106430
      0.46794      1.77888     12.01988        -0.090068      0.124402      0.118161
     10.32905      4.25512     10.83961         0.065028      0.047716     -0.116152
      7.84215      5.26525     13.05319         0.009874      0.014866      0.028370
      6.23476      2.04727     13.40969        -0.091464      0.059866     -0.072216
      8.30851      4.24544     15.10226        -0.062332      0.088792     -0.035809
     14.37306      3.45879     10.40012        -0.134983     -0.077158     -0.057442
      2.84605      2.23098     13.04461         0.112070     -0.287840     -0.133739
     14.55740      0.87715     14.14509         0.027279     -0.012288      0.086380
      5.95263      0.61126     18.87485         0.050541      0.035755      0.028561
     12.77665      2.80001     15.95313         0.060587      0.040725     -0.196253
     13.72018     14.38394     11.65501         0.039468      0.133059     -0.118842
      5.52596      8.99432     17.96583         0.069284     -0.003925     -0.276041
     12.45325      1.03560     15.88112        -0.101359      0.043540      0.217617
     10.49996      3.49347     14.64088         0.179259     -0.064393      0.012945
      9.68905      0.48455     12.87237        -0.007621     -0.113118     -0.072725
     11.44938      0.08597     14.05437        -0.071703     -0.078221      0.188681
      6.63959      3.75061     16.94468         0.032825     -0.058651     -0.017554
      0.99427      3.77698     13.27642         0.002596      0.141992     -0.054276
     11.75270      0.74687     13.79730         0.019985     -0.354799      0.133549
      0.01460      4.30186     15.84314         0.137990     -0.007386     -0.049518
      5.87251      1.47918     16.62405        -0.025289      0.019713     -0.058903
     11.83742      0.68991     16.20363         0.216854      0.081217     -0.041746
      8.12442      2.34771     18.11554        -0.043796     -0.131993     -0.086727
      3.29626      1.58559     10.09938         0.095149      0.074761      0.089263
      8.63179      2.06063     14.29845        -0.058451     -0.191208     -0.142778
      6.78612      5.57281     15.33309        -0.113286      0.178035     -0.463862
      6.80191      4.46494      8.96984         0.236968      0.035238     -0.130640
     10.96320      4.63265     10.73401        -0.010131      0.008916     -0.134895
      0.44541      2.21733     15.83191         0.028476      0.055281      0.018614
      4.57968      3.29532     11.68942         0.241373      0.004703     -0.108138
      3.31919      1.32956     14.94745        -0.113146     -0.008288     -0.225526
      0.64035      1.83632     16.43959        -0.042915      0.067398     -0.071608
      2.36409      3.86208     11.30362         0.017182      0.122384     -0.132427
      2.25939      3.59587     15.27087         0.006496      0.026087      0.141738
      7.74711      7.26233     14.46862         0.123202      0.205172     -0.008812
      9.63988      6.11913     12.36212         0.118531     -0.056457     -0.057462
      3.34820      4.55563     13.41754        -0.010917      0.045864     -0.008550
      9.43216      2.45230     17.41527         0.051068      0.410409     -0.285896
     10.35390      4.43595     18.26428        -0.155253      0.416471      0.075054
      5.70086      0.26614     17.45823         0.101819     -0.093761      0.213053
     11.44771     10.39487     14.66888        -0.039567     -0.135593     -0.248106
      4.47751      8.24566     17.20927         0.078843      0.154087      0.305794
     10.68368      9.38994     18.48043         0.190170      0.292346     -0.304702
      2.91769     14.49134     15.04959         0.098030      0.034288      0.140315
      1.24343      6.77182     17.34016         0.157247     -0.027387     -0.039076
      4.12151     11.64207     16.86682         0.261537     -0.043834      0.128081
      1.37994     12.30594     17.95491         0.254091      0.489437     -0.171582
      3.18979      0.32078     10.88540        -0.329467     -0.860058     -0.611327
      6.32227     12.33958     10.59847         0.190656      0.200670     -0.069903
      6.91658      2.98801      8.86193        -0.211250     -0.140636      0.537034
      3.04828      3.37937     16.51968        -0.096333      0.026388      0.011373
      7.97870      1.95943     10.60938        -0.103033      0.667258      0.100690
      6.77299      1.09007     12.41595         0.129577     -0.372512      0.228021
     12.98920     10.43212     16.43591        -0.133844      0.255775      0.389310
      0.23344     10.67498     15.05254         0.123748     -0.058854     -0.002027
      2.91805      9.78066     14.33143         0.094017      0.064572      0.222076
      9.79135     11.47790     18.11645         0.166600      0.043230      0.054242
     13.03639      9.53997     11.22672        -0.389114     -0.172465     -0.202071
     11.29328      8.15554     14.15031        -0.161197      0.026182     -0.036039
      7.93353      9.80231     16.41306         0.072255      0.127055      0.243137
      6.54622      5.37307     13.75491        -0.169777     -0.516688     -0.292720
     11.11743     14.30703     10.22403        -0.285099      0.246086      0.414282
     13.01267      0.86911     10.86902        -0.098289     -0.054184      0.219042
     13.60953      6.92859     18.06197         0.229152      0.156734     -0.253330
      4.38527     13.27311     13.69277        -0.031160     -0.048901      0.099608
      3.07594      9.09240     10.47888        -0.062750      0.036332     -0.169226
      4.93894     10.47861     11.24061        -0.091307     -0.320745     -0.095293
     10.76980     10.21622     10.27452        -0.206755     -0.077428      0.009947
      0.84595      6.90438     15.02816         0.193797     -0.124703      0.125420
      5.66854     12.03362     15.16597         0.057841      0.041716     -0.065385
      8.47332     14.33156     13.28273        -0.035616      0.236090      0.042934
      0.58524     14.22820     14.70280        -0.031064      0.129849      0.014971
      8.95682      0.07295      9.63600        -0.062723     -0.692498     -0.100550
      8.99396      9.18860     11.63140         0.365726      0.043014     -0.239906
      0.86762      9.74873     11.26693         0.373443      0.034639      0.103017
      2.76640      5.18124     10.22180        -0.756866      0.364581     -0.823165
     12.03912      5.56636     17.04088        -0.103024     -0.195723      0.323882
      6.57104      8.98828     12.11618        -0.067679      0.143335      0.121103
     10.15914      0.25902     17.14056        -0.133088     -1.023169      0.247749
     10.65995     12.32793     11.28862         0.024309     -0.211066     -0.164334
     12.34517      7.26595     10.77998         0.063021      0.268745     -0.654083
     11.09123     13.31978     18.65206        -0.059731      0.358134      0.452774
     10.36853      7.39305     12.14719        -0.031040     -0.080248      0.253724
      1.54719     13.56870      9.98817         0.190076      0.488812      0.298530
      5.22951     14.11086     11.68470        -0.074273      0.232024      0.032289
      8.53034     10.66376     13.37619         0.392000     -0.045990      0.338739
      9.19470      3.08719     15.18656        -0.209530     -0.187641      0.328341
     13.91669      5.97629     11.98202         0.224050     -0.305005     -0.083044
      3.40373     11.41377     12.76540        -0.155551     -0.005724      0.014751
     13.16342      4.18042     15.54181         0.024164     -0.143902      0.262215
      8.34911     12.45797     11.89860         0.009615      0.294959     -0.123827
      8.55144      5.94244     18.27024        -0.245916     -0.298883     -0.423294
      9.54461     11.34226     15.54580        -0.032827     -0.011773     -0.204782
     14.53702     13.79835     16.91634        -0.448674      0.286310      0.028295
     12.93673      9.09522     18.32111         0.188328     -0.254513     -0.204716
      5.30270      7.16392     12.97801        -0.230970      0.179688     -0.147018
      1.38909     11.97163     11.70175         0.029641     -0.017735      0.055402
      2.39114     13.97071     19.25517         0.333955      0.219739      0.832413
      6.72147      5.22486     17.07907         0.337427     -0.124164      0.873955
      2.33891      8.72251     17.97031         0.054157      0.142057      0.092386
      4.76721      8.50143     14.84387         0.206406      0.060514      0.022125
      2.09517     10.50729     16.52564        -0.023935     -0.315860     -0.210589
     12.12159      2.26225     12.50053         0.263015     -0.293437     -1.114200
      2.39164      3.60317     12.84141         0.284086      0.110424      0.444509
     14.47361     12.36918     13.45549         0.084042     -0.081658      0.001021
      0.82140      8.91408     13.59472         0.449300      0.295997      0.084538
      9.22024      8.00978     17.33714        -0.194322     -0.191793      0.091297
      1.42951      6.63777     12.77248        -0.321025      0.225239      0.158879
      7.45126     11.31461     18.17234        -0.504355      0.122929     -0.163827
      4.68346      6.03771     17.71272        -0.418339     -0.080862      0.154673
     12.34721     11.40459     12.72199        -0.038115      0.278596      0.041269
      2.65533      5.03040     18.10905         0.055676      0.317211     -0.143464
     12.56002     12.66470     16.96205        -0.487193     -0.049559     -0.251738
      8.93071     13.65001     15.50703         0.292982      0.041245     -0.214696
      7.03155     13.11680     16.69762         0.017201     -0.137437      0.332967
     10.52155      6.80250     15.81953        -0.038684     -0.006272      0.195886
     13.29415      7.98088     13.04183        -0.608038     -0.210634      0.277312
     12.74784      4.38233     13.23888        -0.190781      0.343374      0.282353
      3.39284      7.02717     11.54801         0.452179     -0.534950      0.149452
      3.58059     13.87524     17.24573        -0.326893      0.000906     -0.316576
      6.54314      9.98348     14.50011        -0.331903      0.063076      0.062101
      0.43705      0.56127     18.72385         0.585037     -0.892465     -0.163346
 -----------------------------------------------------------------------------------
    total drift:                               -0.005102      0.000539      0.008150


--------------------------------------------------------------------------------------------------------



  FREE ENERGIE OF THE ION-ELECTRON SYSTEM (eV)
  ---------------------------------------------------
  free  energy   TOTEN  =     -1002.50682333 eV

  energy  without entropy=    -1002.31821253  energy(sigma->0) =    -1002.41251793



--------------------------------------------------------------------------------------------------------


    POTLOK:  cpu time      4.5122: real time      4.5150


--------------------------------------------------------------------------------------------------------


     LOOP+:  cpu time   7819.8575: real time   7825.1005
    4ORBIT:  cpu time      0.0000: real time      0.0000



 total charge

# of ion       s       p       d       tot
------------------------------------------
    1        0.588   0.029   0.000   0.617
    2        0.573   0.016   0.000   0.590
    3        0.609   0.033   0.000   0.642
    4        0.574   0.018   0.000   0.592
    5        0.562   0.016   0.000   0.578
    6        0.614   0.035   0.000   0.649
    7        0.569   0.017   0.000   0.586
    8        0.612   0.031   0.000   0.644
    9        0.564   0.016   0.000   0.580
   10        0.555   0.026   0.000   0.581
   11        0.565   0.015   0.000   0.580
   12        0.609   0.033   0.000   0.642
   13        0.583   0.016   0.000   0.599
   14        0.615   0.034   0.000   0.649
   15        0.616   0.032   0.000   0.648
   16        0.608   0.037   0.000   0.645
   17        0.589   0.016   0.000   0.605
   18        0.608   0.033   0.000   0.642
   19        0.605   0.032   0.000   0.637
   20        0.567   0.016   0.000   0.584
   21        0.573   0.016   0.000   0.589
   22        0.574   0.016   0.000   0.590
   23        0.570   0.016   0.000   0.586
   24        0.604   0.034   0.000   0.638
   25        0.616   0.034   0.000   0.650
   26        0.607   0.033   0.000   0.640
   27        0.574   0.016   0.000   0.591
   28        0.569   0.016   0.000   0.586
   29        0.594   0.018   0.000   0.612
   30        0.616   0.033   0.000   0.649
   31        0.581   0.018   0.000   0.599
   32        0.568   0.015   0.000   0.583
   33        0.572   0.015   0.000   0.588
   34        0.579   0.016   0.000   0.594
   35        0.553   0.016   0.000   0.569
   36        0.560   0.016   0.000   0.576
   37        0.564   0.031   0.000   0.594
   38        0.585   0.016   0.000   0.601
   39        0.576   0.017   0.000   0.593
   40        0.585   0.030   0.000   0.614
   41        0.574   0.016   0.000   0.590
   42        0.578   0.017   0.000   0.595
   43        0.606   0.033   0.000   0.639
   44        0.579   0.016   0.000   0.595
   45        0.572   0.016   0.000   0.587
   46        0.612   0.030   0.000   0.642
   47        0.561   0.016   0.000   0.577
   48        0.566   0.015   0.000   0.581
   49        0.586   0.017   0.000   0.603
   50        0.565   0.018   0.000   0.583
   51        0.561   0.016   0.000   0.577
   52        0.616   0.032   0.000   0.648
   53        0.620   0.034   0.000   0.654
   54        0.617   0.032   0.000   0.649
   55        0.573   0.016   0.000   0.589
   56        0.619   0.036   0.000   0.655
   57        0.586   0.018   0.000   0.604
   58        0.583   0.015   0.000   0.597
   59        0.615   0.033   0.000   0.648
   60        0.571   0.016   0.000   0.587
   61        0.583   0.018   0.000   0.601
   62        0.734   0.994   0.000   1.728
   63        0.784   0.872   0.000   1.656
   64        0.739   1.006   0.000   1.745
   65        0.761   0.950   0.000   1.711
   66        0.746   0.981   0.000   1.727
   67        0.781   0.903   0.000   1.685
   68        0.744   0.968   0.000   1.711
   69        0.750   0.930   0.000   1.679
   70        0.813   0.854   0.000   1.667
   71        0.840   0.805   0.000   1.645
   72        0.773   0.912   0.000   1.685
   73        0.809   0.813   0.000   1.621
   74        0.752   0.952   0.000   1.704
   75        0.740   1.013   0.000   1.753
   76        0.736   0.990   0.000   1.726
   77        0.748   0.990   0.000   1.738
   78        0.752   0.946   0.000   1.699
   79        0.778   0.918   0.000   1.696
   80        0.786   0.906   0.000   1.692
   81        0.777   0.889   0.000   1.666
   82        0.748   0.877   0.000   1.626
   83        0.758   1.003   0.000   1.760
   84        0.773   0.890   0.000   1.663
   85        0.747   0.986   0.000   1.734
   86        0.785   0.901   0.000   1.685
   87        0.783   0.890   0.000   1.673
   88        0.775   0.897   0.000   1.672
   89        0.764   0.966   0.000   1.729
   90        0.798   0.815   0.000   1.613
   91        0.758   0.891   0.000   1.649
   92        0.841   0.768   0.000   1.610
   93        0.788   0.888   0.000   1.676
   94        0.764   0.959   0.000   1.723
   95        0.749   0.978   0.000   1.727
   96        0.744   0.960   0.000   1.703
   97        0.838   0.785   0.000   1.623
   98        0.759   0.904   0.000   1.663
   99        0.775   0.864   0.000   1.639
  100        0.847   0.802   0.000   1.649
  101        0.745   0.965   0.000   1.710
  102        0.779   0.835   0.000   1.614
  103        0.798   0.840   0.000   1.637
  104        0.754   0.932   0.000   1.685
  105        0.834   0.806   0.000   1.640
  106        0.814   0.866   0.000   1.681
  107        0.745   0.965   0.000   1.710
  108        0.856   0.755   0.000   1.611
  109        0.747   0.962   0.000   1.710
  110        0.803   0.863   0.000   1.666
  111        0.743   1.043   0.000   1.786
  112        0.767   0.928   0.000   1.695
  113        0.761   0.950   0.000   1.711
  114        0.744   1.000   0.000   1.744
  115        0.756   0.923   0.000   1.679
  116        0.777   0.876   0.000   1.653
  117        0.760   0.919   0.000   1.679
  118        0.763   0.988   0.000   1.751
  119        0.769   0.912   0.000   1.681
  120        0.755   0.938   0.000   1.693
  121        0.756   0.956   0.000   1.712
  122        0.840   0.825   0.000   1.665
  123        0.772   0.931   0.000   1.702
  124        0.803   0.883   0.000   1.686
  125        0.772   0.936   0.000   1.708
  126        0.749   0.942   0.000   1.691
  127        0.790   0.895   0.000   1.684
  128        0.750   1.000   0.000   1.751
  129        0.754   0.927   0.000   1.680
  130        0.737   0.962   0.000   1.699
  131        0.747   0.939   0.000   1.686
  132        0.790   0.866   0.000   1.656
  133        0.813   0.839   0.000   1.653
  134        0.788   0.909   0.000   1.697
  135        0.767   0.860   0.000   1.626
  136        0.792   0.887   0.000   1.678
  137        0.758   0.979   0.000   1.736
  138        0.758   0.926   0.000   1.683
  139        0.754   0.974   0.000   1.728
  140        0.754   0.983   0.000   1.738
  141        0.799   0.896   0.000   1.695
  142        0.745   0.982   0.000   1.727
  143        0.755   0.926   0.000   1.682
  144        0.743   0.959   0.000   1.702
  145        0.747   0.958   0.000   1.705
  146        0.787   0.902   0.000   1.689
--------------------------------------------------
tot        101.371  79.303   0.000 180.674


 total amount of memory used by VASP MPI-rank0   408054. kBytes
=======================================================================

   base                                    :      30000. kBytes
   nonl-proj                               :     102209. kBytes
   fftplans                                :     110226. kBytes
   grid                                    :      85039. kBytes
   one-center                              :         30. kBytes
   wavefun                                 :      80550. kBytes

  
  
 General timing and accounting informations for this job:
 ========================================================
  
                  Total CPU time used (sec):     7981.102
                            User time (sec):     7106.664
                          System time (sec):      874.438
                         Elapsed time (sec):     7986.480
  
                   Maximum memory used (kb):      681200.
                   Average memory used (kb):          N/A
  
                          Minor page faults:     12311664
                          Major page faults:         1185
                 Voluntary context switches:         3667
