 vasp.6.5.0 16Dec24 (build Jan 20 2025 08:32:48) complex                         
 executed on        HPECrayEX_GCC date 2025.07.22  12:53:52
 running  128 mpi-ranks, with    1 threads/rank, on    1 nodes
 distrk:  each k-point on  128 cores,    1 groups
 distr:  one band on NCORE=  16 cores,    8 groups


--------------------------------------------------------------------------------------------------------


 INCAR:
   SYSTEM = a-Si SPC
   NCORE = 16
   ISTART = 1
   ICHARG = 1
   ISPIN = 1
   ISYM = 1
   EDIFF = 1E-6
   NELM = 150
   EDIFFG = -0.01
   NSW = 0
   ISIF = 2
   IBRION = -1
   PREC = Accurate
   ENCUT = 1200
   KSPACING = 0.23
   KGAMMA = .TRUE.
   METAGGA = SCAN
   LASPH = .TRUE.
   LDIAG = .FALSE.
   LMIXTAU = .TRUE.
   ADDGRID = .TRUE.
   ALGO = Normal
   ISMEAR = 0
   SIGMA = 0.1
   LORBIT = 11
   NEDOS = 2000
   LWAVE = .FALSE.
   LCHARG = .FALSE.

 POTCAR:    PAW_PBE H 15Jun2001                   
 POTCAR:    PAW_PBE Si 05Jan2001                  
 POTCAR:    PAW_PBE H 15Jun2001                   
   SHA256 =  030f79b5d3ab3cf0e668861823c8fb652ff669f3e15e46930bd03bfd63a607b6 H/POTCAR              
   COPYR  = (c) Copyright 15Jun2001 Georg Kresse                                                    
   COPYR  = This file is part of the software VASP. Any use, copying, and all other rights are regul
   COPYR  = If you do not have a valid VASP license, you may not use, copy or distribute this file. 
   VRHFIN =H: ultrasoft test                                                                        
   LEXCH  = PE                                                                                      
   EATOM  =    12.4884 eV,    0.9179 Ry                                                             
                                                                                                    
   TITEL  = PAW_PBE H 15Jun2001                                                                     
   LULTRA =        F    use ultrasoft PP ?                                                          
   IUNSCR =        0    unscreen: 0-lin 1-nonlin 2-no                                               
   RPACOR =    0.000    partial core radius                                                         
   POMASS =    1.000; ZVAL   =    1.000    mass and valenz                                          
   RCORE  =    1.100    outmost cutoff radius                                                       
   RWIGS  =    0.700; RWIGS  =    0.370    wigner-seitz radius (au A)                               
   ENMAX  =  250.000; ENMIN  =  200.000 eV                                                          
   RCLOC  =    0.701    cutoff for local pot                                                        
   LCOR   =        T    correct aug charges                                                         
   LPAW   =        T    paw PP                                                                      
   EAUG   =  400.000                                                                                
   RMAX   =    1.123    core radius for proj-oper                                                   
   RAUG   =    1.200    factor for augmentation sphere                                              
   RDEP   =    1.112    radius for radial grids                                                     
   RDEPT  =    0.926    core radius for aug-charge                                                  
                                                                                                    
   Atomic configuration                                                                             
    2 entries                                                                                       
     n  l   j            E        occ.                                                              
     1  0  0.50        -6.4927   1.0000                                                             
     2  1  0.50        -3.4015   0.0000                                                             
   Description                                                                                      
     l       E           TYP  RCUT    TYP  RCUT                                                     
     0     -6.4927494     23  1.100                                                                 
     0      6.8029130     23  1.100                                                                 
     1     -4.0817478     23  1.100                                                                 
  local pseudopotential read in
  atomic valenz-charges read in
  non local Contribution for L=           0  read in
    real space projection operators read in
  non local Contribution for L=           0  read in
    real space projection operators read in
  non local Contribution for L=           1  read in
    real space projection operators read in
    PAW grid and wavefunctions read in

   number of l-projection  operators is LMAX  =           3
   number of lm-projection operators is LMMAX =           5

 POTCAR:    PAW_PBE Si 05Jan2001                  
   SHA256 =  79d9987ad8750f624c4d6acb2a16d13abf6a777132adc04dc6c8399be72b42bb Si/POTCAR             
   COPYR  = (c) Copyright 05Jan2001 Georg Kresse                                                    
   COPYR  = This file is part of the software VASP. Any use, copying, and all other rights are regul
   COPYR  = If you do not have a valid VASP license, you may not use, copy or distribute this file. 
   VRHFIN =Si: s2p2                                                                                 
   LEXCH  = PE                                                                                      
   EATOM  =   103.0669 eV,    7.5752 Ry                                                             
                                                                                                    
   TITEL  = PAW_PBE Si 05Jan2001                                                                    
   LULTRA =        F    use ultrasoft PP ?                                                          
   IUNSCR =        1    unscreen: 0-lin 1-nonlin 2-no                                               
   RPACOR =    1.500    partial core radius                                                         
   POMASS =   28.085; ZVAL   =    4.000    mass and valenz                                          
   RCORE  =    1.900    outmost cutoff radius                                                       
   RWIGS  =    2.480; RWIGS  =    1.312    wigner-seitz radius (au A)                               
   ENMAX  =  245.345; ENMIN  =  184.009 eV                                                          
   ICORE  =        2    local potential                                                             
   LCOR   =        T    correct aug charges                                                         
   LPAW   =        T    paw PP                                                                      
   EAUG   =  322.069                                                                                
   DEXC   =    0.000                                                                                
   RMAX   =    1.950    core radius for proj-oper                                                   
   RAUG   =    1.300    factor for augmentation sphere                                              
   RDEP   =    1.993    radius for radial grids                                                     
   RDEPT  =    1.837    core radius for aug-charge                                                  
                                                                                                    
   Atomic configuration                                                                             
    6 entries                                                                                       
     n  l   j            E        occ.                                                              
     1  0  0.50     -1785.8828   2.0000                                                             
     2  0  0.50      -139.4969   2.0000                                                             
     2  1  1.50       -95.5546   6.0000                                                             
     3  0  0.50       -10.8127   2.0000                                                             
     3  1  0.50        -4.0811   2.0000                                                             
     3  2  1.50        -4.0817   0.0000                                                             
   Description                                                                                      
     l       E           TYP  RCUT    TYP  RCUT                                                     
     0    -10.8127223     23  1.900                                                                 
     0     -7.6451159     23  1.900                                                                 
     1     -4.0811372     23  1.900                                                                 
     1      2.4879257     23  1.900                                                                 
     2     -4.0817478      7  1.900                                                                 
  local pseudopotential read in
  partial core-charges read in
  partial kinetic energy density read in
  atomic valenz-charges read in
  non local Contribution for L=           0  read in
    real space projection operators read in
  non local Contribution for L=           0  read in
    real space projection operators read in
  non local Contribution for L=           1  read in
    real space projection operators read in
  non local Contribution for L=           1  read in
    real space projection operators read in
    PAW grid and wavefunctions read in

   number of l-projection  operators is LMAX  =           4
   number of lm-projection operators is LMMAX =           8

 -----------------------------------------------------------------------------
|                                                                             |
|               ----> ADVICE to this user running VASP <----                  |
|                                                                             |
|     You have a (more or less) 'large supercell' and for larger cells it     |
|     might be more efficient to use real-space projection operators.         |
|     Therefore, try LREAL= Auto in the INCAR file.                           |
|     Mind: For very accurate calculation, you might also keep the            |
|     reciprocal projection scheme (i.e. LREAL=.FALSE.).                      |
|                                                                             |
 -----------------------------------------------------------------------------

 -----------------------------------------------------------------------------
|                                                                             |
|               ----> ADVICE to this user running VASP <----                  |
|                                                                             |
|     You enforced a specific xc type in the INCAR file but a different       |
|     type was found in the POTCAR file.                                      |
|     I HOPE YOU KNOW WHAT YOU ARE DOING!                                     |
|                                                                             |
 -----------------------------------------------------------------------------

  PAW_PBE H 15Jun2001                   :
 energy of atom  1       EATOM=  -12.4884
 kinetic energy error for atom=    0.0000 (will be added to EATOM!!)
  PAW_PBE Si 05Jan2001                  :
 energy of atom  2       EATOM= -103.0669
 kinetic energy error for atom=    0.0001 (will be added to EATOM!!)


 POSCAR:  H Si
  positions in cartesian coordinates
  No initial velocities read in


 exchange-correlation table for SCAN
   RHO(1)=    0.500       N(1)  =     2000
   RHO(2)=  100.500       N(2)  =     4000



--------------------------------------------------------------------------------------------------------


 ion  position               nearest neighbor table
   1  0.114  0.861  0.757-  26 0.77
   2  0.345  0.786  0.095-  91 1.46
   3  0.026  0.731  0.655-  15 0.74
   4  0.967  0.554  0.215-  22 0.74
   5  0.164  0.844  0.160-  84 1.59
   6  0.989  0.429  0.409-  99 1.52
   7  0.956  0.484  0.935-  18 0.74
   8  0.954  0.550  0.589-   9 0.77
   9  0.963  0.601  0.583-   8 0.77
  10  0.095  0.630  0.440-  34 0.78
  11  0.215  0.722  0.797-  29 0.78
  12  0.870  0.412  0.047-  95 1.48
  13  0.192  0.424  0.861-  64 1.52
  14  0.831  0.681  0.329-  45 1.43
  15  0.038  0.764  0.708-   3 0.74
  16  0.019  0.895  0.849-  85 1.53
  17  0.076  0.798  0.957-  21 0.77
  18  0.981  0.440  0.929-   7 0.74
  19  0.311  0.605  0.874-  73 1.51
  20  0.200  0.601  0.223-  25 0.67
  21  0.114  0.772  0.921-  17 0.77
  22  0.929  0.588  0.213-   4 0.74
  23  0.961  0.784  0.389-  31 0.71
  24  0.222  0.565  0.490-  71 1.42
  25  0.157  0.600  0.249-  20 0.67
  26  0.158  0.862  0.713-   1 0.77
  27  0.909  0.625  1.000-  32 0.78
  28  0.953  0.442  0.717-  62 1.55
  29  0.192  0.691  0.745-  11 0.78
  30  0.875  0.884  0.255-  75 1.50
  31  0.926  0.750  0.385-  23 0.71
  32  0.900  0.646  0.930-  27 0.78
  33  0.208  0.588  0.953-  36 0.73
  34  0.061  0.597  0.407-  10 0.78
  35  0.800  0.775  0.146-  45 1.44
  36  0.204  0.595  0.024-  33 0.73
  37  0.365  0.069  0.795- 112 2.28 103 2.34  66 2.45  63 2.51
  38  0.809  0.339  0.313-  95 2.34  74 2.37  99 2.37  98 2.46
  39  0.540  0.795  0.843-  93 2.39  55 2.42  86 2.44  70 2.46
  40  0.654  0.424  0.664-  81 2.33  89 2.43  94 2.45  72 2.49
  41  0.315  0.433  0.273-  87 2.29  71 2.30  58 2.35  78 3.10
  42  0.654  0.154  0.927-  56 2.26  65 2.31  49 2.39 100 2.50
  43  0.437  0.186  0.387-  80 2.32  51 2.36  87 2.36  77 2.42
  44  0.370  0.296  0.890-  79 2.31 112 2.36  64 2.37 108 2.38
  45  0.761  0.712  0.240-  14 1.43  35 1.44 107 2.32  82 2.43
  46  0.555  0.389  0.304-  72 2.33  58 2.41  51 2.44  74 2.66
  47  0.680  0.574  0.936-  82 2.28  94 2.31  93 2.38  61 2.68
  48  0.814  0.054  0.621-  76 2.31 104 2.37 109 2.37 102 2.47
  49  0.542  0.129  0.096-  52 2.32  63 2.36  51 2.39  42 2.39
  50  0.138  0.230  0.805-  60 2.21  83 2.29  64 2.33 103 2.34
  51  0.576  0.224  0.281-  43 2.36  49 2.39  98 2.40  46 2.44
  52  0.619  0.992  0.129-  86 2.24  56 2.31  49 2.32 106 2.61
  53  0.595  0.992  0.616- 100 2.21  76 2.39  66 2.40 106 2.59
  54  0.502  0.744  0.300-  91 2.28 107 2.35 111 2.37  92 2.38
  55  0.687  0.783  0.733-  61 2.30  96 2.37  39 2.42  76 2.45
  56  0.721  0.016  0.959-  42 2.26  52 2.31  97 2.34  76 2.51
  57  0.429  0.540  0.591-  71 2.35  72 2.41 111 2.47  73 2.49
  58  0.451  0.473  0.164-  92 2.32 108 2.32  41 2.35  46 2.41
  59  0.229  0.105  0.527- 101 2.35  77 2.39 105 2.41 103 2.43
  60  0.149  0.179  0.009-  50 2.21  79 2.36  68 2.37  88 2.41 103 2.95
  61  0.787  0.663  0.765-  55 2.30  47 2.68  89 2.82
  62  0.926  0.344  0.673-  28 1.55  99 2.27  83 2.34  81 2.37
  63  0.397  0.070  0.038-  49 2.36 110 2.39  79 2.42  37 2.51
  64  0.239  0.352  0.777-  13 1.52  78 2.32  50 2.33  44 2.37
  65  0.705  0.303  0.950-  42 2.31  81 2.33  94 2.38  95 2.40
  66  0.435  0.959  0.643-  70 2.35  53 2.40  37 2.45  77 2.46
  67  0.058  0.242  0.383- 105 2.33  99 2.33 101 2.39  68 2.41
  68  0.029  0.181  0.166-  69 2.25  60 2.37  67 2.41  90 2.43
  69  0.918  0.187  0.013-  68 2.25  97 2.30  95 2.40  83 2.46
  70  0.415  0.801  0.680-  66 2.35 111 2.40  39 2.46
  71  0.294  0.501  0.476-  24 1.42  78 2.19  41 2.30  57 2.35
  72  0.514  0.406  0.525-  46 2.33  80 2.39  57 2.41  40 2.49
  73  0.400  0.562  0.831-  19 1.51 108 2.34  93 2.42  57 2.49
  74  0.716  0.471  0.341-  38 2.37  82 2.43  89 2.50  46 2.66
  75  0.899  0.982  0.224-  30 1.50  97 2.34  90 2.41 102 2.50
  76  0.729  0.946  0.733-  48 2.31  53 2.39  55 2.45  56 2.51
  77  0.371  0.041  0.451-  59 2.39  43 2.42  66 2.46 110 2.56
  78  0.265  0.364  0.553-  71 2.19 105 2.21  64 2.32  80 2.35  41 3.10
  79  0.305  0.208  0.056-  44 2.31  60 2.36  87 2.36  63 2.42
  80  0.406  0.285  0.559- 112 2.28  43 2.32  78 2.35  72 2.39
  81  0.772  0.331  0.746-  65 2.33  40 2.33  62 2.37 109 2.43  94 3.15
  82  0.684  0.575  0.160-  47 2.28  92 2.40  74 2.43  45 2.43
  83  0.981  0.218  0.793-  50 2.29  62 2.34  69 2.46 104 2.54
  84  0.182  0.952  0.149-   5 1.59  88 2.39  90 2.46 110 2.47
  85  0.994  0.995  0.869-  16 1.53  88 2.24  97 2.29 104 2.34
  86  0.526  0.885  0.045-  52 2.24  91 2.28  39 2.44
  87  0.337  0.278  0.260-  41 2.29  43 2.36  79 2.36 105 2.44
  88  0.136  0.020  0.946-  85 2.24 103 2.36  84 2.39  60 2.41
  89  0.721  0.556  0.554-  40 2.43  96 2.45  74 2.50  61 2.82
  90  0.055  0.031  0.261- 101 2.28  75 2.41  68 2.43  84 2.46
  91  0.409  0.838  0.178-   2 1.46  86 2.28  54 2.28 110 2.33
  92  0.524  0.614  0.161-  58 2.32  54 2.38  82 2.40  93 2.44
  93  0.531  0.641  0.924-  47 2.38  39 2.39  73 2.42  92 2.44
  94  0.613  0.433  0.897-  47 2.31 108 2.37  65 2.38  40 2.45  81 3.15
  95  0.837  0.321  0.088-  12 1.48  38 2.34  65 2.40  69 2.40
  96  0.631  0.697  0.551- 111 2.32  55 2.37 107 2.40  89 2.45
  97  0.876  0.035  0.009-  85 2.29  69 2.30  75 2.34  56 2.34
  98  0.722  0.204  0.387- 109 2.39  51 2.40  38 2.46 102 2.51
  99  0.941  0.341  0.450-   6 1.52  62 2.27  67 2.33  38 2.37
 100  0.587  0.131  0.703-  53 2.21 112 2.33 109 2.46  42 2.50
 101  0.074  0.089  0.468-  90 2.28  59 2.35  67 2.39 104 2.51
 102  0.783  0.043  0.383- 106 2.32  48 2.47  75 2.50  98 2.51
 103  0.207  0.088  0.763-  37 2.34  50 2.34  88 2.36  59 2.43  60 2.95
 104  0.973  0.068  0.666-  85 2.34  48 2.37 101 2.51  83 2.54
 105  0.216  0.253  0.421-  78 2.21  67 2.33  59 2.41  87 2.44
 106  0.649  0.959  0.378- 102 2.32 107 2.45  53 2.59  52 2.61
 107  0.651  0.791  0.358-  45 2.32  54 2.35  96 2.40 106 2.45
 108  0.453  0.432  0.943-  58 2.32  73 2.34  94 2.37  44 2.38
 109  0.732  0.195  0.621-  48 2.37  98 2.39  81 2.43 100 2.46
 110  0.342  0.980  0.218-  91 2.33  63 2.39  84 2.47  77 2.56
 111  0.474  0.696  0.519-  96 2.32  54 2.37  70 2.40  57 2.47
 112  0.444  0.198  0.738-  80 2.28  37 2.28 100 2.33  44 2.36

  LATTYP: Found a simple tetragonal cell.
 ALAT       =    14.5676482755
 C/A-ratio  =     0.6975778263
  
  Lattice vectors:
  
 A1 = (  14.5676482755,   0.0000000000,   0.0000000000)
 A2 = (   0.0000000000,  14.5676482755,   0.0000000000)
 A3 = (   0.0000000000,   0.0000000000,  10.1620684187)


Analysis of symmetry for initial positions (statically):
=====================================================================
 Subroutine PRICEL returns:
 Original cell was already a primitive cell.
 

 Routine SETGRP: Setting up the symmetry group for a 
 simple tetragonal supercell.


 Subroutine GETGRP returns: Found  1 space group operations
 (whereof  1 operations were pure point group operations)
 out of a pool of 16 trial point group operations.


The static configuration has the point symmetry C_1 .


Analysis of symmetry for dynamics (positions and initial velocities):
=====================================================================
 Subroutine PRICEL returns:
 Original cell was already a primitive cell.
 

 Routine SETGRP: Setting up the symmetry group for a 
 simple tetragonal supercell.


 Subroutine GETGRP returns: Found  1 space group operations
 (whereof  1 operations were pure point group operations)
 out of a pool of 16 trial point group operations.


The dynamic configuration has the point symmetry C_1 .


 Subroutine INISYM returns: Found  1 space group operations
 (whereof  1 operations are pure point group operations),
 and found     1 'primitive' translations


----------------------------------------------------------------------------------------

                                     Primitive cell                                     

  volume of cell :    2156.5573

  direct lattice vectors                    reciprocal lattice vectors
    14.567648276  0.000000000  0.000000000     0.068645260  0.000000000  0.000000000
     0.000000000 14.567648276  0.000000000     0.000000000  0.068645260  0.000000000
     0.000000000  0.000000000 10.162068419     0.000000000  0.000000000  0.098405163

  length of vectors
    14.567648276 14.567648276 10.162068419     0.068645260  0.068645260  0.098405163

  position of ions in fractional coordinates (direct lattice)
     0.114481073  0.860633080  0.756593017
     0.345383133  0.785542030  0.095095305
     0.025761262  0.730969049  0.654818461
     0.967321542  0.554086003  0.214946398
     0.163877515  0.843986604  0.160426001
     0.988697676  0.428909998  0.409306435
     0.955555745  0.483584575  0.935416847
     0.953668000  0.549748995  0.589395756
     0.962756633  0.601325611  0.583128331
     0.095412106  0.629890963  0.440418212
     0.215084133  0.722457036  0.796639982
     0.870161042  0.412481815  0.046706633
     0.191582742  0.423894089  0.861065842
     0.831012650  0.680718659  0.328951731
     0.038413750  0.763548089  0.707697459
     0.019323641  0.894804690  0.849345787
     0.075531066  0.797808938  0.956746166
     0.980755420  0.439974928  0.929406260
     0.310695310  0.605476590  0.873730587
     0.199661603  0.600569827  0.223459428
     0.114220907  0.772437650  0.920726924
     0.929209694  0.588005685  0.213478193
     0.960834565  0.783853357  0.388908029
     0.222254817  0.565163975  0.490145293
     0.157263544  0.600369383  0.248673783
     0.158174467  0.861985391  0.713184531
     0.908588658  0.625252603  0.999838772
     0.952912902  0.442172263  0.716691691
     0.191691888  0.690722333  0.745303976
     0.875254520  0.884459849  0.254937272
     0.925667599  0.750093618  0.384985599
     0.899527484  0.646026031  0.930499541
     0.207535214  0.588413438  0.953460418
     0.060655981  0.596948789  0.406819737
     0.800136012  0.775107951  0.146479037
     0.204362430  0.594748709  0.024103951
     0.364692358  0.068503233  0.795327257
     0.809320748  0.339383537  0.313155735
     0.539921740  0.794616933  0.843407036
     0.654063705  0.423676484  0.664033120
     0.314544250  0.433220921  0.273186509
     0.653623689  0.153844324  0.927076025
     0.436882459  0.185670326  0.386555162
     0.370090621  0.295526767  0.890481113
     0.761214150  0.712304402  0.240311313
     0.554643402  0.389184987  0.304357329
     0.679557181  0.573689029  0.936085018
     0.814283800  0.054056906  0.621347913
     0.541628947  0.129206167  0.095681308
     0.137590499  0.230230710  0.804850909
     0.575642674  0.224082840  0.281086476
     0.618910467  0.991972055  0.129222708
     0.594773421  0.992418249  0.616022225
     0.501661618  0.743963596  0.300107210
     0.686740908  0.783208091  0.733012187
     0.720534969  0.015915129  0.958554853
     0.428677978  0.540031572  0.591241837
     0.450825684  0.473150496  0.163572998
     0.228962145  0.105162479  0.526620150
     0.149497020  0.178949955  0.009268723
     0.786880613  0.663137235  0.765004690
     0.925825483  0.343677298  0.672647508
     0.396576708  0.069545886  0.037624624
     0.239377690  0.352210590  0.777137063
     0.704622998  0.303076373  0.950395097
     0.434886941  0.958939956  0.642826808
     0.058411075  0.241717121  0.383288110
     0.029074288  0.181463058  0.166262411
     0.917896955  0.186559282  0.013356434
     0.415037478  0.800925433  0.680304414
     0.294464825  0.500981343  0.475727952
     0.514458467  0.406157527  0.525052556
     0.400169601  0.561893714  0.830994208
     0.715784717  0.470845388  0.340802665
     0.898861625  0.982361719  0.223707409
     0.729218594  0.945602182  0.733369398
     0.370714607  0.040550196  0.451405148
     0.264960406  0.363526075  0.552774275
     0.305264784  0.207961501  0.055838337
     0.406270792  0.285247140  0.559310346
     0.771689417  0.331214065  0.746169942
     0.683669719  0.575293956  0.160390575
     0.981174156  0.218414801  0.793414261
     0.181968973  0.951546862  0.149229462
     0.993743103  0.995383725  0.869016979
     0.526245545  0.884569682  0.045428842
     0.337403121  0.277947403  0.260314130
     0.135530455  0.020119857  0.946497268
     0.721454816  0.555741040  0.554416657
     0.055123997  0.030654021  0.261120068
     0.408977474  0.837602595  0.178173372
     0.523732442  0.614344185  0.160839303
     0.530755538  0.640777415  0.924026449
     0.612573823  0.432622334  0.897034897
     0.837245640  0.320874029  0.087698977
     0.631235037  0.697470162  0.550927210
     0.876297928  0.034586228  0.008595356
     0.721907874  0.204435194  0.386698833
     0.941243208  0.340594440  0.449991066
     0.586949921  0.130828941  0.703269227
     0.073716772  0.089023292  0.467701043
     0.783489537  0.043478260  0.383059810
     0.207078036  0.088288787  0.762747276
     0.972936725  0.068332992  0.666333833
     0.215515912  0.253053199  0.421026490
     0.648755367  0.958603594  0.377832528
     0.650589568  0.791321961  0.358313864
     0.452742260  0.431846643  0.942963539
     0.732245850  0.194868791  0.620911978
     0.341895954  0.980364142  0.218322679
     0.473772422  0.695630469  0.519455271
     0.443541049  0.197926250  0.737873402

  ion indices of the primitive-cell ions
   primitive index   ion index
                 1           1
                 2           2
                 3           3
                 4           4
                 5           5
                 6           6
                 7           7
                 8           8
                 9           9
                10          10
                11          11
                12          12
                13          13
                14          14
                15          15
                16          16
                17          17
                18          18
                19          19
                20          20
                21          21
                22          22
                23          23
                24          24
                25          25
                26          26
                27          27
                28          28
                29          29
                30          30
                31          31
                32          32
                33          33
                34          34
                35          35
                36          36
                37          37
                38          38
                39          39
                40          40
                41          41
                42          42
                43          43
                44          44
                45          45
                46          46
                47          47
                48          48
                49          49
                50          50
                51          51
                52          52
                53          53
                54          54
                55          55
                56          56
                57          57
                58          58
                59          59
                60          60
                61          61
                62          62
                63          63
                64          64
                65          65
                66          66
                67          67
                68          68
                69          69
                70          70
                71          71
                72          72
                73          73
                74          74
                75          75
                76          76
                77          77
                78          78
                79          79
                80          80
                81          81
                82          82
                83          83
                84          84
                85          85
                86          86
                87          87
                88          88
                89          89
                90          90
                91          91
                92          92
                93          93
                94          94
                95          95
                96          96
                97          97
                98          98
                99          99
               100         100
               101         101
               102         102
               103         103
               104         104
               105         105
               106         106
               107         107
               108         108
               109         109
               110         110
               111         111
               112         112

----------------------------------------------------------------------------------------


 -----------------------------------------------------------------------------
|                                                                             |
|           W    W    AA    RRRRR   N    N  II  N    N   GGGG   !!!           |
|           W    W   A  A   R    R  NN   N  II  NN   N  G    G  !!!           |
|           W    W  A    A  R    R  N N  N  II  N N  N  G       !!!           |
|           W WW W  AAAAAA  RRRRR   N  N N  II  N  N N  G  GGG   !            |
|           WW  WW  A    A  R   R   N   NN  II  N   NN  G    G                |
|           W    W  A    A  R    R  N    N  II  N    N   GGGG   !!!           |
|                                                                             |
|     The requested file  could not be found or opened for reading            |
|     k-point information. Automatic k-point generation is used as a          |
|     fallback, which may lead to unwanted results.                           |
|                                                                             |
 -----------------------------------------------------------------------------



Automatic generation of k-mesh.
 Grid dimensions derived from KSPACING:
 generate k-points for:    2    2    3

 Generating k-lattice:

  Cartesian coordinates                     Fractional coordinates (reciprocal lattice)
     0.034322630  0.000000000  0.000000000     0.500000000  0.000000000  0.000000000
     0.000000000  0.034322630  0.000000000     0.000000000  0.500000000  0.000000000
     0.000000000  0.000000000  0.032801721     0.000000000  0.000000000  0.333333333

  Length of vectors
     0.034322630  0.034322630  0.032801721

  Shift w.r.t. Gamma in fractional coordinates (k-lattice)
     0.000000000  0.000000000  0.000000000

 
 Subroutine IBZKPT returns following result:
 ===========================================
 
 Found      8 irreducible k-points:
 
 Following reciprocal coordinates:
            Coordinates               Weight
  0.000000  0.000000  0.000000      1.000000
  0.500000  0.000000  0.000000      1.000000
  0.000000  0.500000  0.000000      1.000000
  0.500000  0.500000  0.000000      1.000000
  0.000000  0.000000  0.333333      2.000000
  0.500000  0.000000  0.333333      2.000000
  0.000000  0.500000  0.333333      2.000000
  0.500000  0.500000  0.333333      2.000000
 
 Following cartesian coordinates:
            Coordinates               Weight
  0.000000  0.000000  0.000000      1.000000
  0.034323  0.000000  0.000000      1.000000
  0.000000  0.034323  0.000000      1.000000
  0.034323  0.034323  0.000000      1.000000
  0.000000  0.000000  0.032802      2.000000
  0.034323  0.000000  0.032802      2.000000
  0.000000  0.034323  0.032802      2.000000
  0.034323  0.034323  0.032802      2.000000
 


--------------------------------------------------------------------------------------------------------




 Dimension of arrays:
   k-points           NKPTS =      8   k-points in BZ     NKDIM =      8   number of bands    NBANDS=    232
   number of dos      NEDOS =   2000   number of ions     NIONS =    112
   non local maximal  LDIM  =      4   non local SUM 2l+1 LMDIM =      8
   total plane-waves  NPLWV = ******
   max r-space proj   IRMAX =      1   max aug-charges    IRDMAX= 420228
   dimension x,y,z NGX =   168 NGY =  168 NGZ =  120
   dimension x,y,z NGXF=   336 NGYF=  336 NGZF=  240
   support grid    NGXF=   672 NGYF=  672 NGZF=  480
   ions per type =              36  76
   NGX,Y,Z   is equivalent  to a cutoff of  19.17, 19.17, 19.63 a.u.
   NGXF,Y,Z  is equivalent  to a cutoff of  38.34, 38.34, 39.26 a.u.

 SYSTEM =  a-Si SPC                                
 POSCAR =   H Si                                   

 Startparameter for this run:
   NWRITE =      2    write-flag & timer
   PREC   = accura    normal or accurate (medium, high low for compatibility)
   ISTART =      1    job   : 0-new  1-cont  2-samecut
   ICHARG =      1    charge: 1-file 2-atom 10-const
   ISPIN  =      1    spin polarized calculation?
   LNONCOLLINEAR =      F non collinear calculations
   LSORBIT =      F    spin-orbit coupling
   INIWAV =      1    electr: 0-lowe 1-rand  2-diag
   LASPH  =      T    aspherical Exc in radial PAW
 Electronic Relaxation 1
   ENCUT  = 1200.0 eV  88.20 Ry    9.39 a.u.  41.15 41.15 28.70*2*pi/ulx,y,z
   ENINI  = 1200.0     initial cutoff
   ENAUG  =  400.0 eV  augmentation charge cutoff
   NELM   =    150;   NELMIN=  2; NELMDL=  0     # of ELM steps 
   EDIFF  = 0.1E-05   stopping-criterion for ELM
   LREAL  =      F    real-space projection
   NLSPLINE    = F    spline interpolate recip. space projectors
   LCOMPAT=      F    compatible to vasp.4.4
   GGA_COMPAT  = T    GGA compatible to vasp.4.4-vasp.4.6
   LMAXPAW     = -100 max onsite density
   LMAXMIX     =    2 max onsite mixed and CHGCAR
   VOSKOWN=      0    Vosko Wilk Nusair interpolation
   ROPT   =    0.00000   0.00000
 Ionic relaxation
   EDIFFG = -.1E-01   stopping-criterion for IOM
   NSW    =      0    number of steps for IOM
   NBLOCK =      1;   KBLOCK =      1    inner block; outer block 
   IBRION =     -1    ionic relax: 0-MD 1-quasi-New 2-CG
   NFREE  =      0    steps in history (QN), initial steepest desc. (CG)
   ISIF   =      2    stress and relaxation
   IWAVPR =     10    prediction:  0-non 1-charg 2-wave 3-comb
   ISYM   =      1    0-nonsym 1-usesym 2-fastsym
   LCORR  =      T    Harris-Foulkes like correction to forces

   POTIM  = 0.5000    time-step for ionic-motion
   TEIN   =    0.0    initial temperature
   TEBEG  =    0.0;   TEEND  =   0.0 temperature during run
   SMASS  =  -3.00    Nose mass-parameter (am)
   estimated Nose-frequenzy (Omega)   =  0.10E-29 period in steps = 0.13E+47 mass=  -0.485E-26a.u.
   SCALEE = 1.0000    scale energy and forces
   NPACO  =    256;   APACO  = 10.0  distance and # of slots for P.C.
   PSTRESS=    0.0 pullay stress

  Mass of Ions in am
   POMASS =   1.00 28.09
  Ionic Valenz
   ZVAL   =   1.00  4.00
  Atomic Wigner-Seitz radii
   RWIGS  =  -1.00 -1.00
  virtual crystal weights 
   VCA    =   1.00  1.00
   NELECT =     340.0000    total number of electrons
   NUPDOWN=      -1.0000    fix difference up-down

 DOS related values:
   EMIN   =  10.00;   EMAX   =-10.00  energy-range for DOS
   EFERMI =   0.00;   METHOD = LEGACY      
   ISMEAR =     0;   SIGMA  =   0.10  broadening in eV -4-tet -1-fermi 0-gaus
   EFERMI_NEDOS =   21; number of points for ismear=-14 and -15

 Electronic relaxation 2 (details)
   IALGO  =     38    algorithm
   LDIAG  =      F    sub-space diagonalisation (order eigenvalues)
   LSUBROT=      F    optimize rotation matrix (better conditioning)
   TURBO    =      0    0=normal 1=particle mesh
   IRESTART =      0    0=no restart 2=restart with 2 vectors
   NREBOOT  =      0    no. of reboots
   NMIN     =      0    reboot dimension
   EREF     =   0.00    reference energy to select bands
   IMIX   =      4    mixing-type and parameters
     AMIX     =   0.40;   BMIX     =  1.00
     AMIX_MAG =   1.60;   BMIX_MAG =  1.00
     AMIN     =   0.10
     WC   =   100.;   INIMIX=   1;  MIXPRE=   1;  MAXMIX= -45

 Intra band minimization:
   WEIMIN = 0.0000     energy-eigenvalue tresh-hold
   EBREAK =  0.11E-08  absolut break condition
   DEPER  =   0.30     relativ break condition  

   TIME   =   0.40     timestep for ELM

  volume/ion in A,a.u.               =      19.25       129.94
  Fermi-wavevector in a.u.,A,eV,Ry     =   0.884397  1.671269 10.641916  0.782159
  Thomas-Fermi vector in A             =   2.005292

 Write flags
   LWAVE        =      F    write WAVECAR
   LDOWNSAMPLE  =      F    k-point downsampling of WAVECAR
   LCHARG       =      F    write CHGCAR
   LVTOT        =      F    write LOCPOT, total local potential
   LVHAR        =      F    write LOCPOT, Hartree potential only
   WRT_POTENTIAL= false  ! write potential to hdf5 file
   LELF         =      F    write electronic localiz. function (ELF)
   LORBIT       =     11    0 simple, 1 ext, 2 COOP (PROOUT), +10 PAW based schemes


 Python interface
   PLUGINS active      =      F    recompile with -DPLUGINS to activate

 Dipole corrections
   LMONO      =      F    monopole corrections only (constant potential shift)
   LDIPOL     =      F    correct potential (dipole corrections)
   IDIPOL     =      0    1-x, 2-y, 3-z, 4-all directions 
   EPSILON    =  1.0000000 bulk dielectric constant
   LVACPOTAV  =      F  vacuum potentials using an averaging scheme for the charge density
   VACPOTFLAT =  0.1000000 required flatness to determine vacuum potential

Coulomb truncation method
  LTRUNCATE          =      F  Coulomb kernel truncation to be used
  IDIMENSIONALITY    =      3  Dimensionality of cutoff (0 molecules / 2 surfaces)
  ISURFACE           =     -1  Direction of surface normal
  LCOARSEN           =      F  Coarsen the charge grid before padding, preferred


 Exchange correlation treatment:
   METAGGA = SCAN    functional components
   XC_C    = 1    coefficients multiplying the functional components
   LIBXC   =     F    Libxc                    
   VOSKOWN =     0    Vosko Wilk Nusair interpolation
   LHFCALC =     F    Hartree Fock is set to
   LHFONE  =     F    Hartree Fock one center treatment
   AEXX    =    0.0000 exact exchange contribution

 Parameters of functionals:
   SCAN:
     P1 =  0.000000E+00
     P2 =  0.000000E+00
     P3 =  0.000000E+00

 Accuracy and mixing parameters for tau-dependent meta-GGA functionals:
   LMAXTAU = 6
   LMIXTAU = T

 Van der Waals corrections
   IVDW    =     0    specifies the selected vdW correction

 Linear response parameters
   LEPSILON=     F    determine dielectric tensor
   LRPA    =     F    only Hartree local field effects (RPA)
   LNABLA  =     F    use nabla operator in PAW spheres
   LVEL    =     F    velocity operator in full k-point grid
   CSHIFT  =0.1000    complex shift for real part using Kramers Kronig
   OMEGAMAX=  -1.0    maximum frequency
   DEG_THRESHOLD= 0.2000000E-02 threshold for treating states as degnerate
   RTIME   =   -0.100 relaxation time in fs
  (WPLASMAI=    0.000 imaginary part of plasma frequency in eV, 0.658/RTIME)
   DFIELD  = 0.0000000 0.0000000 0.0000000 field for delta impulse in time

  Optional k-point grid parameters
   LKPOINTS_OPT  =     F    use optional k-point grid
   KPOINTS_OPT_MODE=     1    mode for optional k-point grid

 Orbital magnetization related:
   ORBITALMAG=     F  switch on orbital magnetization
   LCHIMAG   =     F  perturbation theory with respect to B field
   DQ        =  0.001000  dq finite difference perturbation B field
   LLRAUG    =     F  two centre corrections for induced B field
   LBONE     =     F  B-component reconstruction in AE one-centre
   LVGVCALC  =     T  calculate vGv susceptibility
   LVGVAPPL  =     F  apply vGv susceptibility instead of pGv for G=0

 Random number generation:
   RANDOM_GENERATOR = DEFAULT
   PCG_SEED         = not used


--------------------------------------------------------------------------------------------------------


 Static calculation
 charge density and potential will be updated during run
 non-spin polarized calculation
 Variant of blocked Davidson
 perform Loewdin sub-space diagonalisation
    ordering is kept fixed
    before iterative eigenvector-optimisation
 modified Broyden-mixing scheme, WC =      100.0
 initial mixing is a Kerker type mixing with AMIX =  0.4000 and BMIX =      1.0000
 Hartree-type preconditioning will be used
 using additional bands           62
 reciprocal scheme for non local part
 use partial core corrections
 calculate Harris-corrections to forces   (improved forces if not selfconsistent)
 use gradient corrections 
 use of overlap-Matrix (Vanderbilt PP)
 Gauss-broadening in eV      SIGMA  =   0.10


--------------------------------------------------------------------------------------------------------


  energy-cutoff  :     1200.00
  volume of cell :     2156.56
      direct lattice vectors                 reciprocal lattice vectors
    14.567648276  0.000000000  0.000000000     0.068645260  0.000000000  0.000000000
     0.000000000 14.567648276  0.000000000     0.000000000  0.068645260  0.000000000
     0.000000000  0.000000000 10.162068419     0.000000000  0.000000000  0.098405163

  length of vectors
    14.567648276 14.567648276 10.162068419     0.068645260  0.068645260  0.098405163



 old parameters found on file WAVECAR:
  energy-cutoff  :     1200.00
  volume of cell :     2156.56
      direct lattice vectors                 reciprocal lattice vectors
    14.567648276  0.000000000  0.000000000     0.068645260  0.000000000  0.000000000
     0.000000000 14.567648276  0.000000000     0.000000000  0.068645260  0.000000000
     0.000000000  0.000000000 10.162068419     0.000000000  0.000000000  0.098405163

  length of vectors


 k-points in units of 2pi/SCALE and weight: read from INCAR                         
   0.00000000  0.00000000  0.00000000       0.083
   0.03432263  0.00000000  0.00000000       0.083
   0.00000000  0.03432263  0.00000000       0.083
   0.03432263  0.03432263  0.00000000       0.083
   0.00000000  0.00000000  0.03280172       0.167
   0.03432263  0.00000000  0.03280172       0.167
   0.00000000  0.03432263  0.03280172       0.167
   0.03432263  0.03432263  0.03280172       0.167

 k-points in reciprocal lattice and weights: read from INCAR                         
   0.00000000  0.00000000  0.00000000       0.083
   0.50000000  0.00000000  0.00000000       0.083
   0.00000000  0.50000000  0.00000000       0.083
   0.50000000  0.50000000  0.00000000       0.083
   0.00000000  0.00000000  0.33333333       0.167
   0.50000000  0.00000000  0.33333333       0.167
   0.00000000  0.50000000  0.33333333       0.167
   0.50000000  0.50000000  0.33333333       0.167

 position of ions in fractional coordinates (direct lattice) 
   0.11448107  0.86063308  0.75659302
   0.34538313  0.78554203  0.09509531
   0.02576126  0.73096905  0.65481846
   0.96732154  0.55408600  0.21494640
   0.16387752  0.84398660  0.16042600
   0.98869768  0.42891000  0.40930644
   0.95555574  0.48358457  0.93541685
   0.95366800  0.54974900  0.58939576
   0.96275663  0.60132561  0.58312833
   0.09541211  0.62989096  0.44041821
   0.21508413  0.72245704  0.79663998
   0.87016104  0.41248181  0.04670663
   0.19158274  0.42389409  0.86106584
   0.83101265  0.68071866  0.32895173
   0.03841375  0.76354809  0.70769746
   0.01932364  0.89480469  0.84934579
   0.07553107  0.79780894  0.95674617
   0.98075542  0.43997493  0.92940626
   0.31069531  0.60547659  0.87373059
   0.19966160  0.60056983  0.22345943
   0.11422091  0.77243765  0.92072692
   0.92920969  0.58800568  0.21347819
   0.96083457  0.78385336  0.38890803
   0.22225482  0.56516397  0.49014529
   0.15726354  0.60036938  0.24867378
   0.15817447  0.86198539  0.71318453
   0.90858866  0.62525260  0.99983877
   0.95291290  0.44217226  0.71669169
   0.19169189  0.69072233  0.74530398
   0.87525452  0.88445985  0.25493727
   0.92566760  0.75009362  0.38498560
   0.89952748  0.64602603  0.93049954
   0.20753521  0.58841344  0.95346042
   0.06065598  0.59694879  0.40681974
   0.80013601  0.77510795  0.14647904
   0.20436243  0.59474871  0.02410395
   0.36469236  0.06850323  0.79532726
   0.80932075  0.33938354  0.31315573
   0.53992174  0.79461693  0.84340704
   0.65406370  0.42367648  0.66403312
   0.31454425  0.43322092  0.27318651
   0.65362369  0.15384432  0.92707603
   0.43688246  0.18567033  0.38655516
   0.37009062  0.29552677  0.89048111
   0.76121415  0.71230440  0.24031131
   0.55464340  0.38918499  0.30435733
   0.67955718  0.57368903  0.93608502
   0.81428380  0.05405691  0.62134791
   0.54162895  0.12920617  0.09568131
   0.13759050  0.23023071  0.80485091
   0.57564267  0.22408284  0.28108648
   0.61891047  0.99197206  0.12922271
   0.59477342  0.99241825  0.61602223
   0.50166162  0.74396360  0.30010721
   0.68674091  0.78320809  0.73301219
   0.72053497  0.01591513  0.95855485
   0.42867798  0.54003157  0.59124184
   0.45082568  0.47315050  0.16357300
   0.22896215  0.10516248  0.52662015
   0.14949702  0.17894995  0.00926872
   0.78688061  0.66313724  0.76500469
   0.92582548  0.34367730  0.67264751
   0.39657671  0.06954589  0.03762462
   0.23937769  0.35221059  0.77713706
   0.70462300  0.30307637  0.95039510
   0.43488694  0.95893996  0.64282681
   0.05841108  0.24171712  0.38328811
   0.02907429  0.18146306  0.16626241
   0.91789696  0.18655928  0.01335643
   0.41503748  0.80092543  0.68030441
   0.29446482  0.50098134  0.47572795
   0.51445847  0.40615753  0.52505256
   0.40016960  0.56189371  0.83099421
   0.71578472  0.47084539  0.34080267
   0.89886162  0.98236172  0.22370741
   0.72921859  0.94560218  0.73336940
   0.37071461  0.04055020  0.45140515
   0.26496041  0.36352608  0.55277427
   0.30526478  0.20796150  0.05583834
   0.40627079  0.28524714  0.55931035
   0.77168942  0.33121406  0.74616994
   0.68366972  0.57529396  0.16039058
   0.98117416  0.21841480  0.79341426
   0.18196897  0.95154686  0.14922946
   0.99374310  0.99538372  0.86901698
   0.52624554  0.88456968  0.04542884
   0.33740312  0.27794740  0.26031413
   0.13553046  0.02011986  0.94649727
   0.72145482  0.55574104  0.55441666
   0.05512400  0.03065402  0.26112007
   0.40897747  0.83760260  0.17817337
   0.52373244  0.61434418  0.16083930
   0.53075554  0.64077741  0.92402645
   0.61257382  0.43262233  0.89703490
   0.83724564  0.32087403  0.08769898
   0.63123504  0.69747016  0.55092721
   0.87629793  0.03458623  0.00859536
   0.72190787  0.20443519  0.38669883
   0.94124321  0.34059444  0.44999107
   0.58694992  0.13082894  0.70326923
   0.07371677  0.08902329  0.46770104
   0.78348954  0.04347826  0.38305981
   0.20707804  0.08828879  0.76274728
   0.97293672  0.06833299  0.66633383
   0.21551591  0.25305320  0.42102649
   0.64875537  0.95860359  0.37783253
   0.65058957  0.79132196  0.35831386
   0.45274226  0.43184664  0.94296354
   0.73224585  0.19486879  0.62091198
   0.34189595  0.98036414  0.21832268
   0.47377242  0.69563047  0.51945527
   0.44354105  0.19792625  0.73787340

 position of ions in cartesian coordinates  (Angst):
   1.66772000 12.53740000  7.68855000
   5.03142000 11.44350000  0.96636500
   0.37528100 10.64850000  6.65431000
  14.09160000  8.07173000  2.18430000
   2.38731000 12.29490000  1.63026000
  14.40300000  6.24821000  4.15940000
  13.92020000  7.04469000  9.50577000
  13.89270000  8.00855000  5.98948000
  14.02510000  8.75990000  5.92579000
   1.38993000  9.17603000  4.47556000
   3.13327000 10.52450000  8.09551000
  12.67620000  6.00889000  0.47463600
   2.79091000  6.17514000  8.75021000
  12.10590000  9.91647000  3.34283000
   0.55959800 11.12310000  7.19167000
   0.28150000 13.03520000  8.63111000
   1.10031000 11.62220000  9.72252000
  14.28730000  6.40940000  9.44469000
   4.52610000  8.82037000  8.87891000
   2.90860000  8.74889000  2.27081000
   1.66393000 11.25260000  9.35649000
  13.53640000  8.56586000  2.16938000
  13.99710000 11.41890000  3.95211000
   3.23773000  8.23311000  4.98089000
   2.29096000  8.74597000  2.52704000
   2.30423000 12.55710000  7.24743000
  13.23600000  9.10846000 10.16043001
  13.88170000  6.44141000  7.28307000
   2.79250000 10.06220000  7.57383000
  12.75040000 12.88450000  2.59069000
  13.48480000 10.92710000  3.91225000
  13.10400000  9.41108000  9.45580000
   3.02330000  8.57180000  9.68913000
   0.88361500  8.69614000  4.13413000
  11.65610000 11.29150000  1.48853000
   2.97708000  8.66409000  0.24494600
   5.31271000  0.99793100  8.08217000
  11.78990000  4.94402000  3.18231000
   7.86539000 11.57570000  8.57076000
   9.52817000  6.17197000  6.74795000
   4.58217000  6.31101000  2.77614000
   9.52176000  2.24115000  9.42101000
   6.36435000  2.70478000  3.92820000
   5.39135000  4.30513000  9.04913000
  11.08910000 10.37660000  2.44206000
   8.07985000  5.66951000  3.09290000
   9.89955000  8.35730000  9.51256000
  11.86220000  0.78748200  6.31418000
   7.89026000  1.88223000  0.97232000
   2.00437000  3.35392000  8.17895000
   8.38576000  3.26436000  2.85642000
   9.01607000 14.45070000  1.31317000
   8.66445000 14.45720000  6.26006000
   7.30803000 10.83780000  3.04971000
  10.00420000 11.40950000  7.44892000
  10.49650000  0.23184600  9.74090000
   6.24483000  7.86699000  6.00824000
   6.56747000  6.89269000  1.66224000
   3.33544000  1.53197000  5.35155000
   2.17782000  2.60688000  0.09418940
  11.46300000  9.66035000  7.77403000
  13.48710000  5.00657000  6.83549000
   5.77719000  1.01312000  0.38234400
   3.48717000  5.13088000  7.89732000
  10.26470000  4.41511000  9.65798000
   6.33528000 13.96950000  6.53245000
   0.85091200  3.52125000  3.89500000
   0.42354400  2.64349000  1.68957000
  13.37160000  2.71773000  0.13572900
   6.04612000 11.66760000  6.91330000
   4.28966000  7.29812000  4.83438000
   7.49445000  5.91676000  5.33562000
   5.82953000  8.18547000  8.44462000
  10.42730000  6.85911000  3.46326000
  13.09430000 14.31070000  2.27333000
  10.62300000 13.77520000  7.45255000
   5.40044000  0.59072100  4.58721000
   3.85985000  5.29572000  5.61733000
   4.44699000  3.02951000  0.56743300
   5.91841000  4.15538000  5.68375000
  11.24170000  4.82501000  7.58263000
   9.95946000  8.38068000  1.62990000
  14.29340000  3.18179000  8.06273000
   2.65086000 13.86180000  1.51648000
  14.47650000 14.50040000  8.83101000
   7.66616000 12.88610000  0.46165100
   4.91517000  4.04904000  2.64533000
   1.97436000  0.29309900  9.61837000
  10.50990000  8.09584000  5.63402000
   0.80302700  0.44655700  2.65352000
   5.95784000 12.20190000  1.81061000
   7.62955000  8.94955000  1.63446000
   7.73186000  9.33462000  9.39002000
   8.92376000  6.30229000  9.11573000
  12.19670000  4.67438000  0.89120300
   9.19561000 10.16050000  5.59856000
  12.76560000  0.50384000  0.08734660
  10.51650000  2.97814000  3.92966000
  13.71170000  4.96166000  4.57284000
   8.55048000  1.90587000  7.14667000
   1.07388000  1.29686000  4.75281000
  11.41360000  0.63337600  3.89268000
   3.01664000  1.28616000  7.75109000
  14.17340000  0.99545100  6.77133000
   3.13956000  3.68639000  4.27850000
   9.45084000 13.96460000  3.83956000
   9.47756000 11.52770000  3.64121000
   6.59539000  6.29099000  9.58246000
  10.66710000  2.83878000  6.30975000
   4.98062000 14.28160000  2.21861000
   6.90175000 10.13370000  5.27874000
   6.46135000  2.88332000  7.49832000



--------------------------------------------------------------------------------------------------------


 k-point     1 :   0.0000 0.0000 0.0000  plane waves:  203513
 k-point     2 :   0.5000 0.0000 0.0000  plane waves:  203614
 k-point     3 :   0.0000 0.5000 0.0000  plane waves:  203614
 k-point     4 :   0.5000 0.5000 0.0000  plane waves:  203516
 k-point     5 :   0.0000 0.0000 0.3333  plane waves:  203454
 k-point     6 :   0.5000 0.0000 0.3333  plane waves:  203564
 k-point     7 :   0.0000 0.5000 0.3333  plane waves:  203564
 k-point     8 :   0.5000 0.5000 0.3333  plane waves:  203520

 maximum and minimum number of plane-waves per node :     12795    12657

 maximum number of plane-waves:    203614
 maximum index in each direction: 
   IXMAX=   41   IYMAX=   41   IZMAX=   28
   IXMIN=  -41   IYMIN=  -41   IZMIN=  -29


 parallel 3D FFT for wavefunctions:
    minimum data exchange during FFTs selected (reduces bandwidth)
 parallel 3D FFT for charge:
    minimum data exchange during FFTs selected (reduces bandwidth)


 total amount of memory used by VASP MPI-rank0   186041. kBytes
=======================================================================

   base                                    :      30000. kBytes
   nonl-proj                               :      35932. kBytes
   fftplans                                :      40941. kBytes
   grid                                    :      31575. kBytes
   one-center                              :         21. kBytes
   wavefun                                 :      47572. kBytes

     INWAV:  cpu time      8.4618: real time      8.4658
 Broyden mixing: mesh for mixing (old mesh)
   NGX = 83   NGY = 83   NGZ = 57
  (NGX  =336   NGY  =336   NGZ  =240)
  gives a total of 392673 points

 initial charge density was supplied:
 number of electron     339.9999999 magnetization 
 keeping initial charge density in first step


--------------------------------------------------------------------------------------------------------


 Maximum index for augmentation-charges        11713 (set IRDMAX)


--------------------------------------------------------------------------------------------------------


 First call to EWALD:  gamma=   0.137
 Maximum number of real-space cells   3x   3x   3
 Maximum number of reciprocal cells   3x   3x   2

    FEWALD:  cpu time      0.0197: real time      0.0201


--------------------------------------- Ionic step        1  -------------------------------------------




--------------------------------------- Iteration      1(   1)  ---------------------------------------


    POTLOK:  cpu time      0.7193: real time      0.7200
    SETDIJ:  cpu time      1.4099: real time      1.4105
    EDDIAG:  cpu time     19.0492: real time     19.0646
     EDDAV:  cpu time     93.6852: real time     93.7673
       DOS:  cpu time      0.0100: real time      0.0101
    CHARGE:  cpu time      8.9270: real time      8.9354
    MIXING:  cpu time      0.0229: real time      0.0238
    --------------------------------------------
      LOOP:  cpu time    123.8235: real time    123.9318

 eigenvalue-minimisations  :  4016
 total energy-change (2. order) :-0.9139120E+03  (-0.9819963E+00)
 number of electron     339.9999999 magnetization 
 augmentation part      -16.2522068 magnetization 

 Broyden mixing:
  rms(total) = 0.11183E+01    rms(broyden)= 0.51570E+02
  rms(prec ) = 0.12375E+01
  weight for this iteration     100.00
  WARNING: grid for Broyden might be to small

 Free energy of the ion-electron system (eV)
  ---------------------------------------------------
  alpha Z        PSCENC =       114.66540264
  Ewald energy   TEWEN  =     -5525.48796846
  -Hartree energ DENC   =     -3453.08570959
  -exchange      EXHF   =         0.00000000
  -V(xc)+E(xc)   XCENC  =      -256.30629274
  PAW double counting   =     30067.59207046   -29310.72080784
  entropy T*S    EENTRO =        -0.11811642
  eigenvalues    EBANDS =      -833.11110925
  atomic energy  EATOM  =      8282.66055418
  Solvation  Ediel_sol  =         0.00000000
  ---------------------------------------------------
  free energy    TOTEN  =      -913.91197700 eV

  energy without entropy =     -913.79386059  energy(sigma->0) =     -913.85291879


--------------------------------------------------------------------------------------------------------




--------------------------------------- Iteration      1(   2)  ---------------------------------------


    POTLOK:  cpu time      0.7051: real time      0.7316
    SETDIJ:  cpu time      1.4018: real time      1.4026
    EDDIAG:  cpu time     19.0573: real time     19.0728
     EDDAV:  cpu time     90.2578: real time     90.3393
       DOS:  cpu time      0.0031: real time      0.0032
    CHARGE:  cpu time      8.6409: real time      8.6489
    MIXING:  cpu time      0.0165: real time      0.0165
    --------------------------------------------
      LOOP:  cpu time    120.0826: real time    120.2148

 eigenvalue-minimisations  :  3768
 total energy-change (2. order) : 0.6098832E+02  (-0.9509305E+00)
 number of electron     339.9999999 magnetization 
 augmentation part      -16.1871976 magnetization 

 Broyden mixing:
  rms(total) = 0.74891E+00    rms(broyden)= 0.29612E+02
  rms(prec ) = 0.80883E+00
  weight for this iteration     100.00
  WARNING: grid for Broyden might be to small

 eigenvalues of (default mixing * dielectric matrix)
  average eigenvalue GAMMA=   0.6352
  0.6352

 Free energy of the ion-electron system (eV)
  ---------------------------------------------------
  alpha Z        PSCENC =       114.66540264
  Ewald energy   TEWEN  =     -5525.48796846
  -Hartree energ DENC   =     -3442.42420787
  -exchange      EXHF   =         0.00000000
  -V(xc)+E(xc)   XCENC  =      -249.69080727
  PAW double counting   =     35943.37899668   -35186.26620198
  entropy T*S    EENTRO =        -0.11151013
  eigenvalues    EBANDS =      -789.64791501
  atomic energy  EATOM  =      8282.66055418
  Solvation  Ediel_sol  =         0.00000000
  ---------------------------------------------------
  free energy    TOTEN  =      -852.92365722 eV

  energy without entropy =     -852.81214710  energy(sigma->0) =     -852.86790216


--------------------------------------------------------------------------------------------------------




--------------------------------------- Iteration      1(   3)  ---------------------------------------


    POTLOK:  cpu time      0.7062: real time      0.7288
    SETDIJ:  cpu time      1.4037: real time      1.4053
    EDDIAG:  cpu time     18.9879: real time     19.0034
     EDDAV:  cpu time     89.7835: real time     89.8606
       DOS:  cpu time      0.0042: real time      0.0042
    CHARGE:  cpu time      8.3845: real time      8.3914
    MIXING:  cpu time      0.0139: real time      0.0139
    --------------------------------------------
      LOOP:  cpu time    119.2839: real time    119.4077

 eigenvalue-minimisations  :  3728
 total energy-change (2. order) :-0.2277355E+01  (-0.6936636E+00)
 number of electron     339.9999999 magnetization 
 augmentation part      -16.1398780 magnetization 

 Broyden mixing:
  rms(total) = 0.46380E+00    rms(broyden)= 0.18319E+02
  rms(prec ) = 0.50400E+00
  weight for this iteration     100.00
  WARNING: grid for Broyden might be to small

 eigenvalues of (default mixing * dielectric matrix)
  average eigenvalue GAMMA=   0.6861
  0.7516  0.6206

 Free energy of the ion-electron system (eV)
  ---------------------------------------------------
  alpha Z        PSCENC =       114.66540264
  Ewald energy   TEWEN  =     -5525.48796846
  -Hartree energ DENC   =     -3445.72580351
  -exchange      EXHF   =         0.00000000
  -V(xc)+E(xc)   XCENC  =      -253.29162762
  PAW double counting   =     40375.12221193   -39618.08007025
  entropy T*S    EENTRO =        -0.11550624
  eigenvalues    EBANDS =      -784.94820470
  atomic energy  EATOM  =      8282.66055418
  Solvation  Ediel_sol  =         0.00000000
  ---------------------------------------------------
  free energy    TOTEN  =      -855.20101202 eV

  energy without entropy =     -855.08550578  energy(sigma->0) =     -855.14325890


--------------------------------------------------------------------------------------------------------




--------------------------------------- Iteration      1(   4)  ---------------------------------------


    POTLOK:  cpu time      0.7026: real time      0.7276
    SETDIJ:  cpu time      1.4038: real time      1.4043
    EDDIAG:  cpu time     18.9419: real time     18.9568
     EDDAV:  cpu time     95.0889: real time     95.1677
       DOS:  cpu time      0.0032: real time      0.0032
    CHARGE:  cpu time      8.3364: real time      8.3442
    MIXING:  cpu time      0.0141: real time      0.0141
    --------------------------------------------
      LOOP:  cpu time    124.4909: real time    124.6179

 eigenvalue-minimisations  :  4096
 total energy-change (2. order) :-0.3529112E+00  (-0.8397813E-01)
 number of electron     339.9999999 magnetization 
 augmentation part      -16.1286159 magnetization 

 Broyden mixing:
  rms(total) = 0.84413E-01    rms(broyden)= 0.18827E+01
  rms(prec ) = 0.15667E+00
  weight for this iteration     100.00
  WARNING: grid for Broyden might be to small

 eigenvalues of (default mixing * dielectric matrix)
  average eigenvalue GAMMA=   0.9501
  1.5275  0.6998  0.6229

 Free energy of the ion-electron system (eV)
  ---------------------------------------------------
  alpha Z        PSCENC =       114.66540264
  Ewald energy   TEWEN  =     -5525.48796846
  -Hartree energ DENC   =     -3452.06156432
  -exchange      EXHF   =         0.00000000
  -V(xc)+E(xc)   XCENC  =      -253.28265481
  PAW double counting   =     47761.51394627   -47004.53572022
  entropy T*S    EENTRO =        -0.11649748
  eigenvalues    EBANDS =      -778.90942100
  atomic energy  EATOM  =      8282.66055418
  Solvation  Ediel_sol  =         0.00000000
  ---------------------------------------------------
  free energy    TOTEN  =      -855.55392319 eV

  energy without entropy =     -855.43742571  energy(sigma->0) =     -855.49567445


--------------------------------------------------------------------------------------------------------




--------------------------------------- Iteration      1(   5)  ---------------------------------------


    POTLOK:  cpu time      0.7041: real time      0.7275
    SETDIJ:  cpu time      1.4022: real time      1.4036
    EDDIAG:  cpu time     18.9736: real time     18.9898
     EDDAV:  cpu time    101.2337: real time    101.3231
       DOS:  cpu time      0.0047: real time      0.0047
    CHARGE:  cpu time      8.4158: real time      8.4237
    MIXING:  cpu time      0.0140: real time      0.0140
    --------------------------------------------
      LOOP:  cpu time    130.7481: real time    130.8862

 eigenvalue-minimisations  :  4552
 total energy-change (2. order) :-0.2329828E-01  (-0.2749663E-01)
 number of electron     339.9999999 magnetization 
 augmentation part      -16.1317272 magnetization 

 Broyden mixing:
  rms(total) = 0.76015E-01    rms(broyden)= 0.11674E+01
  rms(prec ) = 0.14401E+00
  weight for this iteration     100.00
  WARNING: grid for Broyden might be to small

 eigenvalues of (default mixing * dielectric matrix)
  average eigenvalue GAMMA=   1.0089
  2.0884  0.7648  0.6062  0.5761

 Free energy of the ion-electron system (eV)
  ---------------------------------------------------
  alpha Z        PSCENC =       114.66540264
  Ewald energy   TEWEN  =     -5525.48796846
  -Hartree energ DENC   =     -3452.96332239
  -exchange      EXHF   =         0.00000000
  -V(xc)+E(xc)   XCENC  =      -254.21608870
  PAW double counting   =     47792.17701030   -47035.18455896
  entropy T*S    EENTRO =        -0.10851830
  eigenvalues    EBANDS =      -777.11973179
  atomic energy  EATOM  =      8282.66055418
  Solvation  Ediel_sol  =         0.00000000
  ---------------------------------------------------
  free energy    TOTEN  =      -855.57722148 eV

  energy without entropy =     -855.46870318  energy(sigma->0) =     -855.52296233


--------------------------------------------------------------------------------------------------------




--------------------------------------- Iteration      1(   6)  ---------------------------------------


    POTLOK:  cpu time      0.7023: real time      0.7288
    SETDIJ:  cpu time      1.4039: real time      1.4049
    EDDIAG:  cpu time     19.0118: real time     19.0278
     EDDAV:  cpu time     94.5135: real time     94.5938
       DOS:  cpu time      0.0052: real time      0.0052
    CHARGE:  cpu time      8.4457: real time      8.4539
    MIXING:  cpu time      0.0144: real time      0.0144
    --------------------------------------------
      LOOP:  cpu time    124.0967: real time    124.2287

 eigenvalue-minimisations  :  4088
 total energy-change (2. order) : 0.7746998E-02  (-0.6893750E-02)
 number of electron     339.9999999 magnetization 
 augmentation part      -16.1311976 magnetization 

 Broyden mixing:
  rms(total) = 0.26423E-01    rms(broyden)= 0.34300E+00
  rms(prec ) = 0.40587E-01
  weight for this iteration     100.00
  WARNING: grid for Broyden might be to small

 eigenvalues of (default mixing * dielectric matrix)
  average eigenvalue GAMMA=   1.0129
  2.5434  0.9300  0.6369  0.6369  0.3172

 Free energy of the ion-electron system (eV)
  ---------------------------------------------------
  alpha Z        PSCENC =       114.66540264
  Ewald energy   TEWEN  =     -5525.48796846
  -Hartree energ DENC   =     -3452.86323488
  -exchange      EXHF   =         0.00000000
  -V(xc)+E(xc)   XCENC  =      -254.49127288
  PAW double counting   =     47598.67520110   -46841.66978009
  entropy T*S    EENTRO =        -0.11611039
  eigenvalues    EBANDS =      -776.94226570
  atomic energy  EATOM  =      8282.66055418
  Solvation  Ediel_sol  =         0.00000000
  ---------------------------------------------------
  free energy    TOTEN  =      -855.56947448 eV

  energy without entropy =     -855.45336409  energy(sigma->0) =     -855.51141928


--------------------------------------------------------------------------------------------------------




--------------------------------------- Iteration      1(   7)  ---------------------------------------


    POTLOK:  cpu time      0.7021: real time      0.7295
    SETDIJ:  cpu time      1.4032: real time      1.4043
    EDDIAG:  cpu time     19.0106: real time     19.0255
     EDDAV:  cpu time     93.2391: real time     93.3228
       DOS:  cpu time      0.0034: real time      0.0034
    CHARGE:  cpu time      8.3885: real time      8.3962
    MIXING:  cpu time      0.0145: real time      0.0145
    --------------------------------------------
      LOOP:  cpu time    122.7613: real time    122.8961

 eigenvalue-minimisations  :  3976
 total energy-change (2. order) : 0.8483719E-03  (-0.1018353E-02)
 number of electron     339.9999999 magnetization 
 augmentation part      -16.1312624 magnetization 

 Broyden mixing:
  rms(total) = 0.17205E-01    rms(broyden)= 0.18017E+00
  rms(prec ) = 0.21070E-01
  weight for this iteration     100.00
  WARNING: grid for Broyden might be to small

 eigenvalues of (default mixing * dielectric matrix)
  average eigenvalue GAMMA=   0.9617
  2.5649  0.9956  0.6803  0.6081  0.6081  0.3131

 Free energy of the ion-electron system (eV)
  ---------------------------------------------------
  alpha Z        PSCENC =       114.66540264
  Ewald energy   TEWEN  =     -5525.48796846
  -Hartree energ DENC   =     -3452.98706232
  -exchange      EXHF   =         0.00000000
  -V(xc)+E(xc)   XCENC  =      -254.52535989
  PAW double counting   =     47587.10047575   -46830.08988557
  entropy T*S    EENTRO =        -0.11527944
  eigenvalues    EBANDS =      -776.78950300
  atomic energy  EATOM  =      8282.66055418
  Solvation  Ediel_sol  =         0.00000000
  ---------------------------------------------------
  free energy    TOTEN  =      -855.56862611 eV

  energy without entropy =     -855.45334666  energy(sigma->0) =     -855.51098638


--------------------------------------------------------------------------------------------------------




--------------------------------------- Iteration      1(   8)  ---------------------------------------


    POTLOK:  cpu time      0.7006: real time      0.7277
    SETDIJ:  cpu time      1.3999: real time      1.4015
    EDDIAG:  cpu time     19.0195: real time     19.0357
     EDDAV:  cpu time     98.8942: real time     98.9792
       DOS:  cpu time      0.0046: real time      0.0046
    CHARGE:  cpu time      8.4213: real time      8.4282
    MIXING:  cpu time      0.0145: real time      0.0145
    --------------------------------------------
      LOOP:  cpu time    128.4545: real time    128.5914

 eigenvalue-minimisations  :  4376
 total energy-change (2. order) :-0.8430039E-03  (-0.2620545E-03)
 number of electron     339.9999999 magnetization 
 augmentation part      -16.1299476 magnetization 

 Broyden mixing:
  rms(total) = 0.10212E-01    rms(broyden)= 0.96939E-01
  rms(prec ) = 0.14538E-01
  weight for this iteration     100.00
  WARNING: grid for Broyden might be to small

 eigenvalues of (default mixing * dielectric matrix)
  average eigenvalue GAMMA=   0.9358
  2.5609  1.1620  0.8122  0.6395  0.6395  0.3295  0.4073

 Free energy of the ion-electron system (eV)
  ---------------------------------------------------
  alpha Z        PSCENC =       114.66540264
  Ewald energy   TEWEN  =     -5525.48796846
  -Hartree energ DENC   =     -3453.37022337
  -exchange      EXHF   =         0.00000000
  -V(xc)+E(xc)   XCENC  =      -254.42186404
  PAW double counting   =     47577.98570102   -46820.96417918
  entropy T*S    EENTRO =        -0.11801415
  eigenvalues    EBANDS =      -776.51887775
  atomic energy  EATOM  =      8282.66055418
  Solvation  Ediel_sol  =         0.00000000
  ---------------------------------------------------
  free energy    TOTEN  =      -855.56946911 eV

  energy without entropy =     -855.45145496  energy(sigma->0) =     -855.51046203


--------------------------------------------------------------------------------------------------------




--------------------------------------- Iteration      1(   9)  ---------------------------------------


    POTLOK:  cpu time      0.7026: real time      0.7286
    SETDIJ:  cpu time      1.4030: real time      1.4035
    EDDIAG:  cpu time     19.0701: real time     19.0857
     EDDAV:  cpu time     93.7252: real time     93.8055
       DOS:  cpu time      0.0042: real time      0.0042
    CHARGE:  cpu time      8.4074: real time      8.4153
    MIXING:  cpu time      0.0148: real time      0.0148
    --------------------------------------------
      LOOP:  cpu time    123.3275: real time    123.4578

 eigenvalue-minimisations  :  4032
 total energy-change (2. order) :-0.2400913E-03  (-0.9807907E-04)
 number of electron     339.9999999 magnetization 
 augmentation part      -16.1291336 magnetization 

 Broyden mixing:
  rms(total) = 0.42400E-02    rms(broyden)= 0.53619E-01
  rms(prec ) = 0.67936E-02
  weight for this iteration     100.00
  WARNING: grid for Broyden might be to small

 eigenvalues of (default mixing * dielectric matrix)
  average eigenvalue GAMMA=   0.9498
  2.5557  1.5489  0.9252  0.6660  0.6295  0.5789  0.3472  0.3472

 Free energy of the ion-electron system (eV)
  ---------------------------------------------------
  alpha Z        PSCENC =       114.66540264
  Ewald energy   TEWEN  =     -5525.48796846
  -Hartree energ DENC   =     -3453.68748182
  -exchange      EXHF   =         0.00000000
  -V(xc)+E(xc)   XCENC  =      -254.35479213
  PAW double counting   =     47571.96294952   -46814.93251968
  entropy T*S    EENTRO =        -0.11593528
  eigenvalues    EBANDS =      -776.27991816
  atomic energy  EATOM  =      8282.66055418
  Solvation  Ediel_sol  =         0.00000000
  ---------------------------------------------------
  free energy    TOTEN  =      -855.56970920 eV

  energy without entropy =     -855.45377392  energy(sigma->0) =     -855.51174156


--------------------------------------------------------------------------------------------------------




--------------------------------------- Iteration      1(  10)  ---------------------------------------


    POTLOK:  cpu time      0.7029: real time      0.7298
    SETDIJ:  cpu time      1.4038: real time      1.4054
    EDDIAG:  cpu time     19.0773: real time     19.0938
     EDDAV:  cpu time     95.6761: real time     95.7631
       DOS:  cpu time      0.0049: real time      0.0049
    CHARGE:  cpu time      8.3854: real time      8.3934
    MIXING:  cpu time      0.0151: real time      0.0151
    --------------------------------------------
      LOOP:  cpu time    125.2653: real time    125.4053

 eigenvalue-minimisations  :  4152
 total energy-change (2. order) : 0.3548084E-05  (-0.2303793E-04)
 number of electron     339.9999999 magnetization 
 augmentation part      -16.1292071 magnetization 

 Broyden mixing:
  rms(total) = 0.17223E-02    rms(broyden)= 0.37071E-01
  rms(prec ) = 0.27137E-02
  weight for this iteration     100.00
  WARNING: grid for Broyden might be to small

 eigenvalues of (default mixing * dielectric matrix)
  average eigenvalue GAMMA=   1.0509
  2.6958  2.3111  1.0622  0.8435  0.6435  0.6435  0.5677  0.3455  0.3455

 Free energy of the ion-electron system (eV)
  ---------------------------------------------------
  alpha Z        PSCENC =       114.66540264
  Ewald energy   TEWEN  =     -5525.48796846
  -Hartree energ DENC   =     -3453.73106057
  -exchange      EXHF   =         0.00000000
  -V(xc)+E(xc)   XCENC  =      -254.36599185
  PAW double counting   =     47594.28590776   -46837.25318759
  entropy T*S    EENTRO =        -0.11613301
  eigenvalues    EBANDS =      -776.22722875
  atomic energy  EATOM  =      8282.66055418
  Solvation  Ediel_sol  =         0.00000000
  ---------------------------------------------------
  free energy    TOTEN  =      -855.56970565 eV

  energy without entropy =     -855.45357265  energy(sigma->0) =     -855.51163915


--------------------------------------------------------------------------------------------------------




--------------------------------------- Iteration      1(  11)  ---------------------------------------


    POTLOK:  cpu time      0.7061: real time      0.7281
    SETDIJ:  cpu time      1.4037: real time      1.4042
    EDDIAG:  cpu time     19.0188: real time     19.0351
     EDDAV:  cpu time     93.3029: real time     93.3838
       DOS:  cpu time      0.0052: real time      0.0052
    CHARGE:  cpu time      8.3827: real time      8.3902
    MIXING:  cpu time      0.0152: real time      0.0152
    --------------------------------------------
      LOOP:  cpu time    122.8345: real time    122.9618

 eigenvalue-minimisations  :  3968
 total energy-change (2. order) :-0.1719775E-04  (-0.7178999E-05)
 number of electron     339.9999999 magnetization 
 augmentation part      -16.1292083 magnetization 

 Broyden mixing:
  rms(total) = 0.67252E-03    rms(broyden)= 0.12661E-01
  rms(prec ) = 0.93873E-03
  weight for this iteration     100.00
  WARNING: grid for Broyden might be to small

 eigenvalues of (default mixing * dielectric matrix)
  average eigenvalue GAMMA=   1.1021
  2.9232  2.5569  1.2148  0.9997  0.7831  0.6412  0.6257  0.5817  0.3410  0.3540

 Free energy of the ion-electron system (eV)
  ---------------------------------------------------
  alpha Z        PSCENC =       114.66540264
  Ewald energy   TEWEN  =     -5525.48796846
  -Hartree energ DENC   =     -3453.74525942
  -exchange      EXHF   =         0.00000000
  -V(xc)+E(xc)   XCENC  =      -254.36659148
  PAW double counting   =     47589.42273480   -46832.38796559
  entropy T*S    EENTRO =        -0.11627721
  eigenvalues    EBANDS =      -776.21435231
  atomic energy  EATOM  =      8282.66055418
  Solvation  Ediel_sol  =         0.00000000
  ---------------------------------------------------
  free energy    TOTEN  =      -855.56972285 eV

  energy without entropy =     -855.45344564  energy(sigma->0) =     -855.51158425


--------------------------------------------------------------------------------------------------------




--------------------------------------- Iteration      1(  12)  ---------------------------------------


    POTLOK:  cpu time      0.7151: real time      0.7292
    SETDIJ:  cpu time      1.4054: real time      1.4060
    EDDIAG:  cpu time     19.0578: real time     19.0741
     EDDAV:  cpu time    102.7557: real time    102.8476
       DOS:  cpu time      0.0045: real time      0.0045
    CHARGE:  cpu time      8.5345: real time      8.5422
    MIXING:  cpu time      0.0155: real time      0.0155
    --------------------------------------------
      LOOP:  cpu time    132.4884: real time    132.6190

 eigenvalue-minimisations  :  4640
 total energy-change (2. order) :-0.6701470E-05  (-0.1087251E-05)
 number of electron     339.9999999 magnetization 
 augmentation part      -16.1292549 magnetization 

 Broyden mixing:
  rms(total) = 0.35506E-03    rms(broyden)= 0.16789E-01
  rms(prec ) = 0.57539E-03
  weight for this iteration     100.00
  WARNING: grid for Broyden might be to small

 eigenvalues of (default mixing * dielectric matrix)
  average eigenvalue GAMMA=   1.1500
  3.2840  2.6033  1.5848  0.9667  0.9667  0.3401  0.3556  0.7102  0.6412  0.5850
  0.6120

 Free energy of the ion-electron system (eV)
  ---------------------------------------------------
  alpha Z        PSCENC =       114.66540264
  Ewald energy   TEWEN  =     -5525.48796846
  -Hartree energ DENC   =     -3453.73843415
  -exchange      EXHF   =         0.00000000
  -V(xc)+E(xc)   XCENC  =      -254.36933323
  PAW double counting   =     47586.60135424   -46829.56569270
  entropy T*S    EENTRO =        -0.11624966
  eigenvalues    EBANDS =      -776.21936242
  atomic energy  EATOM  =      8282.66055418
  Solvation  Ediel_sol  =         0.00000000
  ---------------------------------------------------
  free energy    TOTEN  =      -855.56972955 eV

  energy without entropy =     -855.45347989  energy(sigma->0) =     -855.51160472


--------------------------------------------------------------------------------------------------------




--------------------------------------- Iteration      1(  13)  ---------------------------------------


    POTLOK:  cpu time      0.7063: real time      0.7300
    SETDIJ:  cpu time      1.4119: real time      1.4133
    EDDIAG:  cpu time     19.0362: real time     19.0520
     EDDAV:  cpu time     84.3857: real time     84.4615
       DOS:  cpu time      0.0044: real time      0.0044
    CHARGE:  cpu time      8.4334: real time      8.4416
    MIXING:  cpu time      0.0159: real time      0.0159
    --------------------------------------------
      LOOP:  cpu time    113.9938: real time    114.1188

 eigenvalue-minimisations  :  3328
 total energy-change (2. order) :-0.1474909E-05  (-0.3191653E-06)
 number of electron     339.9999999 magnetization 
 augmentation part      -16.1292944 magnetization 

 Broyden mixing:
  rms(total) = 0.14339E-03    rms(broyden)= 0.41029E-02
  rms(prec ) = 0.21282E-03
  weight for this iteration     100.00
  WARNING: grid for Broyden might be to small

 eigenvalues of (default mixing * dielectric matrix)
  average eigenvalue GAMMA=   1.1710
  3.5078  2.6010  1.7238  1.1522  1.0484  0.8316  0.3404  0.3552  0.6711  0.6247
  0.6247  0.5715

 Free energy of the ion-electron system (eV)
  ---------------------------------------------------
  alpha Z        PSCENC =       114.66540264
  Ewald energy   TEWEN  =     -5525.48796846
  -Hartree energ DENC   =     -3453.73050657
  -exchange      EXHF   =         0.00000000
  -V(xc)+E(xc)   XCENC  =      -254.37474672
  PAW double counting   =     47585.70522809   -46828.66940991
  entropy T*S    EENTRO =        -0.11623180
  eigenvalues    EBANDS =      -776.22205249
  atomic energy  EATOM  =      8282.66055418
  Solvation  Ediel_sol  =         0.00000000
  ---------------------------------------------------
  free energy    TOTEN  =      -855.56973103 eV

  energy without entropy =     -855.45349923  energy(sigma->0) =     -855.51161513


[...]
   -.707E+01 0.960E+02 -.207E+02   0.595E+01 -.932E+02 0.214E+02   0.511E+00 -.298E+01 -.157E+01   0.122E-04 -.488E-03 0.246E-05
   0.758E+02 0.452E+02 -.189E+02   -.756E+02 -.452E+02 0.163E+02   -.403E+00 0.385E+00 0.247E+01   -.210E-03 -.477E-04 0.118E-04
   0.421E+02 -.337E+02 -.138E+02   -.409E+02 0.324E+02 0.128E+02   -.687E+00 0.171E+01 0.576E+00   0.691E-04 0.569E-03 -.221E-04
   0.281E+02 -.330E+02 0.496E+01   -.277E+02 0.334E+02 -.453E+01   -.802E+00 0.178E+00 -.420E-01   -.183E-03 0.525E-03 -.205E-03
   -.133E+02 -.177E+02 -.968E+01   0.138E+02 0.189E+02 0.831E+01   -.735E+00 -.168E+01 0.295E+00   0.769E-04 0.757E-04 -.401E-04
   -.477E+02 -.450E+02 -.102E+02   0.471E+02 0.479E+02 0.985E+01   -.441E+00 -.320E+01 0.295E+00   -.993E-04 0.704E-04 -.948E-04
   -.371E+02 0.350E+01 -.262E+01   0.350E+02 -.274E+01 0.112E+01   0.269E+01 -.736E+00 0.117E+01   -.527E-03 0.385E-03 0.106E-05
   -.949E+01 0.705E+02 -.504E+01   0.921E+01 -.702E+02 0.543E+01   -.659E+00 -.712E+00 0.103E+00   -.478E-04 -.201E-03 0.109E-03
   -.295E+02 -.199E+01 0.176E+02   0.298E+02 0.243E+01 -.161E+02   0.126E+00 -.573E+00 -.167E+01   0.288E-04 -.261E-03 0.631E-04
   -.272E+02 -.594E+02 0.107E+02   0.292E+02 0.614E+02 -.115E+02   -.139E+01 -.141E+01 -.427E+00   -.179E-03 -.827E-05 0.305E-04
   0.497E+00 -.313E+00 0.423E+01   0.629E+00 -.140E+01 -.457E+01   0.147E+00 0.410E+01 0.143E+01   0.457E-05 -.442E-03 -.536E-04
   0.190E+02 0.770E+02 -.145E+02   -.168E+02 -.744E+02 0.111E+02   -.249E+01 -.231E+01 0.424E+01   -.292E-04 -.423E-03 -.576E-04
   -.539E+02 0.398E+02 0.136E+02   0.519E+02 -.407E+02 -.126E+02   0.252E+01 0.148E+01 -.877E+00   -.503E-04 -.212E-03 -.161E-04
   0.212E+02 0.750E+02 0.235E+02   -.205E+02 -.731E+02 -.230E+02   0.796E-02 -.166E+01 -.112E+01   0.135E-03 -.392E-03 -.808E-04
   -.181E+02 0.656E+02 0.352E+02   0.163E+02 -.659E+02 -.338E+02   0.159E+01 0.133E+01 -.142E+01   -.783E-04 -.130E-03 -.556E-04
   0.533E+02 -.276E+02 0.253E+02   -.523E+02 0.285E+02 -.245E+02   -.107E+01 -.173E+01 -.141E+01   -.186E-03 -.571E-03 0.285E-03
   -.359E+01 0.374E+02 0.422E+01   0.681E+01 -.374E+02 -.391E+01   -.316E+01 -.387E+00 -.475E+00   -.172E-03 -.176E-03 0.115E-03
   -.451E+02 -.622E+01 0.148E+01   0.453E+02 0.405E+01 -.189E+01   -.148E+00 0.262E+01 0.839E+00   -.168E-03 0.149E-03 0.442E-04
   0.407E+02 -.215E+02 -.200E+01   -.408E+02 0.227E+02 0.270E+01   0.694E-01 -.156E+01 -.693E+00   0.251E-03 0.162E-03 -.283E-03
   -.283E+02 -.146E+02 0.624E+01   0.282E+02 0.147E+02 -.641E+01   -.867E+00 0.287E+00 0.383E+00   -.496E-04 -.209E-03 0.543E-04
   0.475E+02 0.598E+02 -.268E+02   -.465E+02 -.611E+02 0.253E+02   -.142E+01 0.129E+01 0.188E+01   -.143E-04 -.535E-03 0.884E-04
   0.786E+02 -.627E+01 0.824E+01   -.757E+02 0.696E+01 -.790E+01   -.322E+01 -.116E+01 0.377E+00   -.238E-03 0.890E-03 0.418E-03
   -.635E+01 -.562E+01 -.865E+01   0.426E+01 0.532E+01 0.725E+01   0.203E+01 0.938E+00 0.150E+01   0.177E-03 -.397E-03 0.114E-04
 -----------------------------------------------------------------------------------------------
   -.220E+01 0.168E+02 -.150E+01   -.941E-13 -.115E-13 0.737E-13   0.222E+01 -.168E+02 0.152E+01   -.772E-03 -.455E-02 0.141E-02


 POSITION                                       TOTAL-FORCE (eV/Angst)
 -----------------------------------------------------------------------------------
      1.66772     12.53740      7.68855         1.069995      0.184203     -0.752173
      5.03142     11.44350      0.96637        -0.257488     -0.411475     -0.178820
      0.37528     10.64850      6.65431        -0.110897     -0.088403     -0.051804
     14.09160      8.07173      2.18430         0.007413     -0.038009     -0.018166
      2.38731     12.29490      1.63026         0.280440      1.388420     -0.097560
     14.40300      6.24821      4.15940        -0.248363     -0.104457      0.304540
     13.92020      7.04469      9.50577         0.154777      0.226167     -0.016850
     13.89270      8.00855      5.98948         0.143229      0.807933     -0.059591
     14.02510      8.75990      5.92579        -0.168140     -0.786700      0.074442
      1.38993      9.17603      4.47556        -0.822448     -0.706624     -0.541221
      3.13327     10.52450      8.09551        -0.420656     -0.734340     -0.843775
     12.67620      6.00889      0.47464         0.175057     -0.248216     -0.094732
      2.79091      6.17514      8.75021         0.374121      0.037156     -0.431887
     12.10590      9.91647      3.34283         0.544402     -0.221969      0.560715
      0.55960     11.12310      7.19167        -0.107570     -0.096005     -0.040385
      0.28150     13.03520      8.63111        -0.989464      0.346127      0.060992
      1.10031     11.62220      9.72252         0.624020     -0.525325     -0.320335
     14.28730      6.40940      9.44469         0.271872      0.041623     -0.024286
      4.52610      8.82037      8.87891         0.775324     -0.311952     -0.401219
      2.90860      8.74889      2.27081         3.134504      0.049856     -1.315386
      1.66393     11.25260      9.35649        -0.639212      0.276412      0.515924
     13.53640      8.56586      2.16938         0.027327     -0.035911      0.032870
     13.99710     11.41890      3.95211         1.048482      0.915384      0.158756
      3.23773      8.23311      4.98089        -0.984609      0.873412     -0.024611
      2.29096      8.74597      2.52704        -3.093503      0.062497      1.248613
      2.30423     12.55710      7.24743        -0.683966      0.055385      0.499301
     13.23600      9.10846     10.16043        -0.040125      0.383475     -0.620748
     13.88170      6.44141      7.28307         0.087597     -1.141513     -0.298546
      2.79250     10.06220      7.57383         0.466809      0.607466      0.743122
     12.75040     12.88450      2.59069         0.216186      0.179034     -0.402344
     13.48480     10.92710      3.91225        -0.723176     -0.790936      0.029151
     13.10400      9.41108      9.45580         0.195959     -0.324030      0.778616
      3.02330      8.57180      9.68913        -0.163401     -0.095265     -0.485024
      0.88361      8.69614      4.13413         0.730565      0.797415      0.573229
     11.65610     11.29150      1.48853         0.447291      0.331059     -0.797043
      2.97708      8.66409      0.24495        -0.216519      0.063796      0.649045
      5.31271      0.99793      8.08217         0.273794     -0.780644      0.490703
     11.78990      4.94402      3.18231        -0.216073     -1.028614      0.504064
      7.86539     11.57570      8.57076         0.030121     -0.071205      0.341017
      9.52817      6.17197      6.74795        -0.915239      0.735051     -0.110120
      4.58217      6.31101      2.77614         0.818555      0.569000     -0.968707
      9.52176      2.24115      9.42101        -1.800741      0.188627     -0.884714
      6.36435      2.70478      3.92820         0.042477      0.146615      0.337210
      5.39135      4.30513      9.04913         0.414085      0.531940      0.044093
     11.08910     10.37660      2.44206        -1.477323     -0.667410     -0.491257
      8.07985      5.66951      3.09290         0.814865      0.447000     -0.282760
      9.89955      8.35730      9.51256         0.332612      0.458017     -1.384446
     11.86220      0.78748      6.31418         0.788165      0.113464     -1.042702
      7.89026      1.88223      0.97232         0.462854      0.385557     -0.472723
      2.00437      3.35392      8.17895         0.547855      0.357377     -0.537448
      8.38576      3.26436      2.85642        -0.265696      0.091369      0.471850
      9.01607     14.45070      1.31317         0.236849     -0.402401      1.616703
      8.66445     14.45720      6.26006        -0.518086     -1.158948     -0.972684
      7.30803     10.83780      3.04971        -0.015304     -0.775824      0.381399
     10.00420     11.40950      7.44892        -0.414491      0.932860      0.442313
     10.49650      0.23185      9.74090         1.417510     -0.788748     -0.980896
      6.24483      7.86699      6.00824        -0.191131      0.751071     -0.057611
      6.56747      6.89269      1.66224        -0.018785     -0.305092      0.740155
      3.33544      1.53197      5.35155        -0.076285     -0.154190      0.114949
      2.17782      2.60688      0.09419         0.407063     -0.580727      1.593896
     11.46300      9.66035      7.77403        -0.583814     -1.663960      0.010335
     13.48710      5.00657      6.83549        -0.770976      1.130309      1.395538
      5.77719      1.01312      0.38234        -0.328861      1.014375      0.110122
      3.48717      5.13088      7.89732        -0.541328     -0.236630      0.515035
     10.26470      4.41511      9.65798         0.678432      0.519339      0.333440
      6.33528     13.96950      6.53245        -0.153507      0.044691     -0.511815
      0.85091      3.52125      3.89500        -0.738272     -0.717426     -0.460812
      0.42354      2.64349      1.68957         2.011650     -0.452600      0.955158
     13.37160      2.71773      0.13573        -0.320677      1.420271     -0.639998
      6.04612     11.66760      6.91330         0.326970      0.072434      0.382041
      4.28966      7.29812      4.83438         1.423827      0.144171     -0.154961
      7.49445      5.91676      5.33562         0.380795     -0.178144      1.114577
      5.82953      8.18547      8.44462         1.045527      0.030897     -0.573276
     10.42730      6.85911      3.46326        -0.917468      0.096430     -0.434615
     13.09430     14.31070      2.27333         0.078380      0.140256      0.969530
     10.62300     13.77520      7.45255        -1.127959     -0.731925      0.638049
      5.40044      0.59072      4.58721        -0.417966      0.021864     -0.979396
      3.85985      5.29572      5.61733         0.101765     -0.586047      1.721302
      4.44699      3.02951      0.56743         0.148690     -0.330127      0.559141
      5.91841      4.15538      5.68375         0.581390      0.386940     -0.210970
     11.24170      4.82501      7.58263         0.128833     -0.957682     -1.579828
      9.95946      8.38068      1.62990         0.452789      1.072146      1.467209
     14.29340      3.18179      8.06273        -0.198319     -0.780897     -0.753571
      2.65086     13.86180      1.51648        -0.453910     -1.078415      0.301718
     14.47650     14.50040      8.83101         0.015584     -1.329308     -0.769003
      7.66616     12.88610      0.46165        -0.432751     -0.843081     -1.404991
      4.91517      4.04904      2.64533        -1.211379     -1.140297      0.222771
      1.97436      0.29310      9.61837         1.063350      0.986358      0.693822
     10.50990      8.09584      5.63402        -0.556618     -0.060452      0.233805
      0.80303      0.44656      2.65352        -0.593447     -0.325671     -0.921885
      5.95784     12.20190      1.81061        -0.250056      0.355371     -0.161417
      7.62955      8.94955      1.63446         0.486291      0.452973     -0.435583
      7.73186      9.33462      9.39002        -0.453753      0.602640      0.403140
      8.92376      6.30229      9.11573        -0.307718     -0.582179     -1.076999
     12.19670      4.67438      0.89120        -1.064518     -0.467339     -0.088449
      9.19561     10.16050      5.59856         0.803372      0.014482     -0.267107
     12.76560      0.50384      0.08735        -0.952027     -0.413527      0.504880
     10.51650      2.97814      3.92966         0.453046     -0.170312     -0.193625
     13.71170      4.96166      4.57284         0.553958      0.574112     -1.174008
      8.55048      1.90587      7.14667         1.287498      2.600249      1.192421
      1.07388      1.29686      4.75281        -0.445575      0.211481      1.037158
     11.41360      0.63338      3.89268         0.620723      0.674812      0.038571
      3.01664      1.28616      7.75109         0.752956      0.140273     -0.660736
     14.17340      0.99545      6.77133        -0.132245      1.191780      0.009905
      3.13956      3.68639      4.27850        -0.106853     -0.910169     -0.538135
      9.45084     13.96460      3.83956        -0.032694     -0.469145     -0.212903
      9.47756     11.52770      3.64121        -0.026021      0.552164      0.486484
      6.59539      6.29099      9.58246        -0.063839     -0.453451     -0.016108
     10.66710      2.83878      6.30975        -1.086117      0.307015      0.213711
      4.98062     14.28160      2.21861        -0.531294      0.007330      0.481645
      6.90175     10.13370      5.27874        -0.393878     -0.520541      0.743825
      6.46135      2.88332      7.49832         0.014531      0.674318      0.179763
 -----------------------------------------------------------------------------------
    total drift:                                0.015929     -0.003238      0.018482


--------------------------------------------------------------------------------------------------------



  FREE ENERGIE OF THE ION-ELECTRON SYSTEM (eV)
  ---------------------------------------------------
  free  energy   TOTEN  =      -855.56973143 eV

  energy  without entropy=     -855.45348192  energy(sigma->0) =     -855.51160667



--------------------------------------------------------------------------------------------------------


    POTLOK:  cpu time      2.0927: real time      2.1585


--------------------------------------------------------------------------------------------------------


     LOOP+:  cpu time   1907.7017: real time   1909.7388
    4ORBIT:  cpu time      0.0000: real time      0.0000



 total charge

# of ion       s       p       d       tot
------------------------------------------
    1        0.593   0.030   0.000   0.623
    2        0.575   0.016   0.000   0.592
    3        0.619   0.032   0.000   0.651
    4        0.612   0.032   0.000   0.644
    5        0.526   0.011   0.000   0.537
    6        0.557   0.014   0.000   0.571
    7        0.620   0.034   0.000   0.654
    8        0.597   0.030   0.000   0.627
    9        0.600   0.029   0.000   0.629
   10        0.593   0.028   0.000   0.621
   11        0.590   0.028   0.000   0.618
   12        0.569   0.017   0.000   0.587
   13        0.552   0.014   0.000   0.566
   14        0.599   0.018   0.000   0.618
   15        0.615   0.034   0.000   0.648
   16        0.556   0.015   0.000   0.571
   17        0.599   0.029   0.000   0.629
   18        0.622   0.034   0.000   0.656
   19        0.547   0.016   0.000   0.563
   20        0.677   0.047   0.000   0.724
   21        0.597   0.030   0.000   0.627
   22        0.612   0.032   0.000   0.645
   23        0.642   0.038   0.000   0.679
   24        0.599   0.019   0.000   0.619
   25        0.671   0.048   0.000   0.719
   26        0.596   0.028   0.000   0.624
   27        0.588   0.027   0.000   0.615
   28        0.540   0.013   0.000   0.554
   29        0.592   0.028   0.000   0.620
   30        0.561   0.016   0.000   0.577
   31        0.637   0.040   0.000   0.676
   32        0.587   0.030   0.000   0.617
   33        0.629   0.036   0.000   0.666
   34        0.591   0.028   0.000   0.619
   35        0.595   0.018   0.000   0.612
   36        0.629   0.036   0.000   0.664
   37        0.762   0.901   0.000   1.663
   38        0.744   0.928   0.000   1.672
   39        0.757   0.877   0.000   1.634
   40        0.755   0.889   0.000   1.644
   41        0.791   0.888   0.000   1.679
   42        0.759   0.940   0.000   1.699
   43        0.759   0.934   0.000   1.693
   44        0.751   0.947   0.000   1.698
   45        0.743   1.029   0.000   1.773
   46        0.770   0.862   0.000   1.632
   47        0.765   0.902   0.000   1.668
   48        0.753   0.928   0.000   1.680
   49        0.757   0.931   0.000   1.688
   50        0.758   1.012   0.000   1.771
   51        0.750   0.907   0.000   1.657
   52        0.762   0.941   0.000   1.702
   53        0.761   0.915   0.000   1.676
   54        0.751   0.943   0.000   1.694
   55        0.758   0.909   0.000   1.667
   56        0.759   0.942   0.000   1.701
   57        0.747   0.890   0.000   1.636
   58        0.752   0.943   0.000   1.695
   59        0.755   0.912   0.000   1.667
   60        0.765   0.958   0.000   1.723
   61        0.865   0.705   0.000   1.570
   62        0.736   0.973   0.000   1.709
   63        0.752   0.896   0.000   1.647
   64        0.744   0.972   0.000   1.716
   65        0.753   0.944   0.000   1.697
   66        0.755   0.879   0.000   1.634
   67        0.756   0.933   0.000   1.689
   68        0.756   0.949   0.000   1.706
   69        0.747   0.957   0.000   1.704
   70        0.802   0.827   0.000   1.630
   71        0.745   1.049   0.000   1.794
   72        0.755   0.896   0.000   1.651
   73        0.736   0.935   0.000   1.671
   74        0.760   0.845   0.000   1.605
   75        0.742   0.933   0.000   1.675
   76        0.757   0.887   0.000   1.644
   77        0.754   0.864   0.000   1.618
   78        0.757   1.030   0.000   1.787
   79        0.752   0.949   0.000   1.701
   80        0.759   0.965   0.000   1.723
   81        0.761   0.934   0.000   1.694
   82        0.753   0.924   0.000   1.677
   83        0.750   0.915   0.000   1.665
   84        0.738   0.888   0.000   1.626
   85        0.745   0.999   0.000   1.744
   86        0.792   0.878   0.000   1.670
   87        0.758   0.924   0.000   1.682
   88        0.759   0.948   0.000   1.707
   89        0.772   0.817   0.000   1.589
   90        0.753   0.922   0.000   1.675
   91        0.745   1.017   0.000   1.762
   92        0.756   0.925   0.000   1.680
   93        0.756   0.907   0.000   1.663
   94        0.755   0.920   0.000   1.675
   95        0.740   0.958   0.000   1.698
   96        0.763   0.911   0.000   1.673
   97        0.747   0.983   0.000   1.730
   98        0.752   0.886   0.000   1.637
   99        0.737   0.990   0.000   1.727
  100        0.755   0.945   0.000   1.700
  101        0.756   0.915   0.000   1.672
  102        0.756   0.877   0.000   1.633
  103        0.755   0.917   0.000   1.672
  104        0.751   0.890   0.000   1.641
  105        0.765   0.939   0.000   1.704
  106        0.760   0.845   0.000   1.604
  107        0.753   0.929   0.000   1.682
  108        0.748   0.949   0.000   1.697
  109        0.762   0.891   0.000   1.652
  110        0.751   0.882   0.000   1.633
  111        0.758   0.910   0.000   1.668
  112        0.748   0.984   0.000   1.732
--------------------------------------------------
tot         78.996  71.112   0.000 150.108


 total amount of memory used by VASP MPI-rank0   186041. kBytes
=======================================================================

   base                                    :      30000. kBytes
   nonl-proj                               :      35932. kBytes
   fftplans                                :      40941. kBytes
   grid                                    :      31575. kBytes
   one-center                              :         21. kBytes
   wavefun                                 :      47572. kBytes

  
  
 General timing and accounting informations for this job:
 ========================================================
  
                  Total CPU time used (sec):     1976.408
                            User time (sec):     1969.034
                          System time (sec):        7.374
                         Elapsed time (sec):     1978.415
  
                   Maximum memory used (kb):      350740.
                   Average memory used (kb):          N/A
  
                          Minor page faults:       259959
                          Major page faults:         1161
                 Voluntary context switches:         2577
