 vasp.6.5.0 16Dec24 (build Jan 20 2025 08:32:48) complex                         
 executed on        HPECrayEX_GCC date 2025.07.29  00:13:37
 running  128 mpi-ranks, with    1 threads/rank, on    1 nodes
 distrk:  each k-point on  128 cores,    1 groups
 distr:  one band on NCORE=  16 cores,    8 groups


--------------------------------------------------------------------------------------------------------


 INCAR:
   SYSTEM = a-Si SPC
   NCORE = 16
   ISTART = 1
   ICHARG = 1
   ISPIN = 1
   ISYM = 1
   EDIFF = 1E-6
   NELM = 150
   EDIFFG = -0.01
   NSW = 0
   ISIF = 2
   IBRION = -1
   PREC = Accurate
   ENCUT = 1200
   KSPACING = 0.23
   KGAMMA = .TRUE.
   METAGGA = SCAN
   LASPH = .TRUE.
   LDIAG = .FALSE.
   LMIXTAU = .TRUE.
   ADDGRID = .TRUE.
   ALGO = Normal
   ISMEAR = 0
   SIGMA = 0.1
   LORBIT = 11
   NEDOS = 2000
   LWAVE = .FALSE.
   LCHARG = .FALSE.

 POTCAR:    PAW_PBE H 15Jun2001                   
 POTCAR:    PAW_PBE Si 05Jan2001                  
 POTCAR:    PAW_PBE H 15Jun2001                   
   SHA256 =  030f79b5d3ab3cf0e668861823c8fb652ff669f3e15e46930bd03bfd63a607b6 H/POTCAR              
   COPYR  = (c) Copyright 15Jun2001 Georg Kresse                                                    
   COPYR  = This file is part of the software VASP. Any use, copying, and all other rights are regul
   COPYR  = If you do not have a valid VASP license, you may not use, copy or distribute this file. 
   VRHFIN =H: ultrasoft test                                                                        
   LEXCH  = PE                                                                                      
   EATOM  =    12.4884 eV,    0.9179 Ry                                                             
                                                                                                    
   TITEL  = PAW_PBE H 15Jun2001                                                                     
   LULTRA =        F    use ultrasoft PP ?                                                          
   IUNSCR =        0    unscreen: 0-lin 1-nonlin 2-no                                               
   RPACOR =    0.000    partial core radius                                                         
   POMASS =    1.000; ZVAL   =    1.000    mass and valenz                                          
   RCORE  =    1.100    outmost cutoff radius                                                       
   RWIGS  =    0.700; RWIGS  =    0.370    wigner-seitz radius (au A)                               
   ENMAX  =  250.000; ENMIN  =  200.000 eV                                                          
   RCLOC  =    0.701    cutoff for local pot                                                        
   LCOR   =        T    correct aug charges                                                         
   LPAW   =        T    paw PP                                                                      
   EAUG   =  400.000                                                                                
   RMAX   =    1.123    core radius for proj-oper                                                   
   RAUG   =    1.200    factor for augmentation sphere                                              
   RDEP   =    1.112    radius for radial grids                                                     
   RDEPT  =    0.926    core radius for aug-charge                                                  
                                                                                                    
   Atomic configuration                                                                             
    2 entries                                                                                       
     n  l   j            E        occ.                                                              
     1  0  0.50        -6.4927   1.0000                                                             
     2  1  0.50        -3.4015   0.0000                                                             
   Description                                                                                      
     l       E           TYP  RCUT    TYP  RCUT                                                     
     0     -6.4927494     23  1.100                                                                 
     0      6.8029130     23  1.100                                                                 
     1     -4.0817478     23  1.100                                                                 
  local pseudopotential read in
  atomic valenz-charges read in
  non local Contribution for L=           0  read in
    real space projection operators read in
  non local Contribution for L=           0  read in
    real space projection operators read in
  non local Contribution for L=           1  read in
    real space projection operators read in
    PAW grid and wavefunctions read in

   number of l-projection  operators is LMAX  =           3
   number of lm-projection operators is LMMAX =           5

 POTCAR:    PAW_PBE Si 05Jan2001                  
   SHA256 =  79d9987ad8750f624c4d6acb2a16d13abf6a777132adc04dc6c8399be72b42bb Si/POTCAR             
   COPYR  = (c) Copyright 05Jan2001 Georg Kresse                                                    
   COPYR  = This file is part of the software VASP. Any use, copying, and all other rights are regul
   COPYR  = If you do not have a valid VASP license, you may not use, copy or distribute this file. 
   VRHFIN =Si: s2p2                                                                                 
   LEXCH  = PE                                                                                      
   EATOM  =   103.0669 eV,    7.5752 Ry                                                             
                                                                                                    
   TITEL  = PAW_PBE Si 05Jan2001                                                                    
   LULTRA =        F    use ultrasoft PP ?                                                          
   IUNSCR =        1    unscreen: 0-lin 1-nonlin 2-no                                               
   RPACOR =    1.500    partial core radius                                                         
   POMASS =   28.085; ZVAL   =    4.000    mass and valenz                                          
   RCORE  =    1.900    outmost cutoff radius                                                       
   RWIGS  =    2.480; RWIGS  =    1.312    wigner-seitz radius (au A)                               
   ENMAX  =  245.345; ENMIN  =  184.009 eV                                                          
   ICORE  =        2    local potential                                                             
   LCOR   =        T    correct aug charges                                                         
   LPAW   =        T    paw PP                                                                      
   EAUG   =  322.069                                                                                
   DEXC   =    0.000                                                                                
   RMAX   =    1.950    core radius for proj-oper                                                   
   RAUG   =    1.300    factor for augmentation sphere                                              
   RDEP   =    1.993    radius for radial grids                                                     
   RDEPT  =    1.837    core radius for aug-charge                                                  
                                                                                                    
   Atomic configuration                                                                             
    6 entries                                                                                       
     n  l   j            E        occ.                                                              
     1  0  0.50     -1785.8828   2.0000                                                             
     2  0  0.50      -139.4969   2.0000                                                             
     2  1  1.50       -95.5546   6.0000                                                             
     3  0  0.50       -10.8127   2.0000                                                             
     3  1  0.50        -4.0811   2.0000                                                             
     3  2  1.50        -4.0817   0.0000                                                             
   Description                                                                                      
     l       E           TYP  RCUT    TYP  RCUT                                                     
     0    -10.8127223     23  1.900                                                                 
     0     -7.6451159     23  1.900                                                                 
     1     -4.0811372     23  1.900                                                                 
     1      2.4879257     23  1.900                                                                 
     2     -4.0817478      7  1.900                                                                 
  local pseudopotential read in
  partial core-charges read in
  partial kinetic energy density read in
  atomic valenz-charges read in
  non local Contribution for L=           0  read in
    real space projection operators read in
  non local Contribution for L=           0  read in
    real space projection operators read in
  non local Contribution for L=           1  read in
    real space projection operators read in
  non local Contribution for L=           1  read in
    real space projection operators read in
    PAW grid and wavefunctions read in

   number of l-projection  operators is LMAX  =           4
   number of lm-projection operators is LMMAX =           8

 -----------------------------------------------------------------------------
|                                                                             |
|               ----> ADVICE to this user running VASP <----                  |
|                                                                             |
|     You have a (more or less) 'large supercell' and for larger cells it     |
|     might be more efficient to use real-space projection operators.         |
|     Therefore, try LREAL= Auto in the INCAR file.                           |
|     Mind: For very accurate calculation, you might also keep the            |
|     reciprocal projection scheme (i.e. LREAL=.FALSE.).                      |
|                                                                             |
 -----------------------------------------------------------------------------

 -----------------------------------------------------------------------------
|                                                                             |
|               ----> ADVICE to this user running VASP <----                  |
|                                                                             |
|     You enforced a specific xc type in the INCAR file but a different       |
|     type was found in the POTCAR file.                                      |
|     I HOPE YOU KNOW WHAT YOU ARE DOING!                                     |
|                                                                             |
 -----------------------------------------------------------------------------

  PAW_PBE H 15Jun2001                   :
 energy of atom  1       EATOM=  -12.4884
 kinetic energy error for atom=    0.0000 (will be added to EATOM!!)
  PAW_PBE Si 05Jan2001                  :
 energy of atom  2       EATOM= -103.0669
 kinetic energy error for atom=    0.0001 (will be added to EATOM!!)


 POSCAR:  H Si
  positions in cartesian coordinates
  No initial velocities read in


 exchange-correlation table for SCAN
   RHO(1)=    0.500       N(1)  =     2000
   RHO(2)=  100.500       N(2)  =     4000



--------------------------------------------------------------------------------------------------------


 ion  position               nearest neighbor table
   1  0.532  0.649  0.628-  24 1.48
   2  0.492  0.078  0.492-  21 1.53
   3  0.455  0.590  0.397-  23 1.71  68 1.77
   4  0.901  0.087  0.462-  25 1.69  49 1.70
   5  0.082  0.292  0.514-  18 2.30  65 2.32  37 2.35  51 2.42
   6  0.874  0.912  0.603-  29 2.31  12 2.32   7 2.36  64 2.39
   7  0.727  0.869  0.632-   6 2.36  39 2.38  62 2.44
   8  0.045  0.025  0.535-  37 2.33  49 2.34  29 2.35  19 2.36
   9  0.611  0.813  0.419-  35 2.31  17 2.33  28 2.36
  10  0.412  0.380  0.425-  74 2.32  58 2.33  23 2.39  78 2.39
  11  0.992  0.888  0.412-  59 2.28  49 2.29  46 2.39
  12  0.829  0.916  0.522-  45 2.28  49 2.31  69 2.32   6 2.32
  13  0.153  0.115  0.418-  36 2.34  59 2.35  37 2.36  32 2.39
  14  0.189  0.780  0.495-  53 2.35  19 2.39  82 2.41  61 2.41  72 3.12
  15  0.249  0.716  0.390-  61 2.33  68 2.34  53 2.35
  16  0.602  0.191  0.368-  34 2.35  57 2.38  38 2.65  21 2.74
  17  0.643  0.963  0.443-  45 2.31   9 2.33  57 2.34  21 2.34
  18  0.929  0.277  0.534-   5 2.30  56 2.34  25 2.37  41 2.38
  19  0.110  0.880  0.550-  64 2.30  72 2.32   8 2.36  14 2.39
  20  0.846  0.270  0.399-  25 2.28  34 2.32  31 2.33
  21  0.536  0.083  0.442-   2 1.53  30 2.31  17 2.34  38 2.37  16 2.74  57 2.82
  22  0.819  0.515  0.387-  27 2.26  31 2.34  66 2.44
  23  0.504  0.488  0.381-   3 1.71  10 2.39  66 2.41
  24  0.567  0.674  0.580-   1 1.48  47 2.33  71 2.34  39 2.37
  25  0.856  0.193  0.471-   4 1.69  20 2.28  48 2.32  18 2.37
  26  0.298  0.122  0.510-  79 2.30  60 2.33  37 2.35  36 2.38
  27  0.851  0.665  0.401-  22 2.26  28 2.34  46 2.38
  28  0.719  0.703  0.446-  69 2.30  27 2.34   9 2.36  73 2.40
  29  0.932  0.059  0.593-  56 2.31   6 2.31   8 2.35
  30  0.416  0.029  0.395-  36 2.30  21 2.31  33 2.33
  31  0.909  0.406  0.428-  20 2.33  22 2.34  41 2.37  51 2.39
  32  0.150  0.269  0.389-  58 2.31  51 2.38  13 2.39
  33  0.375  0.916  0.450-  53 2.29  30 2.33  35 2.36  60 2.41
  34  0.691  0.307  0.405-  20 2.32  38 2.34  66 2.34  16 2.35
  35  0.473  0.787  0.457-   9 2.31  68 2.33  33 2.36  47 2.37
  36  0.312  0.135  0.425-  58 2.29  30 2.30  13 2.34  26 2.38
  37  0.138  0.141  0.502-   8 2.33  26 2.35   5 2.35  13 2.36
  38  0.607  0.225  0.463-  48 2.32  78 2.32  34 2.34  21 2.37  16 2.65
  39  0.721  0.728  0.588-  69 2.33  24 2.37   7 2.38  55 2.45
  40  0.722  0.230  0.589-  43 2.30  48 2.34  70 2.35  56 2.36
  41  0.892  0.432  0.513-  80 2.32  31 2.37  18 2.38  77 2.39
  42  0.281  0.594  0.569-  82 2.33  67 2.38  52 2.47  44 2.49
  43  0.601  0.135  0.608-  76 2.25  40 2.30  62 2.36
  44  0.383  0.469  0.599-  81 2.34  50 2.45  42 2.49
  45  0.699  0.004  0.518-  12 2.28  17 2.31  48 2.32  62 2.33
  46  0.986  0.730  0.435-  61 2.37  27 2.38  75 2.38  11 2.39
  47  0.466  0.778  0.543-  54 2.27  24 2.33  35 2.37  82 2.40
  48  0.720  0.162  0.512-  25 2.32  38 2.32  45 2.32  40 2.34
  49  0.942  0.979  0.474-   4 1.70  11 2.29  12 2.31   8 2.34
  50  0.522  0.413  0.558-  70 2.30  71 2.32  78 2.38  44 2.45
  51  0.069  0.376  0.439-  63 2.35  32 2.38  31 2.39   5 2.42
  52  0.132  0.522  0.550-  65 2.34  63 2.37  77 2.43  42 2.47
  53  0.235  0.862  0.426-  33 2.29  59 2.33  14 2.35  15 2.35
  54  0.489  0.930  0.558-  47 2.27  62 2.28  60 2.31
  55  0.826  0.597  0.594-  80 2.37  39 2.45  77 2.49  75 3.14
  56  0.880  0.207  0.606-  29 2.31  18 2.34  40 2.36
  57  0.710  0.079  0.396-  17 2.34  16 2.38  21 2.82
  58  0.308  0.277  0.389-  36 2.29  32 2.31  10 2.33
  59  0.126  0.962  0.393-  11 2.28  53 2.33  13 2.35
  60  0.346  0.974  0.531-  54 2.31  26 2.33  72 2.36  33 2.41
  61  0.134  0.661  0.442-  15 2.33  63 2.37  46 2.37  14 2.41
  62  0.624  0.978  0.592-  54 2.28  45 2.33  43 2.36   7 2.44
  63  0.152  0.505  0.465-  51 2.35  74 2.35  61 2.37  52 2.37
  64  0.989  0.800  0.585-  19 2.30  75 2.36   6 2.39
  65  0.145  0.371  0.579-  81 2.29   5 2.32  52 2.34
  66  0.662  0.466  0.405-  34 2.34  73 2.35  23 2.41  22 2.44
  67  0.378  0.576  0.500-  74 2.29  68 2.32  71 2.36  42 2.38  82 3.14
  68  0.382  0.665  0.430-   3 1.77  67 2.32  35 2.33  15 2.34
  69  0.790  0.762  0.514-  28 2.30  12 2.32  75 2.33  39 2.33
  70  0.669  0.383  0.584-  50 2.30  80 2.33  40 2.35
  71  0.533  0.558  0.524-  50 2.32  73 2.33  24 2.34  67 2.36
  72  0.254  0.891  0.586-  19 2.32  82 2.33  60 2.36  14 3.12
  73  0.664  0.557  0.475-  71 2.33  66 2.35  28 2.40  80 2.41
  74  0.302  0.446  0.474-  67 2.29  10 2.32  63 2.35  81 2.40
  75  0.942  0.710  0.518-  69 2.33  77 2.34  64 2.36  46 2.38  55 3.14
  76  0.477  0.227  0.615-  43 2.25  79 2.33
  77  0.969  0.561  0.548-  75 2.34  41 2.39  52 2.43  55 2.49
  78  0.485  0.311  0.493-  38 2.32  79 2.34  50 2.38  10 2.39
  79  0.384  0.236  0.546-  26 2.30  81 2.33  76 2.33  78 2.34
  80  0.753  0.491  0.540-  41 2.32  70 2.33  55 2.37  73 2.41
  81  0.294  0.369  0.551-  65 2.29  79 2.33  44 2.34  74 2.40
  82  0.305  0.750  0.555-  42 2.33  72 2.33  47 2.40  14 2.41  67 3.14

  LATTYP: Found a simple tetragonal cell.
 ALAT       =    14.5284224467
 C/A-ratio  =     1.8976651251
  
  Lattice vectors:
  
 A1 = (  14.5284224467,   0.0000000000,   0.0000000000)
 A2 = (   0.0000000000,  14.5284224467,   0.0000000000)
 A3 = (   0.0000000000,   0.0000000000,  27.5700806000)


Analysis of symmetry for initial positions (statically):
=====================================================================
 Subroutine PRICEL returns:
 Original cell was already a primitive cell.
 

 Routine SETGRP: Setting up the symmetry group for a 
 simple tetragonal supercell.


 Subroutine GETGRP returns: Found  1 space group operations
 (whereof  1 operations were pure point group operations)
 out of a pool of 16 trial point group operations.


The static configuration has the point symmetry C_1 .


Analysis of symmetry for dynamics (positions and initial velocities):
=====================================================================
 Subroutine PRICEL returns:
 Original cell was already a primitive cell.
 

 Routine SETGRP: Setting up the symmetry group for a 
 simple tetragonal supercell.


 Subroutine GETGRP returns: Found  1 space group operations
 (whereof  1 operations were pure point group operations)
 out of a pool of 16 trial point group operations.


The dynamic configuration has the point symmetry C_1 .


 Subroutine INISYM returns: Found  1 space group operations
 (whereof  1 operations are pure point group operations),
 and found     1 'primitive' translations


----------------------------------------------------------------------------------------

                                     Primitive cell                                     

  volume of cell :    5819.3564

  direct lattice vectors                    reciprocal lattice vectors
    14.528422447  0.000000000  0.000000000     0.068830598  0.000000000  0.000000000
     0.000000000 14.528422447  0.000000000     0.000000000  0.068830598  0.000000000
     0.000000000  0.000000000 27.570080600     0.000000000  0.000000000  0.036271203

  length of vectors
    14.528422447 14.528422447 27.570080600     0.068830598  0.068830598  0.036271203

  position of ions in fractional coordinates (direct lattice)
     0.532000049  0.648924110  0.628333071
     0.491853323  0.078246447  0.492463787
     0.455303250  0.590097089  0.396807848
     0.901414421  0.086875984  0.461517916
     0.082364450  0.291509197  0.513957819
     0.873735480  0.911947417  0.603202492
     0.727126332  0.868510415  0.631774294
     0.044727475  0.025419534  0.534516187
     0.611333271  0.812657297  0.418579683
     0.412195586  0.379815746  0.424500800
     0.992309625  0.887894449  0.411712128
     0.829002965  0.915823498  0.522306028
     0.152803194  0.114870085  0.418243220
     0.188719471  0.780222114  0.495016157
     0.248703651  0.715534866  0.390470872
     0.602079445  0.190973900  0.368409486
     0.642549479  0.962889263  0.442886302
     0.928995703  0.277350561  0.533739463
     0.109783818  0.879555784  0.550389773
     0.845842144  0.269758343  0.399187735
     0.535766074  0.083237006  0.441932836
     0.819225182  0.514750558  0.386813717
     0.504088612  0.487652760  0.380698665
     0.567335779  0.673753664  0.579534301
     0.856337871  0.192573441  0.471155181
     0.297981657  0.121614985  0.510497793
     0.850787757  0.664805510  0.401369906
     0.719377339  0.702975500  0.446040675
     0.932486036  0.058716096  0.593367409
     0.416303821  0.029275364  0.394621720
     0.908800046  0.406148311  0.428354691
     0.149674659  0.269393514  0.388794088
     0.375324706  0.915999217  0.450491215
     0.690652171  0.307182995  0.404820152
     0.472719217  0.787035796  0.457290535
     0.312491868  0.134578419  0.424605564
     0.137969424  0.141010385  0.502494330
     0.606965870  0.224874268  0.462794381
     0.720505724  0.727964072  0.587824409
     0.722105034  0.230356866  0.588837930
     0.891881900  0.431876602  0.512696235
     0.281497921  0.594139142  0.568709438
     0.600967360  0.135122037  0.608475960
     0.382996654  0.468578231  0.598706609
     0.699063268  0.003628569  0.518208908
     0.986457799  0.729889049  0.435424274
     0.466483336  0.777616913  0.542981848
     0.720336473  0.161757191  0.511920342
     0.941983610  0.979407040  0.473792312
     0.522087638  0.412543009  0.558123086
     0.069037999  0.375780680  0.438731132
     0.131548480  0.522095976  0.550122681
     0.234526718  0.862442235  0.425637624
     0.489323832  0.929529679  0.558240681
     0.825831345  0.596931585  0.593525467
     0.879829126  0.206753310  0.605685784
     0.709560640  0.079219030  0.396320103
     0.308469071  0.277010872  0.389445036
     0.125603121  0.962495645  0.393112882
     0.346029625  0.973661601  0.530815359
     0.133967428  0.660749042  0.441831041
     0.624306128  0.977722949  0.591814335
     0.151750970  0.505032731  0.465243208
     0.989256094  0.800354935  0.584599204
     0.145478786  0.371262808  0.578941576
     0.662193310  0.465856563  0.404833218
     0.377759848  0.576214283  0.499541582
     0.382465748  0.665147617  0.429539857
     0.790202512  0.761549012  0.513808978
     0.669205946  0.382714973  0.584268174
     0.532557557  0.557648921  0.523587985
     0.254007615  0.890512770  0.585862636
     0.664324100  0.557226742  0.475190246
     0.301735441  0.446295690  0.474323702
     0.941706304  0.710077742  0.517881817
     0.476679641  0.227163875  0.614592097
     0.968865886  0.561455276  0.547564281
     0.485187782  0.311090377  0.493177869
     0.383665363  0.236364020  0.545744869
     0.753461053  0.491264610  0.540359813
     0.294335473  0.368941395  0.551174064
     0.305420761  0.750456289  0.554983854

  ion indices of the primitive-cell ions
   primitive index   ion index
                 1           1
                 2           2
                 3           3
                 4           4
                 5           5
                 6           6
                 7           7
                 8           8
                 9           9
                10          10
                11          11
                12          12
                13          13
                14          14
                15          15
                16          16
                17          17
                18          18
                19          19
                20          20
                21          21
                22          22
                23          23
                24          24
                25          25
                26          26
                27          27
                28          28
                29          29
                30          30
                31          31
                32          32
                33          33
                34          34
                35          35
                36          36
                37          37
                38          38
                39          39
                40          40
                41          41
                42          42
                43          43
                44          44
                45          45
                46          46
                47          47
                48          48
                49          49
                50          50
                51          51
                52          52
                53          53
                54          54
                55          55
                56          56
                57          57
                58          58
                59          59
                60          60
                61          61
                62          62
                63          63
                64          64
                65          65
                66          66
                67          67
                68          68
                69          69
                70          70
                71          71
                72          72
                73          73
                74          74
                75          75
                76          76
                77          77
                78          78
                79          79
                80          80
                81          81
                82          82

----------------------------------------------------------------------------------------


 -----------------------------------------------------------------------------
|                                                                             |
|           W    W    AA    RRRRR   N    N  II  N    N   GGGG   !!!           |
|           W    W   A  A   R    R  NN   N  II  NN   N  G    G  !!!           |
|           W    W  A    A  R    R  N N  N  II  N N  N  G       !!!           |
|           W WW W  AAAAAA  RRRRR   N  N N  II  N  N N  G  GGG   !            |
|           WW  WW  A    A  R   R   N   NN  II  N   NN  G    G                |
|           W    W  A    A  R    R  N    N  II  N    N   GGGG   !!!           |
|                                                                             |
|     The requested file  could not be found or opened for reading            |
|     k-point information. Automatic k-point generation is used as a          |
|     fallback, which may lead to unwanted results.                           |
|                                                                             |
 -----------------------------------------------------------------------------



Automatic generation of k-mesh.
 Grid dimensions derived from KSPACING:
 generate k-points for:    2    2    1

 Generating k-lattice:

  Cartesian coordinates                     Fractional coordinates (reciprocal lattice)
     0.034415299  0.000000000  0.000000000     0.500000000  0.000000000  0.000000000
     0.000000000  0.034415299  0.000000000     0.000000000  0.500000000  0.000000000
     0.000000000  0.000000000  0.036271203     0.000000000  0.000000000  1.000000000

  Length of vectors
     0.034415299  0.034415299  0.036271203

  Shift w.r.t. Gamma in fractional coordinates (k-lattice)
     0.000000000  0.000000000  0.000000000

 
 Subroutine IBZKPT returns following result:
 ===========================================
 
 Found      4 irreducible k-points:
 
 Following reciprocal coordinates:
            Coordinates               Weight
  0.000000  0.000000  0.000000      1.000000
  0.500000  0.000000  0.000000      1.000000
  0.000000  0.500000  0.000000      1.000000
  0.500000  0.500000  0.000000      1.000000
 
 Following cartesian coordinates:
            Coordinates               Weight
  0.000000  0.000000  0.000000      1.000000
  0.034415  0.000000  0.000000      1.000000
  0.000000  0.034415  0.000000      1.000000
  0.034415  0.034415  0.000000      1.000000
 


--------------------------------------------------------------------------------------------------------




 Dimension of arrays:
   k-points           NKPTS =      4   k-points in BZ     NKDIM =      4   number of bands    NBANDS=    200
   number of dos      NEDOS =   2000   number of ions     NIONS =     82
   non local maximal  LDIM  =      4   non local SUM 2l+1 LMDIM =      8
   total plane-waves  NPLWV = ******
   max r-space proj   IRMAX =      1   max aug-charges    IRDMAX= 415281
   dimension x,y,z NGX =   168 NGY =  168 NGZ =  320
   dimension x,y,z NGXF=   336 NGYF=  336 NGZF=  640
   support grid    NGXF=   672 NGYF=  672 NGZF= 1280
   ions per type =               4  78
   NGX,Y,Z   is equivalent  to a cutoff of  19.22, 19.22, 19.30 a.u.
   NGXF,Y,Z  is equivalent  to a cutoff of  38.45, 38.45, 38.59 a.u.

 SYSTEM =  a-Si SPC                                
 POSCAR =   H Si                                   

 Startparameter for this run:
   NWRITE =      2    write-flag & timer
   PREC   = accura    normal or accurate (medium, high low for compatibility)
   ISTART =      1    job   : 0-new  1-cont  2-samecut
   ICHARG =      1    charge: 1-file 2-atom 10-const
   ISPIN  =      1    spin polarized calculation?
   LNONCOLLINEAR =      F non collinear calculations
   LSORBIT =      F    spin-orbit coupling
   INIWAV =      1    electr: 0-lowe 1-rand  2-diag
   LASPH  =      T    aspherical Exc in radial PAW
 Electronic Relaxation 1
   ENCUT  = 1200.0 eV  88.20 Ry    9.39 a.u.  41.04 41.04 77.87*2*pi/ulx,y,z
   ENINI  = 1200.0     initial cutoff
   ENAUG  =  400.0 eV  augmentation charge cutoff
   NELM   =    150;   NELMIN=  2; NELMDL=  0     # of ELM steps 
   EDIFF  = 0.1E-05   stopping-criterion for ELM
   LREAL  =      F    real-space projection
   NLSPLINE    = F    spline interpolate recip. space projectors
   LCOMPAT=      F    compatible to vasp.4.4
   GGA_COMPAT  = T    GGA compatible to vasp.4.4-vasp.4.6
   LMAXPAW     = -100 max onsite density
   LMAXMIX     =    2 max onsite mixed and CHGCAR
   VOSKOWN=      0    Vosko Wilk Nusair interpolation
   ROPT   =    0.00000   0.00000
 Ionic relaxation
   EDIFFG = -.1E-01   stopping-criterion for IOM
   NSW    =      0    number of steps for IOM
   NBLOCK =      1;   KBLOCK =      1    inner block; outer block 
   IBRION =     -1    ionic relax: 0-MD 1-quasi-New 2-CG
   NFREE  =      0    steps in history (QN), initial steepest desc. (CG)
   ISIF   =      2    stress and relaxation
   IWAVPR =     10    prediction:  0-non 1-charg 2-wave 3-comb
   ISYM   =      1    0-nonsym 1-usesym 2-fastsym
   LCORR  =      T    Harris-Foulkes like correction to forces

   POTIM  = 0.5000    time-step for ionic-motion
   TEIN   =    0.0    initial temperature
   TEBEG  =    0.0;   TEEND  =   0.0 temperature during run
   SMASS  =  -3.00    Nose mass-parameter (am)
   estimated Nose-frequenzy (Omega)   =  0.10E-29 period in steps = 0.13E+47 mass=  -0.482E-26a.u.
   SCALEE = 1.0000    scale energy and forces
   NPACO  =    256;   APACO  = 10.0  distance and # of slots for P.C.
   PSTRESS=    0.0 pullay stress

  Mass of Ions in am
   POMASS =   1.00 28.09
  Ionic Valenz
   ZVAL   =   1.00  4.00
  Atomic Wigner-Seitz radii
   RWIGS  =  -1.00 -1.00
  virtual crystal weights 
   VCA    =   1.00  1.00
   NELECT =     316.0000    total number of electrons
   NUPDOWN=      -1.0000    fix difference up-down

 DOS related values:
   EMIN   =  10.00;   EMAX   =-10.00  energy-range for DOS
   EFERMI =   0.00;   METHOD = LEGACY      
   ISMEAR =     0;   SIGMA  =   0.10  broadening in eV -4-tet -1-fermi 0-gaus
   EFERMI_NEDOS =   21; number of points for ismear=-14 and -15

 Electronic relaxation 2 (details)
   IALGO  =     38    algorithm
   LDIAG  =      F    sub-space diagonalisation (order eigenvalues)
   LSUBROT=      F    optimize rotation matrix (better conditioning)
   TURBO    =      0    0=normal 1=particle mesh
   IRESTART =      0    0=no restart 2=restart with 2 vectors
   NREBOOT  =      0    no. of reboots
   NMIN     =      0    reboot dimension
   EREF     =   0.00    reference energy to select bands
   IMIX   =      4    mixing-type and parameters
     AMIX     =   0.40;   BMIX     =  1.00
     AMIX_MAG =   1.60;   BMIX_MAG =  1.00
     AMIN     =   0.10
     WC   =   100.;   INIMIX=   1;  MIXPRE=   1;  MAXMIX= -45

 Intra band minimization:
   WEIMIN = 0.0000     energy-eigenvalue tresh-hold
   EBREAK =  0.13E-08  absolut break condition
   DEPER  =   0.30     relativ break condition  

   TIME   =   0.40     timestep for ELM

  volume/ion in A,a.u.               =      70.97       478.91
  Fermi-wavevector in a.u.,A,eV,Ry     =   0.619934  1.171506  5.228968  0.384318
  Thomas-Fermi vector in A             =   1.678907

 Write flags
   LWAVE        =      F    write WAVECAR
   LDOWNSAMPLE  =      F    k-point downsampling of WAVECAR
   LCHARG       =      F    write CHGCAR
   LVTOT        =      F    write LOCPOT, total local potential
   LVHAR        =      F    write LOCPOT, Hartree potential only
   WRT_POTENTIAL= false  ! write potential to hdf5 file
   LELF         =      F    write electronic localiz. function (ELF)
   LORBIT       =     11    0 simple, 1 ext, 2 COOP (PROOUT), +10 PAW based schemes


 Python interface
   PLUGINS active      =      F    recompile with -DPLUGINS to activate

 Dipole corrections
   LMONO      =      F    monopole corrections only (constant potential shift)
   LDIPOL     =      F    correct potential (dipole corrections)
   IDIPOL     =      0    1-x, 2-y, 3-z, 4-all directions 
   EPSILON    =  1.0000000 bulk dielectric constant
   LVACPOTAV  =      F  vacuum potentials using an averaging scheme for the charge density
   VACPOTFLAT =  0.1000000 required flatness to determine vacuum potential

Coulomb truncation method
  LTRUNCATE          =      F  Coulomb kernel truncation to be used
  IDIMENSIONALITY    =      3  Dimensionality of cutoff (0 molecules / 2 surfaces)
  ISURFACE           =     -1  Direction of surface normal
  LCOARSEN           =      F  Coarsen the charge grid before padding, preferred


 Exchange correlation treatment:
   METAGGA = SCAN    functional components
   XC_C    = 1    coefficients multiplying the functional components
   LIBXC   =     F    Libxc                    
   VOSKOWN =     0    Vosko Wilk Nusair interpolation
   LHFCALC =     F    Hartree Fock is set to
   LHFONE  =     F    Hartree Fock one center treatment
   AEXX    =    0.0000 exact exchange contribution

 Parameters of functionals:
   SCAN:
     P1 =  0.000000E+00
     P2 =  0.000000E+00
     P3 =  0.000000E+00

 Accuracy and mixing parameters for tau-dependent meta-GGA functionals:
   LMAXTAU = 6
   LMIXTAU = T

 Van der Waals corrections
   IVDW    =     0    specifies the selected vdW correction

 Linear response parameters
   LEPSILON=     F    determine dielectric tensor
   LRPA    =     F    only Hartree local field effects (RPA)
   LNABLA  =     F    use nabla operator in PAW spheres
   LVEL    =     F    velocity operator in full k-point grid
   CSHIFT  =0.1000    complex shift for real part using Kramers Kronig
   OMEGAMAX=  -1.0    maximum frequency
   DEG_THRESHOLD= 0.2000000E-02 threshold for treating states as degnerate
   RTIME   =   -0.100 relaxation time in fs
  (WPLASMAI=    0.000 imaginary part of plasma frequency in eV, 0.658/RTIME)
   DFIELD  = 0.0000000 0.0000000 0.0000000 field for delta impulse in time

  Optional k-point grid parameters
   LKPOINTS_OPT  =     F    use optional k-point grid
   KPOINTS_OPT_MODE=     1    mode for optional k-point grid

 Orbital magnetization related:
   ORBITALMAG=     F  switch on orbital magnetization
   LCHIMAG   =     F  perturbation theory with respect to B field
   DQ        =  0.001000  dq finite difference perturbation B field
   LLRAUG    =     F  two centre corrections for induced B field
   LBONE     =     F  B-component reconstruction in AE one-centre
   LVGVCALC  =     T  calculate vGv susceptibility
   LVGVAPPL  =     F  apply vGv susceptibility instead of pGv for G=0

 Random number generation:
   RANDOM_GENERATOR = DEFAULT
   PCG_SEED         = not used


--------------------------------------------------------------------------------------------------------


 Static calculation
 charge density and potential will be updated during run
 non-spin polarized calculation
 Variant of blocked Davidson
 perform Loewdin sub-space diagonalisation
    ordering is kept fixed
    before iterative eigenvector-optimisation
 modified Broyden-mixing scheme, WC =      100.0
 initial mixing is a Kerker type mixing with AMIX =  0.4000 and BMIX =      1.0000
 Hartree-type preconditioning will be used
 using additional bands           42
 reciprocal scheme for non local part
 use partial core corrections
 calculate Harris-corrections to forces   (improved forces if not selfconsistent)
 use gradient corrections 
 use of overlap-Matrix (Vanderbilt PP)
 Gauss-broadening in eV      SIGMA  =   0.10


--------------------------------------------------------------------------------------------------------


  energy-cutoff  :     1200.00
  volume of cell :     5819.36
      direct lattice vectors                 reciprocal lattice vectors
    14.528422447  0.000000000  0.000000000     0.068830598  0.000000000  0.000000000
     0.000000000 14.528422447  0.000000000     0.000000000  0.068830598  0.000000000
     0.000000000  0.000000000 27.570080600     0.000000000  0.000000000  0.036271203

  length of vectors
    14.528422447 14.528422447 27.570080600     0.068830598  0.068830598  0.036271203



 old parameters found on file WAVECAR:
  energy-cutoff  :     1200.00
  volume of cell :     5819.36
      direct lattice vectors                 reciprocal lattice vectors
    14.528422447  0.000000000  0.000000000     0.068830598  0.000000000  0.000000000
     0.000000000 14.528422447  0.000000000     0.000000000  0.068830598  0.000000000
     0.000000000  0.000000000 27.570080600     0.000000000  0.000000000  0.036271203

  length of vectors


 k-points in units of 2pi/SCALE and weight: read from INCAR                         
   0.00000000  0.00000000  0.00000000       0.250
   0.03441530  0.00000000  0.00000000       0.250
   0.00000000  0.03441530  0.00000000       0.250
   0.03441530  0.03441530  0.00000000       0.250

 k-points in reciprocal lattice and weights: read from INCAR                         
   0.00000000  0.00000000  0.00000000       0.250
   0.50000000  0.00000000  0.00000000       0.250
   0.00000000  0.50000000  0.00000000       0.250
   0.50000000  0.50000000  0.00000000       0.250

 position of ions in fractional coordinates (direct lattice) 
   0.53200005  0.64892411  0.62833307
   0.49185332  0.07824645  0.49246379
   0.45530325  0.59009709  0.39680785
   0.90141442  0.08687598  0.46151792
   0.08236445  0.29150920  0.51395782
   0.87373548  0.91194742  0.60320249
   0.72712633  0.86851042  0.63177429
   0.04472747  0.02541953  0.53451619
   0.61133327  0.81265730  0.41857968
   0.41219559  0.37981575  0.42450080
   0.99230962  0.88789445  0.41171213
   0.82900297  0.91582350  0.52230603
   0.15280319  0.11487008  0.41824322
   0.18871947  0.78022211  0.49501616
   0.24870365  0.71553487  0.39047087
   0.60207945  0.19097390  0.36840949
   0.64254948  0.96288926  0.44288630
   0.92899570  0.27735056  0.53373946
   0.10978382  0.87955578  0.55038977
   0.84584214  0.26975834  0.39918774
   0.53576607  0.08323701  0.44193284
   0.81922518  0.51475056  0.38681372
   0.50408861  0.48765276  0.38069867
   0.56733578  0.67375366  0.57953430
   0.85633787  0.19257344  0.47115518
   0.29798166  0.12161499  0.51049779
   0.85078776  0.66480551  0.40136991
   0.71937734  0.70297550  0.44604068
   0.93248604  0.05871610  0.59336741
   0.41630382  0.02927536  0.39462172
   0.90880005  0.40614831  0.42835469
   0.14967466  0.26939351  0.38879409
   0.37532471  0.91599922  0.45049121
   0.69065217  0.30718300  0.40482015
   0.47271922  0.78703580  0.45729054
   0.31249187  0.13457842  0.42460556
   0.13796942  0.14101038  0.50249433
   0.60696587  0.22487427  0.46279438
   0.72050572  0.72796407  0.58782441
   0.72210503  0.23035687  0.58883793
   0.89188190  0.43187660  0.51269624
   0.28149792  0.59413914  0.56870944
   0.60096736  0.13512204  0.60847596
   0.38299665  0.46857823  0.59870661
   0.69906327  0.00362857  0.51820891
   0.98645780  0.72988905  0.43542427
   0.46648334  0.77761691  0.54298185
   0.72033647  0.16175719  0.51192034
   0.94198361  0.97940704  0.47379231
   0.52208764  0.41254301  0.55812309
   0.06903800  0.37578068  0.43873113
   0.13154848  0.52209598  0.55012268
   0.23452672  0.86244223  0.42563762
   0.48932383  0.92952968  0.55824068
   0.82583135  0.59693159  0.59352547
   0.87982913  0.20675331  0.60568578
   0.70956064  0.07921903  0.39632010
   0.30846907  0.27701087  0.38944504
   0.12560312  0.96249564  0.39311288
   0.34602962  0.97366160  0.53081536
   0.13396743  0.66074904  0.44183104
   0.62430613  0.97772295  0.59181434
   0.15175097  0.50503273  0.46524321
   0.98925609  0.80035494  0.58459920
   0.14547879  0.37126281  0.57894158
   0.66219331  0.46585656  0.40483322
   0.37775985  0.57621428  0.49954158
   0.38246575  0.66514762  0.42953986
   0.79020251  0.76154901  0.51380898
   0.66920595  0.38271497  0.58426817
   0.53255756  0.55764892  0.52358799
   0.25400762  0.89051277  0.58586264
   0.66432410  0.55722674  0.47519025
   0.30173544  0.44629569  0.47432370
   0.94170630  0.71007774  0.51788182
   0.47667964  0.22716387  0.61459210
   0.96886589  0.56145528  0.54756428
   0.48518778  0.31109038  0.49317787
   0.38366536  0.23636402  0.54574487
   0.75346105  0.49126461  0.54035981
   0.29433547  0.36894140  0.55117406
   0.30542076  0.75045629  0.55498385

 position of ions in cartesian coordinates  (Angst):
   7.72912145  9.42784361 17.32319340
   7.14585286  1.13679743 13.57726629
   6.61483796  8.57317980 10.94002436
  13.09612951  1.26217099 12.72408615
   1.19662553  4.23516876 14.16985850
  12.69399816 13.24915732 16.63034133
  10.56399853 12.61808621 17.41806821
   0.64981965  0.36930573 14.73665436
   8.88170802 11.80662852 11.54027561
   5.98855161  5.51812361 11.70352127
  14.41669343 12.89970565 11.35093656
  12.04410529 13.30547067 14.40001928
   2.21998936  1.66888112 11.53099928
   2.74179620 11.33539647 13.64763534
   3.61327170 10.39559281 10.76531340
   8.74726453  2.77454950 10.15707922
   9.33523027 13.98926198 12.21041103
  13.49684202  4.02946612 14.71524001
   1.59498568 12.77855799 15.17429041
  12.28875199  3.91916316 11.00563803
   7.78383586  1.20930239 12.18412390
  11.90204952  7.47851356 10.66448536
   7.32361230  7.08482530 10.49589288
   8.24249386  9.78857786 15.97780738
  12.44123834  2.79778831 12.98978631
   4.32920339  1.76687388 14.07446531
  12.36060394  9.65857530 11.06580065
  10.45141788 10.21312503 12.29737737
  13.54755105  0.85305225 16.35918730
   6.04823778  0.42532486 10.87975263
  13.20343099  5.90069424 11.80977335
   2.17453667  3.91386278 10.71908433
   5.45287588 13.30802359 12.42007910
  10.03408651  4.46288432 11.16092421
   6.86786448 11.43438853 12.60753692
   4.54001387  1.95521213 11.70640963
   2.00447808  2.04865844 13.85380918
   8.81825657  3.26706836 12.75927838
  10.46781154 10.57616957 16.20636633
  10.49104699  3.34672186 16.23430919
  12.95763701  6.27448572 14.13507653
   4.08972071  8.63190444 15.67936503
   8.73110768  1.96311003 16.77573125
   5.56433718  6.80770249 16.50638947
  10.15628647  0.05271739 14.28706136
  14.33167563 10.60413645 12.00468234
   6.77726697 11.29754702 14.97005332
  10.46535259  2.35007680 14.11368509
  13.68553583 14.22923922 13.06249223
   7.58510976  5.99359911 15.38749847
   1.00301322  5.45950046 12.09585266
   1.91119189  7.58523090 15.16692665
   3.40730324 12.52992512 11.73486360
   7.10910334 13.50459986 15.39074057
  11.99802665  8.67247424 16.36354497
  12.78252922  3.00379943 16.69880589
  10.30879673  1.15092754 10.92657719
   4.48156898  4.02453097 10.73703104
   1.82481520 13.98354333 10.83815383
   5.02726457 14.14576706 14.63462224
   1.94633539  9.59964122 12.18131740
   9.07018316 14.20477204 16.31636892
   2.20470220  7.33732887 12.82679275
  14.37233045 11.62789461 16.11744717
   2.11357726  5.39386291 15.96146590
   9.62062415  6.76816094 11.16128446
   5.48825466  8.37148453 13.77240167
   5.55662396  9.66354557 11.84244849
  11.48039591 11.06410576 14.16575493
   9.72250669  5.56024481 16.10832066
   7.73722117  8.10175910 14.43536296
   3.69032994 12.93774571 16.15228010
   9.65158116  8.09562550 13.10103337
   4.38373996  6.48397232 13.07714270
  13.68150701 10.31630940 14.27804343
   6.92540320  3.30033274 16.94435365
  14.07609289  8.15705944 15.09639136
   7.04901306  4.51965241 13.59695361
   5.57405247  3.43399633 15.04623002
  10.94660048  7.13729979 14.89776361
   4.27623010  5.36013645 15.19591338
   4.43728184 10.90294600 15.30094960



--------------------------------------------------------------------------------------------------------


 k-point     1 :   0.0000 0.0000 0.0000  plane waves:  549075
 k-point     2 :   0.5000 0.0000 0.0000  plane waves:  549282
 k-point     3 :   0.0000 0.5000 0.0000  plane waves:  549282
 k-point     4 :   0.5000 0.5000 0.0000  plane waves:  549348

 maximum and minimum number of plane-waves per node :     34410    34270

 maximum number of plane-waves:    549348
 maximum index in each direction: 
   IXMAX=   41   IYMAX=   41   IZMAX=   77
   IXMIN=  -41   IYMIN=  -41   IZMIN=  -77


 parallel 3D FFT for wavefunctions:
    minimum data exchange during FFTs selected (reduces bandwidth)
 parallel 3D FFT for charge:
    minimum data exchange during FFTs selected (reduces bandwidth)


 total amount of memory used by VASP MPI-rank0   340497. kBytes
=======================================================================

   base                                    :      30000. kBytes
   nonl-proj                               :      62628. kBytes
   fftplans                                :     108846. kBytes
   grid                                    :      83991. kBytes
   one-center                              :         18. kBytes
   wavefun                                 :      55014. kBytes

     INWAV:  cpu time     16.4665: real time     16.4755
 Broyden mixing: mesh for mixing (old mesh)
   NGX = 83   NGY = 83   NGZ =155
  (NGX  =336   NGY  =336   NGZ  =640)
  gives a total of ****** points

 initial charge density was supplied:
 number of electron     315.9999999 magnetization 
 keeping initial charge density in first step


--------------------------------------------------------------------------------------------------------


 Maximum index for augmentation-charges        11433 (set IRDMAX)


--------------------------------------------------------------------------------------------------------


 First call to EWALD:  gamma=   0.099
 Maximum number of real-space cells   3x   3x   2
 Maximum number of reciprocal cells   2x   2x   4

    FEWALD:  cpu time      0.0140: real time      0.0140


--------------------------------------- Ionic step        1  -------------------------------------------




--------------------------------------- Iteration      1(   1)  ---------------------------------------


    POTLOK:  cpu time      2.1788: real time      2.1794
    SETDIJ:  cpu time      1.5431: real time      1.5441
    EDDIAG:  cpu time     33.3167: real time     33.3370
     EDDAV:  cpu time    149.0406: real time    149.1161
       DOS:  cpu time      0.0090: real time      0.0093
    CHARGE:  cpu time     19.5632: real time     19.5816
    MIXING:  cpu time      0.0488: real time      0.0494
    --------------------------------------------
      LOOP:  cpu time    205.7003: real time    205.8170

 eigenvalue-minimisations  :  1600
 total energy-change (2. order) :-0.7996931E+03  (-0.8857649E+00)
 number of electron     315.9999999 magnetization 
 augmentation part      -17.6915823 magnetization 

 Broyden mixing:
  rms(total) = 0.10879E+01    rms(broyden)= 0.25637E+02
  rms(prec ) = 0.11189E+01
  weight for this iteration     100.00
  WARNING: grid for Broyden might be to small

 Free energy of the ion-electron system (eV)
  ---------------------------------------------------
  alpha Z        PSCENC =        36.17436600
  Ewald energy   TEWEN  =     46384.17619320
  -Hartree energ DENC   =    -53424.63610272
  -exchange      EXHF   =         0.00000000
  -V(xc)+E(xc)   XCENC  =      -372.87223944
  PAW double counting   =     29336.19329078   -28558.65551192
  entropy T*S    EENTRO =        -0.17180659
  eigenvalues    EBANDS =     -2289.06790346
  atomic energy  EATOM  =      8089.16663890
  Solvation  Ediel_sol  =         0.00000000
  ---------------------------------------------------
  free energy    TOTEN  =      -799.69307525 eV

  energy without entropy =     -799.52126866  energy(sigma->0) =     -799.60717196


--------------------------------------------------------------------------------------------------------




--------------------------------------- Iteration      1(   2)  ---------------------------------------


    POTLOK:  cpu time      2.1339: real time      2.1492
    SETDIJ:  cpu time      1.5546: real time      1.5554
    EDDIAG:  cpu time     33.3318: real time     33.3507
     EDDAV:  cpu time    150.7780: real time    150.8528
       DOS:  cpu time      0.0029: real time      0.0029
    CHARGE:  cpu time     19.4502: real time     19.4661
    MIXING:  cpu time      0.0437: real time      0.0437
    --------------------------------------------
      LOOP:  cpu time    207.2951: real time    207.4207

 eigenvalue-minimisations  :  1632
 total energy-change (2. order) : 0.5567864E+02  (-0.8478766E+00)
 number of electron     315.9999999 magnetization 
 augmentation part      -17.6238525 magnetization 

 Broyden mixing:
  rms(total) = 0.74005E+00    rms(broyden)= 0.14864E+02
  rms(prec ) = 0.75620E+00
  weight for this iteration     100.00
  WARNING: grid for Broyden might be to small

 eigenvalues of (default mixing * dielectric matrix)
  average eigenvalue GAMMA=   0.6331
  0.6331

 Free energy of the ion-electron system (eV)
  ---------------------------------------------------
  alpha Z        PSCENC =        36.17436600
  Ewald energy   TEWEN  =     46384.17619320
  -Hartree energ DENC   =    -53413.08330798
  -exchange      EXHF   =         0.00000000
  -V(xc)+E(xc)   XCENC  =      -364.81797455
  PAW double counting   =     35033.71875446   -34255.99000172
  entropy T*S    EENTRO =        -0.16175776
  eigenvalues    EBANDS =     -2253.19735075
  atomic energy  EATOM  =      8089.16663890
  Solvation  Ediel_sol  =         0.00000000
  ---------------------------------------------------
  free energy    TOTEN  =      -744.01444020 eV

  energy without entropy =     -743.85268244  energy(sigma->0) =     -743.93356132


--------------------------------------------------------------------------------------------------------




--------------------------------------- Iteration      1(   3)  ---------------------------------------


    POTLOK:  cpu time      2.1404: real time      2.1556
    SETDIJ:  cpu time      1.5448: real time      1.5458
    EDDIAG:  cpu time     33.3804: real time     33.3989
     EDDAV:  cpu time    149.2969: real time    149.3764
       DOS:  cpu time      0.0037: real time      0.0037
    CHARGE:  cpu time     19.4805: real time     19.4987
    MIXING:  cpu time      0.0413: real time      0.0413
    --------------------------------------------
      LOOP:  cpu time    205.8879: real time    206.0204

 eigenvalue-minimisations  :  1600
 total energy-change (2. order) :-0.3088310E+01  (-0.7024992E+00)
 number of electron     315.9999999 magnetization 
 augmentation part      -17.5654769 magnetization 

 Broyden mixing:
  rms(total) = 0.29906E+00    rms(broyden)= 0.22639E+02
  rms(prec ) = 0.37830E+00
  weight for this iteration     100.00
  WARNING: grid for Broyden might be to small

 eigenvalues of (default mixing * dielectric matrix)
  average eigenvalue GAMMA=   0.7903
  0.9553  0.6252

 Free energy of the ion-electron system (eV)
  ---------------------------------------------------
  alpha Z        PSCENC =        36.17436600
  Ewald energy   TEWEN  =     46384.17619320
  -Hartree energ DENC   =    -53412.72728776
  -exchange      EXHF   =         0.00000000
  -V(xc)+E(xc)   XCENC  =      -367.93672005
  PAW double counting   =     41883.75357932   -41106.14938874
  entropy T*S    EENTRO =        -0.17155420
  eigenvalues    EBANDS =     -2253.38857734
  atomic energy  EATOM  =      8089.16663890
  Solvation  Ediel_sol  =         0.00000000
  ---------------------------------------------------
  free energy    TOTEN  =      -747.10275067 eV

  energy without entropy =     -746.93119647  energy(sigma->0) =     -747.01697357


--------------------------------------------------------------------------------------------------------




--------------------------------------- Iteration      1(   4)  ---------------------------------------


    POTLOK:  cpu time      2.1514: real time      2.1527
    SETDIJ:  cpu time      1.5493: real time      1.5503
    EDDIAG:  cpu time     33.4043: real time     33.4233
     EDDAV:  cpu time    152.8269: real time    152.9050
       DOS:  cpu time      0.0022: real time      0.0022
    CHARGE:  cpu time     19.4706: real time     19.4875
    MIXING:  cpu time      0.0439: real time      0.0439
    --------------------------------------------
      LOOP:  cpu time    209.4488: real time    209.5649

 eigenvalue-minimisations  :  1664
 total energy-change (2. order) : 0.3797992E+00  (-0.7450415E-01)
 number of electron     315.9999999 magnetization 
 augmentation part      -17.5600831 magnetization 

 Broyden mixing:
  rms(total) = 0.62575E-01    rms(broyden)= 0.20687E+01
  rms(prec ) = 0.77663E-01
  weight for this iteration     100.00
  WARNING: grid for Broyden might be to small

 eigenvalues of (default mixing * dielectric matrix)
  average eigenvalue GAMMA=   0.9464
  1.6135  0.6481  0.5775

 Free energy of the ion-electron system (eV)
  ---------------------------------------------------
  alpha Z        PSCENC =        36.17436600
  Ewald energy   TEWEN  =     46384.17619320
  -Hartree energ DENC   =    -53413.66781602
  -exchange      EXHF   =         0.00000000
  -V(xc)+E(xc)   XCENC  =      -368.61614064
  PAW double counting   =     46984.16205867   -46206.59477553
  entropy T*S    EENTRO =        -0.16465828
  eigenvalues    EBANDS =     -2251.35881776
  atomic energy  EATOM  =      8089.16663890
  Solvation  Ediel_sol  =         0.00000000
  ---------------------------------------------------
  free energy    TOTEN  =      -746.72295145 eV

  energy without entropy =     -746.55829317  energy(sigma->0) =     -746.64062231


--------------------------------------------------------------------------------------------------------




--------------------------------------- Iteration      1(   5)  ---------------------------------------


    POTLOK:  cpu time      2.1377: real time      2.1574
    SETDIJ:  cpu time      1.5438: real time      1.5445
    EDDIAG:  cpu time     33.3792: real time     33.3993
     EDDAV:  cpu time    166.1994: real time    166.2888
       DOS:  cpu time      0.0032: real time      0.0032
    CHARGE:  cpu time     19.4792: real time     19.4950
    MIXING:  cpu time      0.0429: real time      0.0429
    --------------------------------------------
      LOOP:  cpu time    222.7853: real time    222.9312

 eigenvalue-minimisations  :  1920
 total energy-change (2. order) :-0.2635933E-01  (-0.1012233E-01)
 number of electron     315.9999999 magnetization 
 augmentation part      -17.5604518 magnetization 

 Broyden mixing:
  rms(total) = 0.42626E-01    rms(broyden)= 0.58434E+00
  rms(prec ) = 0.52576E-01
  weight for this iteration     100.00
  WARNING: grid for Broyden might be to small

 eigenvalues of (default mixing * dielectric matrix)
  average eigenvalue GAMMA=   1.0955
  2.4905  0.7892  0.6237  0.4785

 Free energy of the ion-electron system (eV)
  ---------------------------------------------------
  alpha Z        PSCENC =        36.17436600
  Ewald energy   TEWEN  =     46384.17619320
  -Hartree energ DENC   =    -53414.24127439
  -exchange      EXHF   =         0.00000000
  -V(xc)+E(xc)   XCENC  =      -369.59290510
  PAW double counting   =     46544.32494554   -45766.73356590
  entropy T*S    EENTRO =        -0.16980613
  eigenvalues    EBANDS =     -2249.85390292
  atomic energy  EATOM  =      8089.16663890
  Solvation  Ediel_sol  =         0.00000000
  ---------------------------------------------------
  free energy    TOTEN  =      -746.74931079 eV

  energy without entropy =     -746.57950466  energy(sigma->0) =     -746.66440772


--------------------------------------------------------------------------------------------------------




--------------------------------------- Iteration      1(   6)  ---------------------------------------


    POTLOK:  cpu time      2.1336: real time      2.1528
    SETDIJ:  cpu time      1.5474: real time      1.5482
    EDDIAG:  cpu time     33.3930: real time     33.4131
     EDDAV:  cpu time    159.3148: real time    159.4016
       DOS:  cpu time      0.0024: real time      0.0024
    CHARGE:  cpu time     19.4519: real time     19.4687
    MIXING:  cpu time      0.0433: real time      0.0433
    --------------------------------------------
      LOOP:  cpu time    215.8863: real time    216.0301

 eigenvalue-minimisations  :  1792
 total energy-change (2. order) :-0.1379907E-02  (-0.2973228E-02)
 number of electron     315.9999999 magnetization 
 augmentation part      -17.5610950 magnetization 

 Broyden mixing:
  rms(total) = 0.24698E-01    rms(broyden)= 0.22990E+00
  rms(prec ) = 0.27329E-01
  weight for this iteration     100.00
  WARNING: grid for Broyden might be to small

 eigenvalues of (default mixing * dielectric matrix)
  average eigenvalue GAMMA=   1.0322
  2.5686  0.8938  0.6241  0.5954  0.4790

 Free energy of the ion-electron system (eV)
  ---------------------------------------------------
  alpha Z        PSCENC =        36.17436600
  Ewald energy   TEWEN  =     46384.17619320
  -Hartree energ DENC   =    -53414.57568712
  -exchange      EXHF   =         0.00000000
  -V(xc)+E(xc)   XCENC  =      -369.76908880
  PAW double counting   =     46375.83474028   -45598.22867036
  entropy T*S    EENTRO =        -0.16718680
  eigenvalues    EBANDS =     -2249.36199598
  atomic energy  EATOM  =      8089.16663890
  Solvation  Ediel_sol  =         0.00000000
  ---------------------------------------------------
  free energy    TOTEN  =      -746.75069069 eV

  energy without entropy =     -746.58350389  energy(sigma->0) =     -746.66709729


--------------------------------------------------------------------------------------------------------




--------------------------------------- Iteration      1(   7)  ---------------------------------------


    POTLOK:  cpu time      2.1399: real time      2.1606
    SETDIJ:  cpu time      1.5479: real time      1.5486
    EDDIAG:  cpu time     33.3818: real time     33.3997
     EDDAV:  cpu time    158.9797: real time    159.0630
       DOS:  cpu time      0.0033: real time      0.0033
    CHARGE:  cpu time     19.4736: real time     19.4899
    MIXING:  cpu time      0.0432: real time      0.0432
    --------------------------------------------
      LOOP:  cpu time    215.5694: real time    215.7083

 eigenvalue-minimisations  :  1792
 total energy-change (2. order) :-0.1055177E-02  (-0.9872231E-03)
 number of electron     315.9999999 magnetization 
 augmentation part      -17.5593950 magnetization 

 Broyden mixing:
  rms(total) = 0.15372E-01    rms(broyden)= 0.10226E+00
  rms(prec ) = 0.18443E-01
  weight for this iteration     100.00
  WARNING: grid for Broyden might be to small

 eigenvalues of (default mixing * dielectric matrix)
  average eigenvalue GAMMA=   1.0148
  2.5597  1.1566  0.7821  0.6263  0.5198  0.4441

 Free energy of the ion-electron system (eV)
  ---------------------------------------------------
  alpha Z        PSCENC =        36.17436600
  Ewald energy   TEWEN  =     46384.17619320
  -Hartree energ DENC   =    -53414.48094463
  -exchange      EXHF   =         0.00000000
  -V(xc)+E(xc)   XCENC  =      -369.67107747
  PAW double counting   =     46361.58767963   -45583.96942419
  entropy T*S    EENTRO =        -0.16713976
  eigenvalues    EBANDS =     -2249.56803755
  atomic energy  EATOM  =      8089.16663890
  Solvation  Ediel_sol  =         0.00000000
  ---------------------------------------------------
  free energy    TOTEN  =      -746.75174587 eV

  energy without entropy =     -746.58460611  energy(sigma->0) =     -746.66817599


--------------------------------------------------------------------------------------------------------




--------------------------------------- Iteration      1(   8)  ---------------------------------------


    POTLOK:  cpu time      2.1389: real time      2.1575
    SETDIJ:  cpu time      1.5493: real time      1.5507
    EDDIAG:  cpu time     33.3891: real time     33.4089
     EDDAV:  cpu time    154.5389: real time    154.6181
       DOS:  cpu time      0.0022: real time      0.0022
    CHARGE:  cpu time     19.4591: real time     19.4751
    MIXING:  cpu time      0.0448: real time      0.0449
    --------------------------------------------
      LOOP:  cpu time    211.1223: real time    211.2573

 eigenvalue-minimisations  :  1704
 total energy-change (2. order) :-0.3304610E-03  (-0.4002275E-03)
 number of electron     315.9999999 magnetization 
 augmentation part      -17.5584541 magnetization 

 Broyden mixing:
  rms(total) = 0.67259E-02    rms(broyden)= 0.66376E-01
  rms(prec ) = 0.84543E-02
  weight for this iteration     100.00
  WARNING: grid for Broyden might be to small

 eigenvalues of (default mixing * dielectric matrix)
  average eigenvalue GAMMA=   1.0013
  2.5522  1.3809  0.8755  0.6421  0.6421  0.5225  0.3934

 Free energy of the ion-electron system (eV)
  ---------------------------------------------------
  alpha Z        PSCENC =        36.17436600
  Ewald energy   TEWEN  =     46384.17619320
  -Hartree energ DENC   =    -53414.27299174
  -exchange      EXHF   =         0.00000000
  -V(xc)+E(xc)   XCENC  =      -369.56865049
  PAW double counting   =     46389.97401538   -45612.34720490
  entropy T*S    EENTRO =        -0.16742988
  eigenvalues    EBANDS =     -2249.88701281
  atomic energy  EATOM  =      8089.16663890
  Solvation  Ediel_sol  =         0.00000000
  ---------------------------------------------------
  free energy    TOTEN  =      -746.75207633 eV

  energy without entropy =     -746.58464645  energy(sigma->0) =     -746.66836139


--------------------------------------------------------------------------------------------------------




--------------------------------------- Iteration      1(   9)  ---------------------------------------


    POTLOK:  cpu time      2.1385: real time      2.1572
    SETDIJ:  cpu time      1.5459: real time      1.5466
    EDDIAG:  cpu time     33.3637: real time     33.3848
     EDDAV:  cpu time    153.2289: real time    153.3131
       DOS:  cpu time      0.0030: real time      0.0030
    CHARGE:  cpu time     19.4711: real time     19.4872
    MIXING:  cpu time      0.0442: real time      0.0442
    --------------------------------------------
      LOOP:  cpu time    209.7955: real time    209.9363

 eigenvalue-minimisations  :  1680
 total energy-change (2. order) :-0.1182353E-03  (-0.1843428E-03)
 number of electron     315.9999999 magnetization 
 augmentation part      -17.5583848 magnetization 

 Broyden mixing:
  rms(total) = 0.23454E-02    rms(broyden)= 0.23649E-01
  rms(prec ) = 0.27417E-02
  weight for this iteration     100.00
  WARNING: grid for Broyden might be to small

 eigenvalues of (default mixing * dielectric matrix)
  average eigenvalue GAMMA=   1.0941
  2.4948  2.2325  0.9918  0.8640  0.6328  0.6328  0.5131  0.3906

 Free energy of the ion-electron system (eV)
  ---------------------------------------------------
  alpha Z        PSCENC =        36.17436600
  Ewald energy   TEWEN  =     46384.17619320
  -Hartree energ DENC   =    -53413.94621376
  -exchange      EXHF   =         0.00000000
  -V(xc)+E(xc)   XCENC  =      -369.55476852
  PAW double counting   =     46407.56226646   -45629.93079696
  entropy T*S    EENTRO =        -0.16761446
  eigenvalues    EBANDS =     -2250.23226544
  atomic energy  EATOM  =      8089.16663890
  Solvation  Ediel_sol  =         0.00000000
  ---------------------------------------------------
  free energy    TOTEN  =      -746.75219457 eV

  energy without entropy =     -746.58458011  energy(sigma->0) =     -746.66838734


--------------------------------------------------------------------------------------------------------




--------------------------------------- Iteration      1(  10)  ---------------------------------------


    POTLOK:  cpu time      2.1384: real time      2.1585
    SETDIJ:  cpu time      1.5514: real time      1.5524
    EDDIAG:  cpu time     33.3557: real time     33.3749
     EDDAV:  cpu time    157.9448: real time    158.0344
       DOS:  cpu time      0.0033: real time      0.0033
    CHARGE:  cpu time     19.4309: real time     19.4478
    MIXING:  cpu time      0.0451: real time      0.0451
    --------------------------------------------
      LOOP:  cpu time    214.4695: real time    214.6163

 eigenvalue-minimisations  :  1768
 total energy-change (2. order) : 0.3503459E-04  (-0.4695397E-04)
 number of electron     315.9999999 magnetization 
 augmentation part      -17.5584490 magnetization 

 Broyden mixing:
  rms(total) = 0.13955E-02    rms(broyden)= 0.89860E-02
  rms(prec ) = 0.16532E-02
  weight for this iteration     100.00
  WARNING: grid for Broyden might be to small

 eigenvalues of (default mixing * dielectric matrix)
  average eigenvalue GAMMA=   1.1189
  2.5958  2.5958  0.9917  0.9917  0.7368  0.6250  0.6250  0.5088  0.3992

 Free energy of the ion-electron system (eV)
  ---------------------------------------------------
  alpha Z        PSCENC =        36.17436600
  Ewald energy   TEWEN  =     46384.17619320
  -Hartree energ DENC   =    -53413.70174017
  -exchange      EXHF   =         0.00000000
  -V(xc)+E(xc)   XCENC  =      -369.56401049
  PAW double counting   =     46410.24846905   -45632.61545444
  entropy T*S    EENTRO =        -0.16748227
  eigenvalues    EBANDS =     -2250.46913932
  atomic energy  EATOM  =      8089.16663890
  Solvation  Ediel_sol  =         0.00000000
  ---------------------------------------------------
  free energy    TOTEN  =      -746.75215953 eV

  energy without entropy =     -746.58467726  energy(sigma->0) =     -746.66841840


--------------------------------------------------------------------------------------------------------




--------------------------------------- Iteration      1(  11)  ---------------------------------------


    POTLOK:  cpu time      2.1394: real time      2.1570
    SETDIJ:  cpu time      1.5464: real time      1.5474
    EDDIAG:  cpu time     33.3817: real time     33.4013
     EDDAV:  cpu time    157.0595: real time    157.1422
       DOS:  cpu time      0.0025: real time      0.0025
    CHARGE:  cpu time     19.4403: real time     19.4587
    MIXING:  cpu time      0.0464: real time      0.0464
    --------------------------------------------
      LOOP:  cpu time    213.6161: real time    213.7555

 eigenvalue-minimisations  :  1752
 total energy-change (2. order) :-0.6570119E-04  (-0.2409590E-04)
 number of electron     315.9999999 magnetization 
 augmentation part      -17.5585674 magnetization 

 Broyden mixing:
  rms(total) = 0.72521E-03    rms(broyden)= 0.88983E-02
  rms(prec ) = 0.95325E-03
  weight for this iteration     100.00
  WARNING: grid for Broyden might be to small

 eigenvalues of (default mixing * dielectric matrix)
  average eigenvalue GAMMA=   1.1280
  2.7032  2.7032  1.0798  1.0798  0.8795  0.4024  0.7011  0.5053  0.6341  0.5917

 Free energy of the ion-electron system (eV)
  ---------------------------------------------------
  alpha Z        PSCENC =        36.17436600
  Ewald energy   TEWEN  =     46384.17619320
  -Hartree energ DENC   =    -53413.40939335
  -exchange      EXHF   =         0.00000000
  -V(xc)+E(xc)   XCENC  =      -369.57673851
  PAW double counting   =     46406.91060242   -45629.27644193
  entropy T*S    EENTRO =        -0.16754700
  eigenvalues    EBANDS =     -2250.74990496
  atomic energy  EATOM  =      8089.16663890
  Solvation  Ediel_sol  =         0.00000000
  ---------------------------------------------------
  free energy    TOTEN  =      -746.75222523 eV

  energy without entropy =     -746.58467823  energy(sigma->0) =     -746.66845173


--------------------------------------------------------------------------------------------------------




--------------------------------------- Iteration      1(  12)  ---------------------------------------


    POTLOK:  cpu time      2.1536: real time      2.1727
    SETDIJ:  cpu time      1.5500: real time      1.5506
    EDDIAG:  cpu time     33.3661: real time     33.3882
     EDDAV:  cpu time    152.8329: real time    152.9173
       DOS:  cpu time      0.0030: real time      0.0030
    CHARGE:  cpu time     19.4633: real time     19.4794
    MIXING:  cpu time      0.0466: real time      0.0466
    --------------------------------------------
      LOOP:  cpu time    209.4155: real time    209.5579

 eigenvalue-minimisations  :  1672
 total energy-change (2. order) :-0.8673321E-04  (-0.1958537E-04)
 number of electron     315.9999999 magnetization 
 augmentation part      -17.5586289 magnetization 

 Broyden mixing:
  rms(total) = 0.40192E-03    rms(broyden)= 0.50992E-02
  rms(prec ) = 0.60634E-03
  weight for this iteration     100.00
  WARNING: grid for Broyden might be to small

 eigenvalues of (default mixing * dielectric matrix)
  average eigenvalue GAMMA=   1.1439
  2.7677  2.7677  1.5146  1.0774  0.8362  0.8362  0.4024  0.5020  0.6383  0.6383
  0.6022

 Free energy of the ion-electron system (eV)
  ---------------------------------------------------
  alpha Z        PSCENC =        36.17436600
  Ewald energy   TEWEN  =     46384.17619320
  -Hartree energ DENC   =    -53413.16594924
  -exchange      EXHF   =         0.00000000
  -V(xc)+E(xc)   XCENC  =      -369.58421592
  PAW double counting   =     46405.30485446   -45627.67030375
  entropy T*S    EENTRO =        -0.16753168
  eigenvalues    EBANDS =     -2250.98636396
  atomic energy  EATOM  =      8089.16663890
  Solvation  Ediel_sol  =         0.00000000
  ---------------------------------------------------
  free energy    TOTEN  =      -746.75231197 eV

  energy without entropy =     -746.58478029  energy(sigma->0) =     -746.66854613


--------------------------------------------------------------------------------------------------------




--------------------------------------- Iteration      1(  13)  ---------------------------------------


    POTLOK:  cpu time      2.1390: real time      2.1562
    SETDIJ:  cpu time      1.5393: real time      1.5403
    EDDIAG:  cpu time     33.3696: real time     33.3888
     EDDAV:  cpu time    152.4017: real time    152.4880
       DOS:  cpu time      0.0020: real time      0.0020
    CHARGE:  cpu time     19.4627: real time     19.4792
    MIXING:  cpu time      0.0482: real time      0.0482
    --------------------------------------------
      LOOP:  cpu time    208.9624: real time    209.1027

 eigenvalue-minimisations  :  1664
 total energy-change (2. order) :-0.1183445E-03  (-0.2175079E-04)
 number of electron     315.9999999 magnetization 
 augmentation part      -17.5586858 magnetization 

 Broyden mixing:
  rms(total) = 0.26093E-03    rms(broyden)= 0.31801E-02
  rms(prec ) = 0.42348E-03
  weight for this iteration     100.00
  WARNING: grid for Broyden might be to small

 eigenvalues of (default mixing * dielectric matrix)
  average eigenvalue GAMMA=   1.1924
  2.8828  2.8113  2.0259  1.1495  1.0867  0.8453  0.4022  0.7478  0.5025  0.6294
  0.6294  0.5961

 Free energy of the ion-electron system (eV)
  ---------------------------------------------------
  alpha Z        PSCENC =        36.17436600
  Ewald energy   TEWEN  =     46384.17619320
  -Hartree energ DENC   =    -53412.94841108
  -exchange      EXHF   =         0.00000000
  -V(xc)+E(xc)   XCENC  =      -369.59082260
  PAW double counting   =     46405.41121253   -45627.77677495
  entropy T*S    EENTRO =        -0.16754882
  eigenvalues    EBANDS =     -2251.19728349
  atomic energy  EATOM  =      8089.16663890
  Solvation  Ediel_sol  =         0.00000000
  ---------------------------------------------------
  free energy    TOTEN  =      -746.75243031 eV

  energy without entropy =     -746.58488149  energy(sigma->0) =     -746.66865590


--------------------------------------------------------------------------------------------------------




--------------------------------------- Iteration      1(  14)  ---------------------------------------


    POTLOK:  cpu time      2.1553: real time      2.1572
    SETDIJ:  cpu time      1.5387: real time      1.5394
    EDDIAG:  cpu time     33.3680: real time     33.3875
     EDDAV:  cpu time    152.5694: real time    152.6461
       DOS:  cpu time      0.0020: real time      0.0020
    CHARGE:  cpu time     19.4622: real time     19.4798
    MIXING:  cpu time      0.0483: real time      0.0483
    --------------------------------------------
      LOOP:  cpu time    209.1439: real time    209.2605

 eigenvalue-minimisations  :  1664
 total energy-change (2. order) :-0.1260388E-03  (-0.2183262E-04)
 number of electron     315.9999999 magnetization 
 augmentation part      -17.5587233 magnetization 

 Broyden mixing:
  rms(total) = 0.18138E-03    rms(broyden)= 0.20082E-02
  rms(prec ) = 0.30323E-03
  weight for this iteration     100.00
  WARNING: grid for Broyden might be to small

 eigenvalues of (default mixing * dielectric matrix)
  average eigenvalue GAMMA=   1.2111
  3.1691  2.7122  2.3108  1.3556  1.0389  0.8519  0.8519  0.4022  0.5032  0.6667
  0.6667  0.6077  0.6077

 Free energy of the ion-electron system (eV)
  ---------------------------------------------------
  alpha Z        PSCENC =        36.17436600
  Ewald energy   TEWEN  =     46384.17619320
  -Hartree energ DENC   =    -53412.76563553
  -exchange      EXHF   =         0.00000000
  -V(xc)+E(xc)   XCENC  =      -369.59436803
  PAW double counting   =     46405.49794348   -45627.86378412
  entropy T*S    EENTRO =        -0.16754843
  eigenvalues    EBANDS =     -2251.37636183
  atomic energy  EATOM  =      8089.16663890
  Solvation  Ediel_sol  =         0.00000000
  ---------------------------------------------------
  free energy    TOTEN  =      -746.75255635 eV

  energy without entropy =     -746.58500791  energy(sigma->0) =     -746.66878213


--------------------------------------------------------------------------------------------------------




--------------------------------------- Iteration      1(  15)  ---------------------------------------


    POTLOK:  cpu time      2.1354: real time      2.1539
    SETDIJ:  cpu time      1.5464: real time      1.5471
    EDDIAG:  cpu time     33.3823: real time     33.4038
     EDDAV:  cpu time    153.0502: real time    153.1329
       DOS:  cpu time      0.0030: real time      0.0030
    CHARGE:  cpu time     19.4450: real time     19.4623
    MIXING:  cpu time      0.0509: real time      0.0509
    --------------------------------------------
      LOOP:  cpu time    209.6132: real time    209.7539

 eigenvalue-minimisations  :  1672
 total energy-change (2. order) :-0.1381015E-03  (-0.2762734E-04)
 number of electron     315.9999999 magnetization 
 augmentation part      -17.5587652 magnetization 

 Broyden mixing:
  rms(total) = 0.11740E-03    rms(broyden)= 0.10835E-02
  rms(prec ) = 0.18655E-03
  weight for this iteration     100.00
  WARNING: grid for Broyden might be to small

 eigenvalues of (default mixing * dielectric matrix)
  average eigenvalue GAMMA=   1.2501
  3.5154  2.6291  2.6291  1.5963  1.0720  1.0720  0.8141  0.8055  0.4022  0.5031
  0.6440  0.6245  0.5971  0.5971

 Free energy of the ion-electron system (eV)
  ---------------------------------------------------
  alpha Z        PSCENC =        36.17436600
  Ewald energy   TEWEN  =     46384.17619320
  -Hartree energ DENC   =    -53412.56227195
  -exchange      EXHF   =         0.00000000
  -V(xc)+E(xc)   XCENC  =      -369.59778908
  PAW double counting   =     46405.37425979   -45627.74041892
  entropy T*S    EENTRO =        -0.16755078
  eigenvalues    EBANDS =     -2251.57612163
  atomic energy  EATOM  =      8089.16663890
  Solvation  Ediel_sol  =         0.00000000
  ---------------------------------------------------
  free energy    TOTEN  =      -746.75269445 eV

  energy without entropy =     -746.58514367  energy(sigma->0) =     -746.66891906


--------------------------------------------------------------------------------------------------------




--------------------------------------- Iteration      1(  16)  ---------------------------------------


    POTLOK:  cpu time      2.1600: real time      2.1620
    SETDIJ:  cpu time      1.5409: real time      1.5418
    EDDIAG:  cpu time     33.3813: real time     33.4020
     EDDAV:  cpu time    154.6531: real time    154.7376
       DOS:  cpu time      0.0019: real time      0.0019
    CHARGE:  cpu time     19.4614: real time     19.4788
    MIXING:  cpu time      0.0518: real time      0.0518
    --------------------------------------------
      LOOP:  cpu time    211.2505: real time    211.3760

 eigenvalue-minimisations  :  1704
 total energy-change (2. order) :-0.8813308E-04  (-0.1601925E-04)
 number of electron     315.9999999 magnetization 
 augmentation part      -17.5587793 magnetization 

 Broyden mixing:
  rms(total) = 0.79205E-04    rms(broyden)= 0.88953E-03
  rms(prec ) = 0.11808E-03
  weight for this iteration     100.00
  WARNING: grid for Broyden might be to small

 eigenvalues of (default mixing * dielectric matrix)
  average eigenvalue GAMMA=   1.2956
  3.9607  2.7106  2.7106  1.8809  1.2711  0.9849  0.9849  0.8448  0.4022  0.7204
  0.5028  0.6473  0.6135  0.5999  0.5999

 Free energy of the ion-electron system (eV)
  ---------------------------------------------------
  alpha Z        PSCENC =        36.17436600
  Ewald energy   TEWEN  =     46384.17619320
  -Hartree energ DENC   =    -53412.43861412
  -exchange      EXHF   =         0.00000000
  -V(xc)+E(xc)   XCENC  =      -369.59833934
  PAW double counting   =     46405.60853596   -45627.97481515
  entropy T*S    EENTRO =        -0.16755913
  eigenvalues    EBANDS =     -2251.69918890
  atomic energy  EATOM  =      8089.16663890
  Solvation  Ediel_sol  =         0.00000000
  ---------------------------------------------------
  free energy    TOTEN  =      -746.75278258 eV

  energy without entropy =     -746.58522345  energy(sigma->0) =     -746.66900302


--------------------------------------------------------------------------------------------------------




--------------------------------------- Iteration      1(  17)  ---------------------------------------


    POTLOK:  cpu time      2.1399: real time      2.1620
    SETDIJ:  cpu time      1.5415: real time      1.5421
    EDDIAG:  cpu time     33.3889: real time     33.4086
     EDDAV:  cpu time    152.6941: real time    152.7709
       DOS:  cpu time      0.0018: real time      0.0018
[...]
   -.855E+00 0.215E+02 0.315E+03   0.116E+00 -.217E+02 -.315E+03   0.724E+00 -.193E+00 -.565E+00   -.456E-04 -.585E-05 -.196E-04
   -.258E+02 -.202E+02 0.201E+03   0.243E+02 0.174E+02 -.201E+03   0.170E+01 0.246E+01 -.915E+00   0.216E-04 0.436E-05 -.459E-04
   0.358E+02 -.161E+02 0.304E+03   -.343E+02 0.159E+02 -.302E+03   -.125E+01 0.361E+00 -.150E+01   -.866E-06 0.128E-04 -.303E-05
   -.358E+01 0.441E+01 0.137E+03   0.326E+01 -.363E+01 -.139E+03   0.690E+00 -.517E+00 0.122E+01   -.449E-04 -.149E-05 -.504E-05
   -.904E+01 -.229E+02 0.249E+03   0.106E+02 0.214E+02 -.248E+03   -.147E+01 0.132E+01 -.825E+00   0.486E-05 0.561E-04 -.543E-04
   -.198E+02 0.770E+01 0.131E+03   0.195E+02 -.703E+01 -.132E+03   0.465E+00 -.387E+00 0.264E+00   -.348E-04 -.131E-04 0.492E-05
   -.129E+01 0.886E+00 0.197E+03   0.124E+01 -.142E+01 -.198E+03   0.357E+00 0.108E+00 0.435E+00   -.346E-04 -.183E-05 -.808E-05
   0.879E+01 -.627E+00 -.518E+02   -.838E+01 0.855E+00 0.516E+02   -.450E+00 -.187E+00 0.545E+00   0.157E-04 0.128E-04 -.433E-05
   0.637E+01 -.170E+02 0.763E+02   -.548E+01 0.181E+02 -.746E+02   -.622E+00 -.567E+00 -.144E+01   -.267E-04 0.377E-04 -.979E-05
   0.795E+01 0.187E+02 -.255E+03   -.801E+01 -.169E+02 0.253E+03   -.509E-01 -.167E+01 0.208E+01   -.536E-05 -.357E-04 0.154E-04
   -.152E+02 -.230E+02 -.265E+03   0.148E+02 0.214E+02 0.263E+03   0.625E+00 0.149E+01 0.231E+01   0.407E-04 -.668E-05 0.432E-04
   -.125E+02 -.391E+01 -.588E+02   0.108E+02 0.430E+01 0.580E+02   0.151E+01 -.450E+00 0.760E+00   0.300E-04 0.122E-04 0.990E-05
   0.321E+02 -.151E+02 -.249E+03   -.307E+02 0.159E+02 0.247E+03   -.133E+01 -.953E+00 0.154E+01   0.147E-04 -.341E-04 0.166E-04
   0.178E+02 0.111E+02 -.303E+03   -.195E+02 -.839E+01 0.301E+03   0.147E+01 -.256E+01 0.224E+01   -.275E-05 -.192E-04 0.471E-04
   0.526E+01 -.112E+02 -.323E+03   -.636E+01 0.858E+01 0.324E+03   0.807E+00 0.254E+01 -.120E+01   -.220E-04 -.244E-05 0.162E-04
   0.192E+01 0.108E+02 -.518E+02   0.352E+00 -.108E+02 0.510E+02   -.238E+01 0.205E+00 0.804E+00   0.793E-05 -.161E-04 0.370E-04
   0.316E+00 0.611E+01 0.198E+03   -.330E+00 -.686E+01 -.196E+03   -.151E-01 0.610E+00 -.207E+01   0.171E-04 -.348E-05 -.379E-04
   -.397E+01 0.457E+01 -.149E+03   0.432E+01 -.312E+01 0.149E+03   -.229E+00 -.161E+01 0.161E+00   -.206E-04 -.180E-04 0.276E-04
   -.972E+01 -.589E+01 -.470E+02   0.108E+02 0.592E+01 0.467E+02   -.108E+01 -.270E+00 0.413E-01   0.234E-04 0.111E-04 0.398E-04
   -.131E+00 -.946E+01 0.105E+03   0.116E+01 0.556E+01 -.102E+03   -.117E+01 0.375E+01 -.271E+01   0.400E-04 0.217E-05 -.735E-05
   -.560E+01 0.345E+01 -.194E+03   0.725E+01 -.161E+01 0.191E+03   -.171E+01 -.194E+01 0.264E+01   -.754E-04 0.429E-04 0.249E-04
   0.216E+01 -.114E+02 0.188E+03   -.204E+01 0.113E+02 -.186E+03   -.217E+00 0.161E+00 -.186E+01   0.282E-04 0.119E-05 -.218E-04
   0.230E+02 -.262E+02 -.189E+03   -.230E+02 0.218E+02 0.187E+03   -.130E+00 0.419E+01 0.196E+01   0.224E-04 -.158E-04 0.128E-04
   0.112E+02 -.115E+02 0.214E+03   -.927E+01 0.106E+02 -.212E+03   -.161E+01 0.878E+00 -.168E+01   -.751E-05 0.111E-05 -.140E-04
   0.899E+01 -.140E+02 -.193E+03   -.104E+02 0.116E+02 0.194E+03   0.119E+01 0.252E+01 -.557E+00   -.242E-04 -.167E-04 0.317E-04
   -.224E+02 0.164E+02 -.297E+03   0.218E+02 -.185E+02 0.297E+03   0.546E+00 0.217E+01 -.859E-01   0.125E-04 -.456E-05 0.161E-04
   -.356E+02 -.254E+02 -.314E+03   0.364E+02 0.264E+02 0.314E+03   -.442E+00 -.110E+01 0.160E+00   0.275E-04 0.176E-06 0.222E-04
   -.576E+02 0.374E+02 0.293E+03   0.586E+02 -.376E+02 -.294E+03   -.493E+00 0.558E+00 0.108E+01   -.283E-05 0.108E-04 -.329E-04
   -.209E+01 -.239E+02 0.303E+03   0.780E+00 0.208E+02 -.301E+03   0.102E+01 0.290E+01 -.188E+01   -.188E-04 0.201E-04 -.922E-05
   0.150E+02 -.809E+01 0.298E+03   -.155E+02 0.644E+01 -.296E+03   0.391E+00 0.134E+01 -.163E+01   0.115E-04 0.226E-06 -.139E-04
   0.179E+02 -.223E+02 -.130E+03   -.187E+02 0.212E+02 0.130E+03   0.475E+00 0.114E+01 0.478E+00   -.333E-04 -.798E-05 0.283E-06
   0.243E+02 0.269E+02 0.170E+03   -.217E+02 -.256E+02 -.171E+03   -.233E+01 -.170E+01 0.329E+00   0.122E-04 -.842E-05 -.260E-04
   0.217E+02 0.695E+01 -.272E+03   -.211E+02 -.750E+01 0.269E+03   -.334E+00 0.147E+00 0.339E+01   -.302E-04 -.915E-05 0.439E-04
   0.186E+02 -.949E+01 0.122E+03   -.185E+02 0.879E+01 -.120E+03   -.280E+00 0.808E+00 -.200E+01   0.158E-04 -.136E-04 -.116E-04
   -.339E+02 0.302E+02 -.273E+03   0.353E+02 -.310E+02 0.273E+03   -.138E+01 0.542E+00 0.525E+00   0.186E-04 -.363E-05 0.123E-04
   0.258E+02 0.227E+02 -.285E+03   -.253E+02 -.234E+02 0.286E+03   -.761E+00 0.392E+00 -.171E+00   0.142E-04 0.328E-05 0.889E-05
   0.309E+01 -.174E+02 0.255E+03   -.345E+01 0.169E+02 -.252E+03   0.507E+00 0.635E+00 -.246E+01   -.440E-05 0.689E-05 -.353E-04
   0.465E+00 -.137E+02 -.295E+01   -.158E+01 0.118E+02 0.108E+01   0.112E+01 0.179E+01 0.165E+01   -.172E-04 -.218E-04 0.186E-04
   -.525E+01 0.723E+01 0.221E+03   0.346E+01 -.467E+01 -.217E+03   0.177E+01 -.235E+01 -.375E+01   -.315E-04 -.191E-04 -.132E-04
   0.887E+01 0.261E+01 -.224E+02   -.849E+01 -.288E+01 0.222E+02   -.512E+00 0.285E-01 0.217E+00   -.307E-06 -.189E-04 0.506E-05
   -.172E+02 -.108E+02 -.263E+03   0.164E+02 0.126E+02 0.263E+03   0.924E+00 -.148E+01 0.200E+00   0.114E-05 0.213E-04 0.183E-04
   -.591E+01 -.957E+01 -.687E+02   0.689E+01 0.860E+01 0.693E+02   -.980E+00 0.113E+01 -.516E+00   -.387E-04 0.442E-06 0.839E-05
   0.679E+01 -.268E+02 -.301E+03   -.738E+01 0.255E+02 0.302E+03   0.622E+00 0.139E+01 0.244E+00   -.919E-06 -.219E-05 0.103E-05
   -.293E+01 -.889E+01 0.691E+02   0.256E+01 0.841E+01 -.684E+02   0.421E+00 0.469E+00 -.638E+00   -.218E-04 0.494E-05 -.181E-04
   0.243E+02 0.772E+01 0.925E+02   -.222E+02 -.611E+01 -.899E+02   -.193E+01 -.168E+01 -.230E+01   -.119E-04 0.343E-05 0.216E-05
   -.245E+02 0.148E+02 -.526E+02   0.237E+02 -.138E+02 0.527E+02   0.724E+00 -.906E+00 -.129E+00   0.257E-04 -.191E-04 0.800E-05
   0.361E+02 0.296E+01 -.323E+03   -.361E+02 -.200E+01 0.325E+03   -.244E-01 -.476E+00 -.156E+01   -.484E-04 0.231E-04 0.317E-04
   -.246E+02 0.821E+01 -.169E+03   0.240E+02 -.843E+01 0.167E+03   0.878E+00 0.230E+00 0.230E+01   0.147E-04 -.201E-05 0.188E-04
   -.418E+01 0.849E+00 0.158E+02   0.349E+01 -.187E+01 -.143E+02   0.413E+00 0.861E+00 -.121E+01   -.469E-04 0.389E-04 -.298E-05
   0.259E+02 0.322E+02 -.165E+03   -.265E+02 -.308E+02 0.164E+03   0.415E+00 -.136E+01 0.132E+01   -.444E-04 0.225E-04 0.192E-04
   -.381E+01 0.476E+01 -.128E+03   0.577E+01 -.546E+01 0.129E+03   -.191E+01 0.632E+00 -.532E+00   0.164E-04 0.243E-04 0.171E-04
   0.257E+02 0.271E+02 -.174E+03   -.260E+02 -.266E+02 0.176E+03   0.375E+00 -.477E+00 -.145E+01   -.874E-05 0.380E-04 0.263E-04
   0.101E+02 0.713E+01 -.199E+03   -.116E+02 -.592E+01 0.200E+03   0.164E+01 -.127E+01 -.572E+00   -.541E-05 -.129E-04 0.928E-05
 -----------------------------------------------------------------------------------------------
   -.664E+01 -.887E+01 0.143E+02   0.178E-14 0.167E-12 0.171E-11   0.664E+01 0.887E+01 -.143E+02   -.130E-03 0.805E-04 0.125E-03


 POSITION                                       TOTAL-FORCE (eV/Angst)
 -----------------------------------------------------------------------------------
      7.72912      9.42784     17.32319        -0.035409      0.024736      0.084522
      7.14585      1.13680     13.57727         0.310809      0.191791      0.068103
      6.61484      8.57318     10.94002        -0.122904      0.082272      0.068614
     13.09613      1.26217     12.72409         0.061090     -0.106316     -0.028667
      1.19663      4.23517     14.16986         0.013802     -0.146333     -0.066099
     12.69400     13.24916     16.63034         0.078744     -0.083333      0.170073
     10.56400     12.61809     17.41807        -0.075213      0.040478      0.407877
      0.64982      0.36931     14.73665         0.283895      0.149797      0.133560
      8.88171     11.80663     11.54028        -0.018401     -0.075566     -0.304374
      5.98855      5.51812     11.70352         0.124956      0.426217      0.040024
     14.41669     12.89971     11.35094         0.163967      0.231537     -0.203555
     12.04411     13.30547     14.40002         0.172348      0.047498     -0.042456
      2.21999      1.66888     11.53100         0.175077      0.052494     -0.208799
      2.74180     11.33540     13.64764         0.328471      0.004330      0.014261
      3.61327     10.39559     10.76531        -0.116220     -0.014482     -0.238540
      8.74726      2.77455     10.15708        -0.053792     -0.227732      0.416996
      9.33523     13.98926     12.21041         0.090314     -0.280293     -0.240768
     13.49684      4.02947     14.71524         0.090361     -0.099155      0.115264
      1.59499     12.77856     15.17429        -0.274928      0.519636      0.153519
     12.28875      3.91916     11.00564         0.223522     -0.061847     -0.534164
      7.78384      1.20930     12.18412        -0.897574     -0.231331     -0.239578
     11.90205      7.47851     10.66449        -0.043934      0.430913      0.238393
      7.32361      7.08483     10.49589        -0.044576     -0.041910     -0.567336
      8.24249      9.78858     15.97781         0.039599     -0.075154      0.089338
     12.44124      2.79779     12.98979        -0.382099      0.056391     -0.064517
      4.32920      1.76687     14.07447        -0.153875      0.121783     -0.011579
     12.36060      9.65858     11.06580        -0.077870     -0.289939      0.030711
     10.45142     10.21313     12.29738        -0.279294      0.008427     -0.164899
     13.54755      0.85305     16.35919        -0.342859      0.208181     -0.369447
      6.04824      0.42532     10.87975         0.007593     -0.313818     -0.479454
     13.20343      5.90069     11.80977         0.277012     -0.183639     -0.045272
      2.17454      3.91386     10.71908         0.313044      0.156460      0.390574
      5.45288     13.30802     12.42008         0.376958      0.215839     -0.205534
     10.03409      4.46288     11.16092         0.020714     -0.116235      0.098051
      6.86786     11.43439     12.60754         0.138945      0.266148     -0.075732
      4.54001      1.95521     11.70641         0.279657     -0.405966     -0.126609
      2.00448      2.04866     13.85381        -0.057845      0.005257      0.315652
      8.81826      3.26707     12.75928         0.215933      0.441188      0.049876
     10.46781     10.57617     16.20637        -0.103339     -0.006856      0.046526
     10.49105      3.34672     16.23431         0.175448     -0.040936      0.243137
     12.95764      6.27449     14.13508        -0.157058     -0.075807     -0.026967
      4.08972      8.63190     15.67937         0.075114     -0.153797      0.089383
      8.73111      1.96311     16.77573        -0.137175      0.045023     -0.367483
      5.56434      6.80770     16.50639        -0.325036     -0.047340     -0.093162
     10.15629      0.05272     14.28706        -0.238203      0.174049      0.065704
     14.33168     10.60414     12.00468        -0.046706     -0.100783     -0.057510
      6.77727     11.29755     14.97005         0.115901     -0.202893     -0.095157
     10.46535      2.35008     14.11369        -0.108331     -0.243598     -0.254408
     13.68554     14.22924     13.06249        -0.231878      0.091644      0.164095
      7.58511      5.99360     15.38750        -0.150955     -0.206566      0.189057
      1.00301      5.45950     12.09585        -0.093138      0.077290     -0.296694
      1.91119      7.58523     15.16693        -0.078999      0.024028      0.099444
      3.40730     12.52993     11.73486         0.226740     -0.057496     -0.150605
      7.10910     13.50460     15.39074        -0.147754      0.217713      0.210809
     11.99803      8.67247     16.36354        -0.044305      0.144915     -0.523362
     12.78253      3.00380     16.69881         0.225637     -0.192479     -0.006753
     10.30880      1.15093     10.92658         0.238331      0.344940      0.247758
      4.48157      4.02453     10.73703        -0.306826     -0.125644      0.216445
      1.82482     13.98354     10.83815        -0.148816     -0.297224      0.327069
      5.02726     14.14577     14.63462        -0.275522      0.091239     -0.066275
      1.94634      9.59964     12.18132         0.093974     -0.383193     -0.268872
      9.07018     14.20477     16.31637         0.228036     -0.350634      0.362369
      2.20470      7.33733     12.82679        -0.142572      0.142192     -0.069770
     14.37233     11.62789     16.11745        -0.132104      0.000495      0.052113
      2.11358      5.39386     15.96147        -0.192732     -0.198172      0.330239
      9.62062      6.76816     11.16128         0.208044      0.170304      0.155140
      5.48825      8.37148     13.77240         0.069025      0.056522     -0.138290
      5.55662      9.66355     11.84245         0.129459      0.051122      0.250509
     11.48040     11.06411     14.16575        -0.129598     -0.227409      0.121053
      9.72251      5.56024     16.10832         0.169254      0.166913     -0.012826
      7.73722      8.10176     14.43536        -0.069458      0.208884      0.047243
      3.69033     12.93775     16.15228         0.072899      0.076107      0.166331
      9.65158      8.09563     13.10103         0.053733      0.007470      0.023793
      4.38374      6.48397     13.07714         0.090611     -0.133333      0.179563
     13.68151     10.31631     14.27804        -0.026170      0.019402     -0.011635
      6.92540      3.30033     16.94435         0.052181      0.333640     -0.050833
     14.07609      8.15706     15.09639         0.273694      0.041038      0.291464
      7.04901      4.51965     13.59695        -0.258512     -0.126022      0.199187
      5.57405      3.43400     15.04623        -0.162110     -0.048929     -0.119863
     10.94660      7.13730     14.89776        -0.024221     -0.046179     -0.123348
      4.27623      5.36014     15.19591         0.176297     -0.026963     -0.003375
      4.43728     10.90295     15.30095         0.247122     -0.120998     -0.009272
 -----------------------------------------------------------------------------------
    total drift:                                0.002317      0.000310      0.004975


--------------------------------------------------------------------------------------------------------



  FREE ENERGIE OF THE ION-ELECTRON SYSTEM (eV)
  ---------------------------------------------------
  free  energy   TOTEN  =      -746.75283926 eV

  energy  without entropy=     -746.58527567  energy(sigma->0) =     -746.66905747



--------------------------------------------------------------------------------------------------------


    POTLOK:  cpu time      3.6636: real time      3.6777


--------------------------------------------------------------------------------------------------------


     LOOP+:  cpu time   4747.3253: real time   4750.4358
    4ORBIT:  cpu time      0.0000: real time      0.0000



 total charge

# of ion       s       p       d       tot
------------------------------------------
    1        0.567   0.016   0.000   0.582
    2        0.548   0.015   0.000   0.564
    3        0.532   0.015   0.000   0.547
    4        0.558   0.015   0.000   0.572
    5        0.763   0.936   0.000   1.699
    6        0.756   0.940   0.000   1.696
    7        0.804   0.832   0.000   1.636
    8        0.754   0.946   0.000   1.699
    9        0.791   0.876   0.000   1.667
   10        0.753   0.932   0.000   1.685
   11        0.775   0.901   0.000   1.676
   12        0.767   0.959   0.000   1.726
   13        0.759   0.920   0.000   1.679
   14        0.791   0.869   0.000   1.660
   15        0.804   0.863   0.000   1.667
   16        0.866   0.741   0.000   1.607
   17        0.763   0.944   0.000   1.706
   18        0.760   0.936   0.000   1.695
   19        0.761   0.934   0.000   1.695
   20        0.811   0.881   0.000   1.692
   21        0.748   0.929   0.000   1.677
   22        0.781   0.861   0.000   1.642
   23        0.836   0.767   0.000   1.603
   24        0.737   0.982   0.000   1.719
   25        0.784   0.886   0.000   1.670
   26        0.756   0.949   0.000   1.705
   27        0.776   0.892   0.000   1.668
   28        0.749   0.934   0.000   1.683
   29        0.776   0.872   0.000   1.648
   30        0.813   0.880   0.000   1.693
   31        0.755   0.924   0.000   1.679
   32        0.789   0.837   0.000   1.626
   33        0.765   0.942   0.000   1.707
   34        0.761   0.928   0.000   1.688
   35        0.754   0.947   0.000   1.701
   36        0.762   0.944   0.000   1.706
   37        0.752   0.942   0.000   1.694
   38        0.761   0.954   0.000   1.715
   39        0.750   0.915   0.000   1.665
   40        0.753   0.929   0.000   1.682
   41        0.762   0.927   0.000   1.689
   42        0.770   0.868   0.000   1.638
   43        0.785   0.886   0.000   1.671
   44        0.828   0.784   0.000   1.612
   45        0.768   0.957   0.000   1.725
   46        0.752   0.895   0.000   1.646
   47        0.755   0.960   0.000   1.715
   48        0.769   0.941   0.000   1.710
   49        0.778   0.887   0.000   1.666
   50        0.752   0.917   0.000   1.670
   51        0.756   0.907   0.000   1.663
   52        0.759   0.890   0.000   1.649
   53        0.758   0.943   0.000   1.701
   54        0.789   0.885   0.000   1.674
   55        0.820   0.774   0.000   1.594
   56        0.787   0.870   0.000   1.658
   57        0.856   0.737   0.000   1.592
   58        0.786   0.880   0.000   1.666
   59        0.779   0.880   0.000   1.660
   60        0.758   0.933   0.000   1.691
   61        0.760   0.907   0.000   1.667
   62        0.756   0.928   0.000   1.684
   63        0.753   0.936   0.000   1.688
   64        0.796   0.864   0.000   1.660
   65        0.809   0.881   0.000   1.690
   66        0.748   0.910   0.000   1.658
   67        0.761   0.952   0.000   1.714
   68        0.777   0.886   0.000   1.663
   69        0.766   0.957   0.000   1.723
   70        0.784   0.877   0.000   1.661
   71        0.763   0.955   0.000   1.718
   72        0.818   0.853   0.000   1.671
   73        0.769   0.895   0.000   1.664
   74        0.764   0.940   0.000   1.704
   75        0.764   0.923   0.000   1.686
   76        0.837   0.785   0.000   1.622
   77        0.772   0.857   0.000   1.629
   78        0.766   0.918   0.000   1.684
   79        0.756   0.953   0.000   1.710
   80        0.757   0.936   0.000   1.693
   81        0.758   0.954   0.000   1.712
   82        0.760   0.902   0.000   1.662
--------------------------------------------------
tot         62.599  70.376   0.000 132.975


 total amount of memory used by VASP MPI-rank0   340497. kBytes
=======================================================================

   base                                    :      30000. kBytes
   nonl-proj                               :      62628. kBytes
   fftplans                                :     108846. kBytes
   grid                                    :      83991. kBytes
   one-center                              :         18. kBytes
   wavefun                                 :      55014. kBytes

  
  
 General timing and accounting informations for this job:
 ========================================================
  
                  Total CPU time used (sec):     4890.077
                            User time (sec):     4344.659
                          System time (sec):      545.418
                         Elapsed time (sec):     4893.293
  
                   Maximum memory used (kb):      606688.
                   Average memory used (kb):          N/A
  
                          Minor page faults:      4512798
                          Major page faults:         1154
                 Voluntary context switches:         2962
