LAMMPS data file via write_data, version 2 Apr 2025, timestep = 1001000, units = metal

1000 atoms
2 atom types

0 23.421269014615625 xlo xhi
0 23.421269014615625 ylo yhi
0 23.421269014615625 zlo zhi

Atom Type Labels

1 H
2 Si

Masses

1 1.00784
2 28.0855

Atoms # atomic

338 2 2.6037655273452334 2.1335787248360454 4.281218542911818 2 1 -2
933 2 0.8595722894343568 4.431326037642333 2.2475781201907727 -1 0 1
582 2 1.78597282830432 2.854542645102638 1.0931886187477762 -1 2 0
674 2 2.044321443843466 0.5030977735544409 1.6114754812223986 0 0 -2
875 2 4.4051176847964415 4.792764244065475 1.8693205099578016 0 0 0
214 1 5.630925618215429 2.8585130198510815 3.8133653136148924 -3 -2 -1
260 1 1.71609993393782 1.6899367847546778 3.2088341081491567 -3 1 -1
751 2 3.970168825995209 4.04003892566778 4.045198625647367 1 -1 1
296 1 5.781699666424243 3.2021232799356856 2.914465676405036 -1 1 0
907 2 4.832103996803001 1.0840058218937696 1.1782508811452779 1 3 0
67 1 1.0154461912628858 0.6851913206437629 5.9469232165525545 1 4 0
257 1 6.910524577139692 5.036497093610944 2.534064585704592 1 -2 0
849 2 9.223077408687887 4.398765087043145 0.49757498587891463 -1 -1 0
321 2 6.105664829389569 1.219517047603192 5.05087422324779 1 2 0
195 1 5.824076658404507 5.098243786774953 4.684878720449049 -2 1 -1
740 2 9.958165353580874 5.640929830908728 2.7197464819762267 -1 -1 1
729 2 6.709579758577251 3.5031894288638927 4.784974869149776 -1 1 1
542 2 8.04270380064661 3.752846058665309 2.809692090681876 0 1 0
369 2 6.212393306485005 3.227468537567659 0.8743724742946922 0 0 1
858 2 9.560418951926152 2.7613184709081655 5.071491511295259 -1 2 -1
637 2 10.281577647441873 1.2677091762641728 3.59695051688117 2 1 -2
66 1 11.547035763819263 5.8646774238796935 2.576774590786545 2 3 4
992 2 6.8198793559193716 5.4911852334607705 1.0329466144287345 -1 0 2
124 1 7.738332755861047 2.215903605426036 2.0925643834562457 -4 2 0
317 2 2.39347268675623 6.788366786538186 0.09657720698887212 -1 0 -1
27 1 3.465359177316642 10.307924938984193 1.3433889445384715 0 2 4
36 1 3.9308021481246658 1.2964330474494135 4.007781132035534 3 1 2
240 1 9.393113862662009 2.0690272948701405 1.5460705719412693 3 2 -1
945 2 6.970457906494733 0.40089914855407105 3.0630285905690258 1 0 -2
23 1 8.464828450972592 4.833935493057347 6.588639512621315 1 2 -2
822 2 10.371255855602655 0.918931369867792 0.9361984302933 -1 0 1
876 2 6.574076008497488 7.271775560278228 8.287579456438406 0 -1 -1
107 1 6.323038896392801 7.888200595688469 5.631020351031885 1 0 1
962 2 2.615208120633292 5.562357990978266 5.201538403423297 -1 -1 1
153 1 6.120052402245076 7.681798085918884 2.1293450726218555 -2 0 0
353 2 0.6311033948260495 10.17270083825552 4.258674550050032 1 1 2
527 2 4.779669925821972 7.082347972668454 1.5694747641771298 -2 0 0
757 2 1.1818839817116842 7.031087689884734 2.0882014371991766 2 0 1
191 1 5.570251521305857 2.1080461342705124 7.306454824324615 1 4 1
976 2 3.4348901276934494 8.905546853100597 0.5912766944067899 1 0 1
830 2 3.239903522360977 9.766064106248042 3.9893174951942103 1 -1 0
252 1 5.554275105920271 10.445835991310533 2.1838301464778347 -1 2 -1
752 2 6.446720638172284 11.094939831031171 3.483405231395502 0 1 1
683 2 7.524943662451638 9.076958422411385 9.445991149208982 -1 0 -1
488 2 0.9984751336419996 9.274525736598802 1.454724001209667 0 -1 -2
560 2 2.1461555301838584 7.547708466968301 4.117480120647173 2 1 1
266 1 8.354263329759771 9.762776256756958 10.546156427804549 0 0 1
80 1 7.254560055219683 9.714112690044457 1.5093229000480777 3 -3 2
243 1 2.165278495107835 10.306237058776128 2.144959372978637 1 -1 3
20 1 11.410495040751595 4.769336123604943 10.224262701327419 1 0 1
246 1 8.328620202979586 8.79962283905715 0.4135154664179919 3 1 2
132 1 11.595339610330717 2.8635682157551243 9.983236005927527 4 0 4
713 2 8.820941264271372 8.072933520648588 3.603363718762896 1 -1 1
864 2 11.630011365721098 10.580245180034797 3.508903028238764 1 1 2
206 1 5.938380133606324 10.038900431408626 4.67021886659787 3 -1 -1
193 1 8.329893590176788 6.731158957624776 2.1461556840593903 -1 1 2
508 2 10.701728417136092 8.7169864068039 4.961220427013733 -1 0 0
545 2 5.787462265923174 6.401397110105276 5.115564329512637 1 0 -1
739 2 8.550789139781596 10.478515689452601 3.3914570007894898 0 -1 1
511 2 6.904875641318758 9.64296249488463 0.153017165209582 1 -1 0
566 2 8.878571563769661 6.916981868340066 0.710465922284798 -1 -1 0
564 2 10.230052313308764 9.386537796735741 1.7851579983671417 -1 0 1
282 1 9.335490627350437 5.377871497255624 4.120700046938586 0 2 7
847 2 6.960918700775418 9.254063261337597 5.576502275101157 0 0 -1
38 1 4.823566785820492 6.281512062316871 3.835047086144466 0 3 3
483 2 8.745230145408925 11.650603063184379 5.43109355027419 1 0 1
793 2 0.3696802709459065 7.842764247760612 5.304192391117887 -1 0 -1
585 2 0.36942215970235315 0.3185742816004734 8.514446248387086 1 3 1
800 2 1.21147269280173 4.3550270263233575 6.411114466215979 0 0 0
916 2 2.860890610495398 2.798741354190715 7.247343867134666 2 1 1
997 2 2.6810851802559856 0.38860905125946843 6.2701849318542875 0 1 0
776 2 4.516494378987007 4.396110545437694 9.570331050770973 0 1 1
668 2 2.185746560673127 1.6057760168360868 9.104953526113656 2 2 2
955 2 4.983557750624154 0.674753641830158 10.460023997023995 2 0 1
825 2 2.2493319079466056 3.3982886214515835 10.562973376723416 1 1 0
911 2 2.6403801286605577 4.9040884779643745 8.650222816727501 0 0 1
912 2 5.509006942757022 3.7296928794218536 7.450356890694483 0 0 0
939 2 10.308707023509848 9.821674091525605 8.359021372377988 1 0 0
120 1 6.506081473981986 4.498389802316309 6.668399083690027 2 -1 0
469 2 5.151667186204002 2.6691757351673515 11.684892761550657 1 0 -2
850 2 6.933487172289001 5.669939672106459 10.937237874888256 0 0 1
514 2 11.423910199088676 3.7912274776790325 3.9417010058236177 0 0 0
83 1 10.229565029621549 1.4254386107081716 10.488965448716005 1 -1 -1
154 1 11.464777801354458 3.4733646034512824 8.087456113677899 2 -1 -1
152 1 1.2198872390102018 9.215491676111716 11.611992549297666 2 1 -1
139 1 4.290659378974798 5.364289467316447 5.5094987139225635 4 -2 0
738 2 6.121745733888943 0.3206404949364939 7.027595177685336 0 0 1
176 1 7.988406327287501 4.7212812122188845 6.069081691001302 -1 0 -1
904 2 9.886668964323924 3.9549525247698134 8.433395713444616 1 1 -2
78 1 9.179902156175261 6.4477656390372085 10.830173198857144 4 4 -1
645 2 7.312628228268964 0.7545439105568197 11.10377977755922 1 0 -1
927 2 8.667254618174264 3.8701569946701446 10.780424069716144 0 0 1
746 2 10.816473046707504 5.159630537038003 5.868354023352881 0 3 -1
1000 2 6.759983578076098 3.009043741499662 9.708943268672563 -2 1 -1
556 2 8.679881675804792 2.1772813587088424 7.392145324839682 1 1 1
216 1 0.07000397358538153 9.759251869791685 2.7695108099392667 2 -2 1
486 2 0.013590311728488555 11.109847337117353 9.352039200201288 1 -1 1
50 1 4.294901826124718 9.002696001680828 3.0713663554006594 -1 -1 1
366 2 3.7709258134537773 9.382230357684042 6.949655450172932 -1 1 1
336 2 0.5649363001618358 6.066023600943201 7.814349422051548 -1 1 -1
347 2 0.7213476430320453 8.032588322199734 10.212246117846538 0 0 -1
593 2 4.372561435983576 5.880244485446171 11.322542773500127 -1 0 -1
609 2 3.8270486200045135 8.205531481567691 11.177841231634366 0 -2 0
478 2 1.5500658633325162 5.4974890237090115 10.568826129509805 1 -1 0
421 2 4.205865516826869 6.521210679108889 6.616016110462887 0 2 -1
436 2 1.8306502944007017 7.961664958666464 7.3523181043248576 0 0 1
869 2 1.1440629786327987 10.987249634849283 7.50606917664016 2 -1 0
557 2 3.75260811777871 11.093435921466858 8.76039640972653 1 -1 1
719 2 2.513030227371177 9.111396310666818 9.43836985668604 -1 1 1
919 2 4.955283438670534 8.601665957421407 8.916960169287588 0 0 3
678 2 11.487626792253376 9.039111208426618 10.510820992177486 1 0 0
592 2 8.741925500263813 11.37834904105625 9.286747388037606 -1 -2 -1
88 1 7.21035085921517 7.007917698521579 4.155798620104638 0 1 -3
43 1 7.494056882930429 7.800913178229309 7.130666681562935 2 -1 -1
630 2 9.025625014480628 8.599544155670074 6.533288555169856 0 2 0
274 1 7.15782749039151 7.790620677150514 10.27437094720258 0 -2 -2
805 2 9.526160858709153 6.391847201654721 7.403280243707333 0 0 -2
298 1 11.6695082582069 0.2899417456431101 1.2948092882254052 2 -1 0
370 2 10.034077673190879 7.29794112583957 9.651579186485508 0 2 1
114 1 5.731346168969312 9.478044986023967 7.24210411529642 1 2 2
698 2 6.916477085576514 11.185822708659616 7.059222160258936 1 2 1
95 1 0.340259810998659 6.579780648011969 3.141101154179896 0 2 -1
99 1 11.438985257636984 8.54740940757232 7.6556691026637775 1 4 2
797 2 9.395265493634259 0.29796043012402607 7.809440163404491 0 0 1
134 1 8.03226576404423 0.7230304203667349 1.6393057277524918 -4 1 1
227 1 5.687935535186757 10.327383689283158 10.960517292781157 -1 1 0
222 1 11.188122967087239 2.6059981286555263 22.648009610185127 -1 1 -3
936 2 2.1266505200309593 2.70154537307403 15.987815005264878 -2 0 0
788 2 4.151636280563108 4.034244639455978 14.23467470501758 0 1 -1
860 2 2.264461802348123 1.2319932444714299 14.114797400330755 0 1 0
780 2 2.7693506290421612 5.287921820819173 15.98129316528951 1 0 -1
930 2 4.90451986573943 6.049192382243948 13.576276874986064 1 -1 1
798 2 5.02417227395909 2.061455373332496 14.679407067652262 0 0 1
619 2 1.943358760242611 3.522525926386446 12.9062726820591 0 0 2
926 2 0.24890420865619378 5.6546276210790625 12.409857230214019 0 0 0
393 2 3.4485925109741267 1.0069055205311943 12.315415914536096 2 1 0
648 2 5.465207514713085 4.8227417939317 15.834654059537124 2 0 0
720 2 6.397017615751538 0.5566765568319274 18.234257838260756 1 2 -1
973 2 6.545205229602773 2.903663766820982 17.57015324976153 1 0 -1
786 2 6.662168493027574 4.230686254446072 12.509659202201636 -1 0 0
628 2 8.179571084914814 1.1345710777233688 17.00282504644446 1 1 0
975 2 9.532251552834794 3.4655291891921403 16.96090792740067 0 0 -1
452 2 9.339112943728251 1.3412884406364154 15.072728479057883 0 0 -1
974 2 6.733443091163627 1.260927726097023 13.262978434919084 0 0 0
954 2 7.792134603985353 3.3279812482685744 14.442838369680814 1 -2 -2
14 1 5.316556784450657 10.045755941276676 15.762769390696578 3 -2 -1
197 1 9.911718397081046 10.862834349659765 14.139160494004708 -2 3 -3
388 2 9.020393002488358 8.288895016083769 20.656343514448402 0 0 -2
672 2 11.1137022396973 3.7186383768850426 12.887640577836173 -1 -1 0
783 2 9.592785709345872 5.010378443806823 15.189861471535592 -1 0 2
189 1 8.23594065598273 4.565271781326386 17.00097267895643 1 2 -2
689 2 3.768864923143156 10.66679520622407 19.48935458551932 1 -1 1
276 1 2.4899076764988908 10.787346514137539 15.129260214407443 0 1 1
538 2 1.0246801880744079 7.400580184907576 16.16498855819226 2 0 1
547 2 2.052101235113423 6.863950566812232 14.234203142529388 0 1 0
969 2 3.3312384349570143 9.651707287583555 16.00894436016688 -1 -1 1
435 2 3.153413869089729 11.42686962112013 17.31626631599888 -1 -2 -1
323 2 3.8544207096054617 8.498506513742274 13.50531548009771 0 0 -3
559 2 11.484428849480238 10.941515441669283 16.527502145932413 0 0 0
459 2 4.439950974803654 8.10772645718709 18.312975170321003 0 -1 -2
935 2 3.316977638586091 11.043570778054084 12.727819651913396 0 2 1
424 2 0.20315364725554763 6.408743626962156 17.97578998169459 0 0 -2
765 2 8.690260993099608 0.014433289622422987 23.121003628954007 1 0 -1
103 1 5.311111804679712 8.78742606749334 15.478618473560168 1 -2 0
104 1 1.9631435109411635 9.484535485678222 13.857747190215603 3 -1 -1
312 2 8.618409746746108 11.635277443190818 19.872399485148037 0 -1 -2
135 1 1.7897465442251657 9.664406274288103 12.121027290299478 1 -1 4
286 1 10.279517220512986 9.244745625489168 11.889288773164612 -1 0 2
218 1 6.011633323818568 10.274754160422642 11.777520539522316 0 -2 4
137 1 3.8270892258170273 7.056558561652614 16.80693966662055 1 2 -2
254 1 10.93646643373874 3.3524003183050506 14.506732676680858 3 0 -1
580 2 10.118482204431926 6.465632004434636 17.771617127669046 1 -1 2
877 2 7.048553381821445 6.531441577800361 14.5102667715037 1 2 -2
12 1 9.173796227272092 9.471105606373257 12.646616376060424 3 0 0
416 2 8.825265417775183 6.234822335948941 12.990409844411376 0 -1 0
521 2 0.07831530452733314 9.17312540117927 22.812587667761537 0 -1 -1
450 2 5.350257598766146 10.396331799912717 14.029368484933284 0 1 0
504 2 10.180785351063356 8.00678583296814 14.76397536303637 0 0 1
748 2 7.094714409195952 7.682613898231702 12.258749035371999 0 -1 0
732 2 11.191674466141263 10.369971606134355 14.021356577378032 -3 -1 0
550 2 8.530148766048521 9.7257789581405 15.974683624087273 -2 1 0
531 2 7.773028146272026 10.16840719176565 13.49604907557872 -1 -1 0
447 2 11.567075582693809 6.589968356794562 15.557267680370966 -1 0 -1
932 2 6.277495584174374 7.976086708472888 16.09534960218968 2 -1 -1
79 1 5.433478399331678 5.707213159636221 21.633692035525282 2 1 0
54 1 10.022934460422793 9.064695209628312 17.56877111641709 0 -1 -2
627 2 11.665534245242497 8.227355892852746 12.65991283853946 1 1 0
884 2 1.133166759722127 4.072735468562321 17.794562826260726 0 1 1
62 1 4.746508784260784 2.7087414767393243 20.538611034867643 1 1 1
344 2 2.277240134564088 1.6155741965617545 19.309257688702825 3 0 -2
940 2 3.386262400808353 3.717346218579577 23.09324243555518 2 1 -1
489 2 3.6402887958050516 3.9245217352352215 17.747940456036883 1 1 1
770 2 4.413794966100974 0.44970768200796857 19.424932361767908 1 2 0
482 2 3.1996499204746005 3.17827909853905 20.5184742849232 1 -2 -2
913 2 0.6968330279000677 3.0982083634444724 20.71612310443182 0 1 0
584 2 1.0813828398640357 5.097394256088527 22.52141972748807 0 0 -1
374 2 4.121614860173828 1.7794807615383956 17.14563150475962 0 -2 -1
634 2 3.5791244807366858 5.384534111854551 20.8160456613268 0 1 -1
333 2 2.492347741634851 0.8828490159779605 21.906916666668543 1 1 -1
352 2 4.8711417974796545 5.447938966899367 18.989476005136446 0 -2 -1
271 1 5.366835812319136 4.732907281347047 20.818964240658627 1 0 -2
328 2 4.554781206842607 1.808220229426138 22.30160480473616 0 0 -2
351 2 0.2711019488283576 4.472423352741132 14.605682512861437 1 0 -1
165 1 7.139217711511722 1.919142297571669 22.46092379590667 0 0 -1
157 1 6.490101982926509 6.157511134743233 18.36243319469018 -3 0 -3
785 2 9.587233365013875 1.9078885735936153 11.98085968978285 1 1 0
795 2 11.240946272967943 1.9667976538065044 15.515628989877351 0 0 -1
886 2 6.94045938001351 4.315030171087378 20.269260538672842 1 0 1
391 2 8.44378210043993 5.075384998117088 18.780086980517385 -1 0 0
902 2 8.806301795112354 2.2420446027533525 19.22307080792215 -1 1 -1
143 1 5.412854516153101 8.211186631783072 11.773819123897567 1 0 3
476 2 8.02545203825757 3.210499977444839 22.203679363078173 0 2 1
507 2 6.5624882040278445 1.9676211492868603 20.233845046458136 -1 -1 -2
813 2 10.053039830859367 1.862778681225094 21.346715536536827 0 -2 0
226 1 11.583985082969324 3.12850535008711 19.619255660600448 0 0 0
85 1 9.052770046641937 7.486099228056928 22.224543456889126 0 2 -1
570 2 10.816192567298566 5.716728421447587 20.013513690412942 -1 2 0
89 1 10.125340018708062 4.393465957865039 20.536149332260308 -4 3 2
378 2 9.236710721810756 5.821005719520087 22.29528816495247 0 1 -1
986 2 4.268319991360415 0.2544524300559749 15.794158083747975 0 -1 -2
297 1 3.518809189035584 8.312747142386652 20.726254503251003 0 1 0
202 1 5.803088762817333 8.760781595877344 20.30995753480437 1 3 -1
481 2 1.510293571813614 9.977660108999173 19.18583053310475 0 0 0
921 2 6.437466964062231 7.19115081949205 21.688877432593237 1 1 -1
535 2 0.943777086987295 9.674137177361345 16.956144520325584 0 -2 -1
205 1 3.0122597509132114 8.385356504406184 18.963166254757574 -1 2 0
285 1 3.898738822886083 6.981486046191224 22.979717880606547 0 4 -3
618 2 1.22131701809868 8.490308903476212 21.106035194286267 -1 -1 -1
320 2 5.888308405050357 9.887968636487747 18.5956473699396 2 0 1
900 2 4.700168500624456 9.780066342918529 22.35437019223727 -1 2 1
722 2 1.3785961067904495 6.061280468953718 20.093642844513774 2 0 -1
681 2 2.4787057976552527 10.411153230300457 22.61086649742665 -1 1 0
4 1 3.3816634824264287 7.635307351239311 20.92625819080215 -4 1 -1
224 1 1.135745809677761 9.249742333248214 14.137710510653527 2 1 -2
513 2 11.314888876890695 7.076261444418883 22.264456596109504 1 -1 -2
444 2 11.453106327469662 8.412972550634285 17.665446838425122 1 2 2
725 2 11.478795455444518 11.244445431050105 20.089138584030206 0 -1 0
539 2 11.355589898904938 8.762907398406131 19.98135771768885 -1 1 -1
775 2 7.921786052239347 7.403140688704007 18.792694705920383 1 1 0
375 2 9.882339909368719 10.20781431090367 23.058020898323292 0 1 -1
288 1 5.286765057692107 7.268359444297367 20.713057999507424 3 -1 -2
685 2 8.455405211560834 9.549145004701822 18.21716993567284 0 0 -2
704 2 7.163723877538345 9.95521987676284 20.77462582783548 2 0 1
270 1 10.716655576272975 4.676111420599024 11.88943954933801 -2 2 -3
111 1 10.152089664260245 6.918700614324046 11.795698979400727 1 2 1
442 2 3.5649940143800767 14.42246465265035 1.7270578698751196 2 0 2
724 2 5.249417099736352 14.713995135563806 3.5563844507626152 -1 3 1
652 2 5.6015489569602925 16.63943412696742 5.105251960860592 0 0 0
623 2 3.01296257844514 12.232686695181854 3.018073878405487 1 -3 1
558 2 1.3756959940935398 14.578288022905367 2.902929223613692 -2 -3 -1
857 2 2.5475405147335506 14.884968493752146 5.111553584178151 1 0 1
471 2 4.794833616661667 12.436394906338561 4.434276333215735 0 -2 -1
745 2 2.9609237652459384 12.367263499621677 0.5530399217834948 -1 1 -1
422 2 10.416404001883457 11.89052684994108 6.921779733526108 0 0 2
831 2 5.389375886250666 16.812155051411036 2.231980534041929 -1 -1 0
494 2 1.7513359423866453 17.103998695007068 4.795336532652286 -1 -1 1
705 2 1.6396980996897623 12.951744615518836 5.78729812881666 1 0 0
607 2 1.370926031499556 17.10538309974468 2.5037958857626523 0 1 2
34 1 6.300194146010069 12.082628503972796 1.3738879383530076 1 -1 1
993 2 0.9054216964100672 12.16386019222554 3.7548807205334787 0 0 0
573 2 8.861930078190872 18.856117297020777 9.470637174490047 0 0 -1
968 2 7.5198471706403325 14.418064221779222 1.9365315871593651 -2 1 -1
837 2 10.832945211581988 16.319891363968743 6.284904126653297 -1 0 -1
316 2 6.907248053130894 16.01184364690274 0.5163022321126023 0 0 0
525 2 8.679306260263367 16.36979312365445 2.0865123162390704 2 -2 0
985 2 10.543130962758738 14.291788546605263 4.603807997248073 1 2 0
768 2 8.938468351275613 15.783524177848475 4.684410730259822 2 2 -1
952 2 9.396940306681788 11.859094978110871 1.1630556060644148 0 0 1
867 2 9.700294672698071 14.368811230998912 1.2439616873562869 -1 2 1
595 2 7.808682689910029 13.61331883806491 4.457346640410034 0 -2 1
281 1 5.78860774530825 12.159722129741205 1.955657859647072 -1 0 1
470 2 10.102606313565117 12.323856173692722 3.421662463093514 1 2 1
462 2 0.3803354396718799 20.70516041394393 5.483899079944469 1 0 2
217 1 4.3256559646170105 19.435029558670763 5.743424839823093 1 1 -1
439 2 4.449163139157224 20.033693570010346 1.0815997588731094 0 0 1
804 2 1.7472984592049596 19.88385707101762 3.754364532207796 -1 -1 1
774 2 2.4684062419691815 22.284016123853686 3.127654607439768 -1 -1 1
728 2 3.4438030129235946 18.629255600987765 5.002925606072516 -1 0 1
342 2 5.268318724793609 19.077029922586213 3.1607254398011837 0 0 -1
853 2 4.868992510253115 21.869395741873387 2.6373022127400203 1 0 0
485 2 2.137936877528907 19.297139609856966 1.2721090511942685 0 -2 0
94 1 0.4463228084363673 21.387700324827634 1.717527097255134 -1 -2 -3
116 1 7.966406066611773 12.363903717271157 0.5245152660881454 0 2 0
934 2 0.3863098235235366 22.92617874982518 3.3288044097551968 0 -2 0
845 2 2.089301176995465 17.243035946050874 0.12608331943026113 0 -1 1
221 1 4.967656763866773 21.632913610190794 4.661470684061929 -1 1 2
60 1 2.3380937562155424 22.63930514772508 0.6584389336027354 0 1 1
546 2 9.907365852196442 23.064937218588913 10.287969302167689 0 -1 -1
944 2 7.491112259797295 17.510840458385193 3.529024068276562 0 1 -1
410 2 7.246280381211396 20.44348423135789 3.124188619218567 0 0 0
583 2 11.012140876797611 22.084595384314635 1.8396437677369875 0 0 0
29 1 6.122526231908256 16.773698942896115 11.669070118687586 -3 -2 -1
322 2 7.007652316463634 19.08467407994804 0.36544871808414187 1 0 1
629 2 6.8518851809131895 20.787665446204258 5.629626410749201 1 -1 1
303 2 0.5140048396493797 12.62311153136875 11.472302601031942 1 0 0
615 2 8.838404336072784 18.55763811312063 1.365378494824709 2 -2 -1
383 2 8.986727649026017 21.11290594909075 0.6956680237739412 1 0 -1
567 2 11.132260960787992 19.464790697343616 1.7261116224813688 1 -1 0
505 2 8.709207245743935 19.582339212858667 5.18199736214152 -1 0 1
771 2 10.66044693412709 19.43063577289244 3.9643725903123666 -1 -1 0
789 2 9.456400998569606 21.935183958645485 3.984586304719395 1 0 1
268 1 7.10904936738135 22.06183043955497 2.472216791146732 -1 3 -2
480 2 10.533795175470356 23.271382243615207 5.559305541384668 2 -1 2
362 2 0.9205504373340022 16.933200253943927 7.117176475070383 0 0 1
220 1 3.400634344103102 23.145182586841862 4.887801183115869 3 -1 0
604 2 2.06861365522444 13.045293033877806 9.113096130017656 0 -2 1
917 2 1.7453793682632555 15.626568249630276 8.822955856820883 -1 1 1
990 2 0.1560790546176752 14.477146019744104 10.090667720280017 0 -2 1
463 2 3.1454096303185533 16.199074139615533 7.185091412250592 2 -2 -2
64 1 5.269224734624095 12.969744351144945 7.887535611123381 -2 2 1
715 2 1.4534840917840155 18.624978717560314 10.018282848311367 0 -2 1
533 2 4.28462876036332 13.498717740486644 9.914610650333156 1 0 1
816 2 4.304783090317795 12.277560819847785 6.775010942433988 1 -1 0
40 1 4.5976599065235515 16.02851411430833 8.54813510364861 1 2 -2
820 2 5.714608506756769 14.178331845543045 5.9871448573049095 -1 1 1
9 1 7.438589215606021 13.495046366933108 8.789027682452899 -2 1 0
551 2 8.340677355634716 13.14609427311226 7.603893546543673 -1 0 0
987 2 10.39102143498047 14.281235884689321 7.303099961170939 2 0 1
158 1 0.16645144677626308 18.171434910141528 1.715170903491537 1 -1 -1
31 1 11.024365878491954 13.485470175973422 11.122721439650931 0 1 -1
662 2 11.577271301877023 12.95697012618285 1.3759852669078203 1 -1 0
215 1 7.831690079042904 17.93401303135101 11.582038937094776 -2 -1 1
863 2 9.128814369449108 16.477054136780037 9.72017652589447 0 0 -1
946 2 5.053840042322074 16.13092456639384 10.188615687061091 1 0 0
762 2 6.779221789883818 14.80633681083654 8.62921015985806 0 0 0
169 1 7.832954251223441 14.458293000119625 10.714174478831458 -4 1 -2
838 2 8.155674909904604 15.41496354658302 6.638739500914704 2 -1 1
87 1 7.192162769368729 11.859565852342966 10.197344949658882 1 1 -1
811 2 8.501782661188106 20.324909459283443 7.665069422641343 0 0 1
70 1 6.474787450525771 12.453402684841507 5.832962222817994 -1 0 -3
981 2 4.804568913478303 22.1314506523443 6.686753997450914 0 0 0
727 2 2.93594551153082 23.086253238425318 10.371987597282489 0 0 -4
255 1 5.620894544024727 13.03140178524415 10.169202470548285 1 0 2
852 2 11.474106041557317 20.563144968888274 6.456884993769991 3 -1 2
691 2 4.300227040042309 18.67294065673494 7.698863814218537 1 1 0
692 2 2.942794374482407 16.693907083998134 11.305966750052187 1 0 1
625 2 1.8266225015003177 19.23072319090399 7.73444450330896 2 0 0
667 2 2.391848914572876 21.726777820743134 7.718982029328321 0 -1 -1
446 2 4.253420788456366 20.682816167266953 8.579127118506445 0 0 0
101 1 7.51281099708348 18.33681218365976 8.929797596709653 0 1 1
415 2 3.4719770238837966 19.79353634838251 10.518255178896446 1 1 -1
947 2 5.039925232192707 18.584127628614482 10.133152346283278 1 -1 2
673 2 10.488939442869787 18.493635657917952 6.773988160969159 -1 0 0
501 2 8.688551596621757 21.032258931456553 10.550088587520397 0 0 -1
299 1 9.706490387818492 12.621472401731026 9.890688940818393 1 0 1
292 1 6.542103425162337 19.38139747010673 9.90103858808797 -1 0 0
721 2 6.486638928964187 18.6016766244754 6.266296235373681 0 -1 1
541 2 6.4349977430912295 21.546011620543204 9.846173996838726 1 -1 0
589 2 7.447702402556419 22.358747928829025 8.029937191407422 0 -1 0
127 1 3.3210127286521813 14.43871304713107 11.07610662422241 2 0 0
57 1 7.405744219395901 16.45334788384981 9.455362772591595 0 -1 1
661 2 8.325817705477414 17.57890779276951 7.522656540311249 0 -1 1
178 1 10.612772768246112 19.500362602353686 9.287203932166179 0 -2 1
349 2 0.2926311815432868 19.774038729619857 11.405958638116411 1 -1 3
361 2 9.653489721216902 17.58048231267363 11.67414573663438 -2 3 0
167 1 11.682603107077746 18.264992116565466 4.4452837981511 -2 1 1
184 1 0.17177719228442012 22.737062835781003 0.23859125733720626 0 1 3
261 1 0.42771312493422653 20.72074567513789 1.0468092039822396 -3 1 1
163 1 8.510815174136289 23.12618566362942 9.927193628820723 -2 -1 1
262 1 6.571485315140189 12.737670821175717 0.15092615551993982 -1 0 -1
772 2 2.3142988234556885 13.649043123502052 16.13332933072892 -1 0 0
663 2 2.9734494097933584 16.737394330774826 17.387295079008663 1 -2 1
591 2 3.6291162181898695 15.012952633704431 14.328810419331568 -1 1 0
174 1 1.1166982534333285 21.234869946608566 21.879912824335495 -1 2 2
769 2 1.9299209543107048 12.186072571711156 14.571146427734872 1 0 1
319 2 1.8108434734615746 14.964683258647272 12.891675337941 -3 0 0
528 2 0.6706597136119727 16.140748124134078 15.537210944158401 1 0 0
13 1 4.531548342710113 14.397693443732484 19.035203511775364 1 -2 0
102 1 3.754693240440159 16.176708305168905 15.373502785703225 4 -1 -1
277 1 4.723369505503915 16.415799477302127 13.480400442035384 3 1 0
372 2 5.173385488668266 13.500704673973944 14.08284886154048 0 -1 0
643 2 11.256604553285198 19.648071125789176 18.480987128364273 -1 -1 0
534 2 0.29952885691637626 16.683863949171897 13.064267621558358 0 0 0
77 1 5.266342569512683 18.179993234813438 15.100710753561899 -1 0 0
702 2 5.129504856631711 16.49203481207584 16.459558371104155 -1 1 -1
956 2 3.5207636905173625 17.349916346970712 13.637584873421257 0 1 1
140 1 5.3677376523456175 12.569529284243176 15.453657118312291 3 0 -3
980 2 5.628527449746157 12.271982837631892 12.002961449231277 1 0 -1
600 2 3.8512027929406134 15.519983988186057 23.132502380470623 0 -1 0
571 2 9.768962905578249 15.209051581201853 15.289704379139337 -1 2 0
356 2 8.363078388995062 12.282227631340236 16.12929858543076 0 0 0
872 2 6.870072708377433 14.178159285305108 15.998013318186857 0 0 1
329 2 10.681894195527699 12.993319380838361 15.231404045872765 -2 0 0
400 2 8.874478670106686 17.8221725567338 16.242626905926983 -2 0 -2
836 2 8.935432972931286 11.985775788333736 12.482777556963379 1 -2 -1
524 2 10.695414343207652 15.64438147438577 12.446801718294472 0 -1 -1
665 2 7.449789190959092 16.569207523805677 12.499319370041269 1 1 0
179 1 7.159937256702776 16.4182971816623 15.417882106208884 5 -1 2
803 2 11.385126858190075 14.315411644656765 17.518462817336076 1 0 0
225 1 9.88002135200095 14.358269029869504 12.04268869932517 2 -2 -2
231 1 7.713829394998326 15.94531909697822 14.982431210905869 -1 -1 0
18 1 8.672981712373591 15.047832787995072 14.16874530450016 -2 1 4
125 1 7.980052616500203 13.11832691362046 13.347924275108463 0 1 3
491 2 6.646601034061355 18.16707196282547 20.036581654937184 1 -1 -1
376 2 2.518414890557095 18.544135682673865 15.380533088246905 0 0 -1
641 2 3.2768944750377047 20.796078437423184 13.191829813905075 -1 -1 1
885 2 3.842327132468068 20.54832988219469 16.504118158314313 0 -1 0
906 2 1.1160494900081201 18.963099046062645 13.615758302425691 1 1 2
173 1 2.360733585116154 20.31820169068519 15.642399840426625 2 -1 -2
461 2 5.156539604156027 22.806343919084856 13.486580804804653 1 0 -1
895 2 4.864229997562907 19.42751635270454 14.420756087018889 -2 0 -1
396 2 2.5249854485781653 22.398319584653333 14.725505723355097 1 1 2
809 2 11.004590075430935 17.790921814145005 23.271540265444862 0 0 0
432 2 0.9064378604447797 22.337164844891138 12.347836456958209 2 -1 0
603 2 6.076674835392362 19.970965418884724 16.56837591088227 0 -1 -1
368 2 2.483359754630434 22.546127157443557 17.2342764687546 3 -2 0
437 2 7.456902639474945 18.780110937714852 14.489189868374257 1 1 -1
959 2 7.44334332463687 21.640056458853746 15.457875776754284 2 -1 0
426 2 9.378491148656389 23.127607113823515 13.400895809696566 1 -3 0
384 2 11.206908703606004 22.00568971394655 13.39550315765901 1 0 0
161 1 9.580943698816421 20.544795698337246 14.100992266374726 -1 -1 2
93 1 9.738430094654763 19.75451859166313 16.919530617571038 1 -1 -1
119 1 10.253773857045093 20.22727313882854 16.307699555712254 -2 -2 -1
616 2 11.39911820581982 17.523559703641407 14.60685567544681 -1 0 1
905 2 9.463152240342026 22.46740402503455 16.373639850532548 0 0 0
651 2 6.653571056652292 19.058119201255465 11.993755329671531 1 -1 -2
466 2 9.546919164354675 18.933124628967146 13.968370854724482 -1 -1 0
8 1 8.717076093619923 15.758698907569281 16.681692606845132 0 -1 0
73 1 7.89013858824029 19.670560274697063 17.26784347396861 -3 -1 1
188 1 10.970854835029575 18.94903072179108 21.845569130970954 0 -2 -2
438 2 7.686777209358621 21.490138845129323 13.215489381541648 1 1 -1
664 2 6.169577046572199 23.33825446419079 22.85493851322738 -1 1 -1
180 1 8.051371241923238 19.091624123891446 19.827636996363204 -3 0 3
708 2 4.836443765225484 11.715741318436804 21.228805746406547 1 0 0
61 1 1.1552637115006918 14.21864999621014 20.913123354618012 1 0 1
177 1 4.441107467002151 12.221324997585903 17.523736941159484 1 0 2
203 1 1.882604103593258 16.981778194566797 20.090124293772398 0 -1 -1
688 2 9.661648165042234 23.12772224614256 21.189127130082465 0 -2 0
828 2 1.7641807758591956 14.466531368503048 18.356231630262823 0 1 -1
325 2 4.056843556030441 16.706325265866607 21.035073648961234 1 0 -1
350 2 3.1189207191806854 14.156623010779526 20.34013836891173 1 0 -1
109 1 10.93973830468229 17.2931026062332 20.66279063739895 0 0 -5
473 2 0.8551077258779969 11.990508615017143 23.396626314809346 1 1 0
871 2 4.760232761881993 13.482284917725401 22.76188237649857 0 0 0
530 2 5.265039747660197 20.831629583396555 11.941052228280643 0 0 0
7 1 2.2437747608047616 12.612143912180338 20.945144345641992 0 -2 -1