 vasp.6.5.0 16Dec24 (build Jan 20 2025 08:32:48) complex                         
 executed on        HPECrayEX_GCC date 2025.07.21  23:56:50
 running  128 mpi-ranks, with    1 threads/rank, on    1 nodes
 distrk:  each k-point on  128 cores,    1 groups
 distr:  one band on NCORE=  16 cores,    8 groups


--------------------------------------------------------------------------------------------------------


 INCAR:
   SYSTEM = a-Si SPC
   NCORE = 16
   ISTART = 1
   ICHARG = 1
   ISPIN = 1
   ISYM = 1
   EDIFF = 1E-6
   NELM = 150
   EDIFFG = -0.01
   NSW = 0
   ISIF = 2
   IBRION = -1
   PREC = Accurate
   ENCUT = 1200
   KSPACING = 0.23
   KGAMMA = .TRUE.
   METAGGA = SCAN
   LASPH = .TRUE.
   LDIAG = .FALSE.
   LMIXTAU = .TRUE.
   ADDGRID = .TRUE.
   ALGO = Normal
   ISMEAR = 0
   SIGMA = 0.1
   LORBIT = 11
   NEDOS = 2000
   LWAVE = .FALSE.
   LCHARG = .FALSE.

 POTCAR:    PAW_PBE H 15Jun2001                   
 POTCAR:    PAW_PBE Si 05Jan2001                  
 POTCAR:    PAW_PBE H 15Jun2001                   
   SHA256 =  030f79b5d3ab3cf0e668861823c8fb652ff669f3e15e46930bd03bfd63a607b6 H/POTCAR              
   COPYR  = (c) Copyright 15Jun2001 Georg Kresse                                                    
   COPYR  = This file is part of the software VASP. Any use, copying, and all other rights are regul
   COPYR  = If you do not have a valid VASP license, you may not use, copy or distribute this file. 
   VRHFIN =H: ultrasoft test                                                                        
   LEXCH  = PE                                                                                      
   EATOM  =    12.4884 eV,    0.9179 Ry                                                             
                                                                                                    
   TITEL  = PAW_PBE H 15Jun2001                                                                     
   LULTRA =        F    use ultrasoft PP ?                                                          
   IUNSCR =        0    unscreen: 0-lin 1-nonlin 2-no                                               
   RPACOR =    0.000    partial core radius                                                         
   POMASS =    1.000; ZVAL   =    1.000    mass and valenz                                          
   RCORE  =    1.100    outmost cutoff radius                                                       
   RWIGS  =    0.700; RWIGS  =    0.370    wigner-seitz radius (au A)                               
   ENMAX  =  250.000; ENMIN  =  200.000 eV                                                          
   RCLOC  =    0.701    cutoff for local pot                                                        
   LCOR   =        T    correct aug charges                                                         
   LPAW   =        T    paw PP                                                                      
   EAUG   =  400.000                                                                                
   RMAX   =    1.123    core radius for proj-oper                                                   
   RAUG   =    1.200    factor for augmentation sphere                                              
   RDEP   =    1.112    radius for radial grids                                                     
   RDEPT  =    0.926    core radius for aug-charge                                                  
                                                                                                    
   Atomic configuration                                                                             
    2 entries                                                                                       
     n  l   j            E        occ.                                                              
     1  0  0.50        -6.4927   1.0000                                                             
     2  1  0.50        -3.4015   0.0000                                                             
   Description                                                                                      
     l       E           TYP  RCUT    TYP  RCUT                                                     
     0     -6.4927494     23  1.100                                                                 
     0      6.8029130     23  1.100                                                                 
     1     -4.0817478     23  1.100                                                                 
  local pseudopotential read in
  atomic valenz-charges read in
  non local Contribution for L=           0  read in
    real space projection operators read in
  non local Contribution for L=           0  read in
    real space projection operators read in
  non local Contribution for L=           1  read in
    real space projection operators read in
    PAW grid and wavefunctions read in

   number of l-projection  operators is LMAX  =           3
   number of lm-projection operators is LMMAX =           5

 POTCAR:    PAW_PBE Si 05Jan2001                  
   SHA256 =  79d9987ad8750f624c4d6acb2a16d13abf6a777132adc04dc6c8399be72b42bb Si/POTCAR             
   COPYR  = (c) Copyright 05Jan2001 Georg Kresse                                                    
   COPYR  = This file is part of the software VASP. Any use, copying, and all other rights are regul
   COPYR  = If you do not have a valid VASP license, you may not use, copy or distribute this file. 
   VRHFIN =Si: s2p2                                                                                 
   LEXCH  = PE                                                                                      
   EATOM  =   103.0669 eV,    7.5752 Ry                                                             
                                                                                                    
   TITEL  = PAW_PBE Si 05Jan2001                                                                    
   LULTRA =        F    use ultrasoft PP ?                                                          
   IUNSCR =        1    unscreen: 0-lin 1-nonlin 2-no                                               
   RPACOR =    1.500    partial core radius                                                         
   POMASS =   28.085; ZVAL   =    4.000    mass and valenz                                          
   RCORE  =    1.900    outmost cutoff radius                                                       
   RWIGS  =    2.480; RWIGS  =    1.312    wigner-seitz radius (au A)                               
   ENMAX  =  245.345; ENMIN  =  184.009 eV                                                          
   ICORE  =        2    local potential                                                             
   LCOR   =        T    correct aug charges                                                         
   LPAW   =        T    paw PP                                                                      
   EAUG   =  322.069                                                                                
   DEXC   =    0.000                                                                                
   RMAX   =    1.950    core radius for proj-oper                                                   
   RAUG   =    1.300    factor for augmentation sphere                                              
   RDEP   =    1.993    radius for radial grids                                                     
   RDEPT  =    1.837    core radius for aug-charge                                                  
                                                                                                    
   Atomic configuration                                                                             
    6 entries                                                                                       
     n  l   j            E        occ.                                                              
     1  0  0.50     -1785.8828   2.0000                                                             
     2  0  0.50      -139.4969   2.0000                                                             
     2  1  1.50       -95.5546   6.0000                                                             
     3  0  0.50       -10.8127   2.0000                                                             
     3  1  0.50        -4.0811   2.0000                                                             
     3  2  1.50        -4.0817   0.0000                                                             
   Description                                                                                      
     l       E           TYP  RCUT    TYP  RCUT                                                     
     0    -10.8127223     23  1.900                                                                 
     0     -7.6451159     23  1.900                                                                 
     1     -4.0811372     23  1.900                                                                 
     1      2.4879257     23  1.900                                                                 
     2     -4.0817478      7  1.900                                                                 
  local pseudopotential read in
  partial core-charges read in
  partial kinetic energy density read in
  atomic valenz-charges read in
  non local Contribution for L=           0  read in
    real space projection operators read in
  non local Contribution for L=           0  read in
    real space projection operators read in
  non local Contribution for L=           1  read in
    real space projection operators read in
  non local Contribution for L=           1  read in
    real space projection operators read in
    PAW grid and wavefunctions read in

   number of l-projection  operators is LMAX  =           4
   number of lm-projection operators is LMMAX =           8

 -----------------------------------------------------------------------------
|                                                                             |
|               ----> ADVICE to this user running VASP <----                  |
|                                                                             |
|     You have a (more or less) 'large supercell' and for larger cells it     |
|     might be more efficient to use real-space projection operators.         |
|     Therefore, try LREAL= Auto in the INCAR file.                           |
|     Mind: For very accurate calculation, you might also keep the            |
|     reciprocal projection scheme (i.e. LREAL=.FALSE.).                      |
|                                                                             |
 -----------------------------------------------------------------------------

 -----------------------------------------------------------------------------
|                                                                             |
|               ----> ADVICE to this user running VASP <----                  |
|                                                                             |
|     You enforced a specific xc type in the INCAR file but a different       |
|     type was found in the POTCAR file.                                      |
|     I HOPE YOU KNOW WHAT YOU ARE DOING!                                     |
|                                                                             |
 -----------------------------------------------------------------------------

  PAW_PBE H 15Jun2001                   :
 energy of atom  1       EATOM=  -12.4884
 kinetic energy error for atom=    0.0000 (will be added to EATOM!!)
  PAW_PBE Si 05Jan2001                  :
 energy of atom  2       EATOM= -103.0669
 kinetic energy error for atom=    0.0001 (will be added to EATOM!!)


 POSCAR:  H Si
  positions in cartesian coordinates
  No initial velocities read in


 exchange-correlation table for SCAN
   RHO(1)=    0.500       N(1)  =     2000
   RHO(2)=  100.500       N(2)  =     4000



--------------------------------------------------------------------------------------------------------


 ion  position               nearest neighbor table
   1  0.912  0.748  0.390-  83 1.50
   2  0.224  0.885  0.639-  25 1.58  64 1.65
   3  0.768  0.699  0.476-  95 1.59
   4  0.915  0.769  0.475-  72 1.47
   5  0.953  0.571  0.497-  60 1.48
   6  0.770  0.436  0.587-  42 1.44
   7  0.125  0.830  0.451-  24 1.59
   8  0.171  0.983  0.438-  50 1.51
   9  0.886  0.590  0.418-  40 1.48
  10  0.948  0.387  0.570-  52 2.27  82 2.27  74 2.29  42 2.30
  11  0.505  0.164  0.377-  48 2.35  80 2.36  73 2.69
  12  0.071  0.708  0.540-  60 2.26  72 2.29  69 2.36  24 2.36
  13  0.358  0.252  0.484-  56 2.22  55 2.31  73 2.37  28 2.41
  14  0.816  0.884  0.422-  95 2.31  85 2.36  77 2.37
  15  0.214  0.358  0.640-  88 2.24  17 2.41
  16  0.182  0.219  0.370-  92 2.27  55 2.29  70 2.39
  17  0.204  0.473  0.580-  23 2.25 100 2.30  94 2.33  15 2.41
  18  0.598  0.951  0.367-  48 2.21  85 2.34  75 2.41
  19  0.890  0.052  0.554-  57 2.29  22 2.34  99 2.39  98 2.50
  20  0.398  0.024  0.639-  96 2.27  84 2.30  32 2.31
  21  0.067  0.626  0.412-  38 2.24  83 2.26  89 2.30  60 2.34
  22  0.871  0.895  0.569-  67 2.31  19 2.34  63 2.40  72 2.40
  23  0.137  0.453  0.510-  17 2.25  82 2.27 101 2.29  60 2.37
  24  0.161  0.822  0.503-   7 1.59  65 2.27  30 2.29  12 2.36
  25  0.158  0.965  0.622-   2 1.58  30 2.29  32 2.39  64 3.01
  26  0.512  0.338  0.564-  62 2.32  56 2.33  93 2.41  61 2.42  31 2.95
  27  0.545  0.665  0.377-  91 2.32  29 2.32  53 2.43
  28  0.233  0.194  0.531-  41 2.35  88 2.38  87 2.39  13 2.41
  29  0.432  0.554  0.386-  34 2.23  43 2.31  27 2.32
  30  0.143  0.959  0.542-  25 2.29  24 2.29  57 2.32  41 2.41
  31  0.550  0.411  0.469-  93 2.33  56 2.34  43 2.41  97 2.51  26 2.95
  32  0.254  0.088  0.648-  20 2.31  88 2.37  25 2.39
  33  0.003  0.363  0.423-  82 2.32  89 2.32  37 2.32  92 2.38
  34  0.304  0.567  0.429-  29 2.23 101 2.28  76 2.29  38 2.36
  35  0.370  0.822  0.563-  65 2.26  64 2.30  84 2.33  71 2.37
  36  0.663  0.512  0.646-  61 2.27  39 2.45
  37  0.856  0.386  0.393-  33 2.32  47 2.39  40 2.49
  38  0.206  0.661  0.383-  21 2.24  34 2.36  54 2.39  89 3.10
  39  0.754  0.644  0.620-  78 2.34  51 2.38  36 2.45
  40  0.800  0.536  0.424-   9 1.48  66 2.33  91 2.37  37 2.49
  41  0.280  0.041  0.521-  50 2.32  28 2.35  84 2.37  30 2.41
  42  0.799  0.394  0.544-   6 1.44  66 2.27  10 2.30  81 2.36
  43  0.512  0.416  0.387-  29 2.31  80 2.38  31 2.41
  44  0.924  0.098  0.391-  77 2.33  79 2.39  92 2.52
  45  0.358  0.880  0.425-  54 2.29  75 2.36  65 2.41  50 2.42
  46  0.523  0.663  0.500-  76 2.25  53 2.33  71 2.33  97 2.35
  47  0.737  0.280  0.414-  79 2.27  37 2.39
  48  0.650  0.093  0.374-  18 2.21  11 2.35  79 2.43
  49  0.519  0.019  0.506-  59 2.33  73 2.35  84 2.37  75 2.47
  50  0.269  0.018  0.441-   8 1.51  41 2.32  70 2.33  45 2.42
  51  0.647  0.763  0.602-  71 2.31  63 2.38  39 2.38
  52  0.963  0.529  0.601-  10 2.27  78 2.33 100 2.37
  53  0.567  0.769  0.443-  75 2.27  46 2.33  95 2.37  27 2.43
  54  0.276  0.807  0.368-  45 2.29  38 2.39
  55  0.291  0.293  0.414-  16 2.29  80 2.31  13 2.31 101 2.39
  56  0.409  0.389  0.507-  13 2.22  26 2.33  31 2.34  94 2.38
  57  0.020  0.038  0.509-  19 2.29  30 2.32  87 2.43  77 2.53
  58  0.447  0.582  0.600-  61 2.28  94 2.33  71 2.39
  59  0.661  0.013  0.544-  68 2.29  99 2.30  49 2.33  63 2.34
  60  0.053  0.588  0.491-   5 1.48  12 2.26  21 2.34  23 2.37
  61  0.569  0.489  0.584-  97 2.25  36 2.27  58 2.28  26 2.42
  62  0.436  0.253  0.621-  96 2.29  26 2.32  88 2.37
  63  0.716  0.862  0.545-  59 2.34  51 2.38  95 2.39  22 2.40
  64  0.261  0.785  0.619-   2 1.65  35 2.30  69 2.35  25 3.01
  65  0.312  0.788  0.492-  35 2.26  24 2.27  76 2.32  45 2.41
  66  0.774  0.527  0.504-  97 2.22  42 2.27  40 2.33  78 2.35
  67  0.905  0.875  0.647-  22 2.31
  68  0.646  0.091  0.613-  96 2.28  59 2.29  86 2.34
  69  0.107  0.735  0.619-  64 2.35  12 2.36 100 2.39
  70  0.260  0.075  0.365-  50 2.33  16 2.39
  71  0.502  0.729  0.574-  51 2.31  46 2.33  35 2.37  58 2.39
  72  0.925  0.762  0.526-   4 1.47  12 2.29  22 2.40  78 2.53
  73  0.491  0.162  0.471-  93 2.33  49 2.35  13 2.37  11 2.69
  74  0.957  0.288  0.632-  10 2.29  98 2.31
  75  0.514  0.915  0.437-  53 2.27  45 2.36  18 2.41  49 2.47
  76  0.370  0.640  0.491-  46 2.25  34 2.29  65 2.32  94 2.41
  77  0.954  0.967  0.435-  44 2.33  14 2.37  90 2.45  57 2.53
  78  0.857  0.615  0.559-  52 2.33  39 2.34  66 2.35  72 2.53
  79  0.778  0.131  0.426-  47 2.27  99 2.31  44 2.39  48 2.43
  80  0.413  0.295  0.363-  55 2.31  11 2.36  43 2.38
  81  0.731  0.246  0.539-  86 2.27  93 2.28  42 2.36  99 2.37
  82  0.024  0.346  0.503-  23 2.27  10 2.27  33 2.32  87 2.41
  83  0.003  0.734  0.366-   1 1.50  21 2.26  90 2.38
  84  0.406  0.977  0.562-  20 2.30  35 2.33  41 2.37  49 2.37
  85  0.737  0.877  0.350-  18 2.34  14 2.36
  86  0.741  0.221  0.617-  98 2.26  81 2.27  68 2.34
  87  0.082  0.192  0.498-  28 2.39  82 2.41  57 2.43  92 2.46
  88  0.276  0.230  0.609-  15 2.24  32 2.37  62 2.37  28 2.38
  89  0.106  0.475  0.398-  21 2.30  33 2.32 101 2.37  38 3.10
  90  0.030  0.896  0.368-  83 2.38  77 2.45
  91  0.682  0.584  0.372-  27 2.32  40 2.37
  92  0.051  0.208  0.413-  16 2.27  33 2.38  87 2.46  44 2.52
  93  0.596  0.269  0.500-  81 2.28  73 2.33  31 2.33  26 2.41
  94  0.343  0.517  0.547-  17 2.33  58 2.33  56 2.38  76 2.41
  95  0.720  0.796  0.468-   3 1.59  14 2.31  53 2.37  63 2.39
  96  0.513  0.128  0.650-  20 2.27  68 2.28  62 2.29
  97  0.623  0.540  0.515-  66 2.22  61 2.25  46 2.35  31 2.51
  98  0.878  0.150  0.626-  86 2.26  74 2.31  19 2.50
  99  0.767  0.102  0.505-  59 2.30  79 2.31  81 2.37  19 2.39
 100  0.115  0.571  0.624-  17 2.30  52 2.37  69 2.39
 101  0.232  0.432  0.447-  34 2.28  23 2.29  89 2.37  55 2.39

  LATTYP: Found a simple tetragonal cell.
 ALAT       =    14.5353600448
 C/A-ratio  =     1.9663565204
  
  Lattice vectors:
  
 A1 = (  14.5353600448,   0.0000000000,   0.0000000000)
 A2 = (   0.0000000000,  14.5353600448,   0.0000000000)
 A3 = (   0.0000000000,   0.0000000000,  28.5817000000)


Analysis of symmetry for initial positions (statically):
=====================================================================
 Subroutine PRICEL returns:
 Original cell was already a primitive cell.
 

 Routine SETGRP: Setting up the symmetry group for a 
 simple tetragonal supercell.


 Subroutine GETGRP returns: Found  1 space group operations
 (whereof  1 operations were pure point group operations)
 out of a pool of 16 trial point group operations.


The static configuration has the point symmetry C_1 .


Analysis of symmetry for dynamics (positions and initial velocities):
=====================================================================
 Subroutine PRICEL returns:
 Original cell was already a primitive cell.
 

 Routine SETGRP: Setting up the symmetry group for a 
 simple tetragonal supercell.


 Subroutine GETGRP returns: Found  1 space group operations
 (whereof  1 operations were pure point group operations)
 out of a pool of 16 trial point group operations.


The dynamic configuration has the point symmetry C_1 .


 Subroutine INISYM returns: Found  1 space group operations
 (whereof  1 operations are pure point group operations),
 and found     1 'primitive' translations


----------------------------------------------------------------------------------------

                                     Primitive cell                                     

  volume of cell :    6038.6470

  direct lattice vectors                    reciprocal lattice vectors
    14.535360045  0.000000000  0.000000000     0.068797745  0.000000000  0.000000000
     0.000000000 14.535360045  0.000000000     0.000000000  0.068797745  0.000000000
     0.000000000  0.000000000 28.581700000     0.000000000  0.000000000  0.034987422

  length of vectors
    14.535360045 14.535360045 28.581700000     0.068797745  0.068797745  0.034987422

  position of ions in fractional coordinates (direct lattice)
     0.911638925  0.747742056  0.389548207
     0.223885063  0.885089875  0.638627164
     0.767782839  0.698868137  0.476022420
     0.915367762  0.768656570  0.475473817
     0.953467954  0.571438889  0.497182463
     0.770080684  0.435989200  0.586959838
     0.125436865  0.829535695  0.450832526
     0.171091737  0.982720755  0.437691600
     0.886266316  0.589911772  0.418366297
     0.948115489  0.386553892  0.569547648
     0.504531018  0.164130781  0.377221684
     0.070643589  0.708327827  0.540118327
     0.357673287  0.252412048  0.484478530
     0.816023818  0.883603843  0.421943761
     0.214241683  0.357865920  0.640220841
     0.181780843  0.218763759  0.370332660
     0.203860103  0.473034034  0.579712193
     0.598158558  0.951066913  0.367063751
     0.889809400  0.052362308  0.553679102
     0.398407056  0.023859884  0.639385691
     0.067207554  0.625844146  0.411779565
     0.870876260  0.894866034  0.568618732
     0.136714192  0.453093008  0.509683819
     0.161289434  0.822456407  0.503435415
     0.158235502  0.965191090  0.621780370
     0.511672224  0.337582281  0.563702299
     0.545428526  0.665077437  0.377385565
     0.232650584  0.194407981  0.531167495
     0.432201884  0.553884457  0.386329365
     0.142553056  0.958958014  0.542248362
     0.549837085  0.410923430  0.469404549
     0.254129240  0.088031531  0.648131147
     0.003248024  0.363247280  0.423008079
     0.303537717  0.567392206  0.428519647
     0.369513379  0.821589556  0.563134103
     0.662568383  0.512188895  0.646301655
     0.856194822  0.385501975  0.393349941
     0.206104286  0.661204124  0.382903396
     0.754133366  0.644239288  0.620321394
     0.800372331  0.536021122  0.424065398
     0.280212529  0.041261792  0.520875245
     0.798617988  0.393940706  0.543766466
     0.512268012  0.416302725  0.387489897
     0.923829885  0.098431686  0.390790611
     0.357545323  0.879785568  0.425378476
     0.522651656  0.663014880  0.500335529
     0.736596821  0.280061174  0.413794491
     0.649849056  0.093192050  0.374251357
     0.518609101  0.018618252  0.506119300
     0.268720554  0.017630317  0.440847465
     0.647002205  0.763008275  0.601898068
     0.963340430  0.529120020  0.601286488
     0.567040649  0.768594652  0.443103104
     0.275684262  0.807190188  0.367668473
     0.291405234  0.292610571  0.414029256
     0.408832666  0.389111792  0.506986988
     0.020019112  0.037847772  0.508975323
     0.446842045  0.582127995  0.599510526
     0.660977779  0.012758404  0.543547095
     0.053003090  0.587858159  0.491035873
     0.569326799  0.488739183  0.583750792
     0.436389603  0.253347698  0.621102664
     0.716074453  0.861519767  0.545381485
     0.260621683  0.785147390  0.618660192
     0.311549902  0.788332725  0.491592872
     0.773843920  0.526965963  0.504297155
     0.905392089  0.874550060  0.646898890
     0.646303220  0.090555720  0.612704283
     0.107282516  0.734601686  0.619351543
     0.260324477  0.074778333  0.364986582
     0.501942847  0.728967151  0.574046330
     0.924772414  0.762182702  0.526498424
     0.490971670  0.161781338  0.470969536
     0.956673929  0.287716987  0.631923573
     0.513893703  0.915312724  0.437445288
     0.370353399  0.639951812  0.491135237
     0.953818822  0.967351339  0.435219389
     0.856855280  0.615144033  0.558933164
     0.777889228  0.131356911  0.425561811
     0.413488210  0.295300563  0.362559225
     0.730570138  0.246485122  0.538759416
     0.023620192  0.346350554  0.502905356
     0.002630823  0.734209539  0.365695218
     0.405822765  0.977416449  0.562390970
     0.737271039  0.877487724  0.349874220
     0.741027396  0.220626114  0.617050420
     0.082024800  0.191835633  0.497609659
     0.276498139  0.230258486  0.609407068
     0.106138410  0.474914277  0.398402474
     0.029629951  0.895540252  0.367830395
     0.682318152  0.583852067  0.372248152
     0.051049509  0.207670122  0.413465609
     0.595502965  0.268985425  0.499753689
     0.343339276  0.517462930  0.546506331
     0.720057843  0.796196308  0.468486479
     0.512751661  0.127750533  0.650125780
     0.623094301  0.539685978  0.514758744
     0.878437133  0.149979773  0.625559361
     0.766578878  0.102084847  0.504623938
     0.114552374  0.570526631  0.623650798
     0.231984622  0.432123455  0.446651179

  ion indices of the primitive-cell ions
   primitive index   ion index
                 1           1
                 2           2
                 3           3
                 4           4
                 5           5
                 6           6
                 7           7
                 8           8
                 9           9
                10          10
                11          11
                12          12
                13          13
                14          14
                15          15
                16          16
                17          17
                18          18
                19          19
                20          20
                21          21
                22          22
                23          23
                24          24
                25          25
                26          26
                27          27
                28          28
                29          29
                30          30
                31          31
                32          32
                33          33
                34          34
                35          35
                36          36
                37          37
                38          38
                39          39
                40          40
                41          41
                42          42
                43          43
                44          44
                45          45
                46          46
                47          47
                48          48
                49          49
                50          50
                51          51
                52          52
                53          53
                54          54
                55          55
                56          56
                57          57
                58          58
                59          59
                60          60
                61          61
                62          62
                63          63
                64          64
                65          65
                66          66
                67          67
                68          68
                69          69
                70          70
                71          71
                72          72
                73          73
                74          74
                75          75
                76          76
                77          77
                78          78
                79          79
                80          80
                81          81
                82          82
                83          83
                84          84
                85          85
                86          86
                87          87
                88          88
                89          89
                90          90
                91          91
                92          92
                93          93
                94          94
                95          95
                96          96
                97          97
                98          98
                99          99
               100         100
               101         101

----------------------------------------------------------------------------------------


 -----------------------------------------------------------------------------
|                                                                             |
|           W    W    AA    RRRRR   N    N  II  N    N   GGGG   !!!           |
|           W    W   A  A   R    R  NN   N  II  NN   N  G    G  !!!           |
|           W    W  A    A  R    R  N N  N  II  N N  N  G       !!!           |
|           W WW W  AAAAAA  RRRRR   N  N N  II  N  N N  G  GGG   !            |
|           WW  WW  A    A  R   R   N   NN  II  N   NN  G    G                |
|           W    W  A    A  R    R  N    N  II  N    N   GGGG   !!!           |
|                                                                             |
|     The requested file  could not be found or opened for reading            |
|     k-point information. Automatic k-point generation is used as a          |
|     fallback, which may lead to unwanted results.                           |
|                                                                             |
 -----------------------------------------------------------------------------



Automatic generation of k-mesh.
 Grid dimensions derived from KSPACING:
 generate k-points for:    2    2    1

 Generating k-lattice:

  Cartesian coordinates                     Fractional coordinates (reciprocal lattice)
     0.034398873  0.000000000  0.000000000     0.500000000  0.000000000  0.000000000
     0.000000000  0.034398873  0.000000000     0.000000000  0.500000000  0.000000000
     0.000000000  0.000000000  0.034987422     0.000000000  0.000000000  1.000000000

  Length of vectors
     0.034398873  0.034398873  0.034987422

  Shift w.r.t. Gamma in fractional coordinates (k-lattice)
     0.000000000  0.000000000  0.000000000

 
 Subroutine IBZKPT returns following result:
 ===========================================
 
 Found      4 irreducible k-points:
 
 Following reciprocal coordinates:
            Coordinates               Weight
  0.000000  0.000000  0.000000      1.000000
  0.500000  0.000000  0.000000      1.000000
  0.000000  0.500000  0.000000      1.000000
  0.500000  0.500000  0.000000      1.000000
 
 Following cartesian coordinates:
            Coordinates               Weight
  0.000000  0.000000  0.000000      1.000000
  0.034399  0.000000  0.000000      1.000000
  0.000000  0.034399  0.000000      1.000000
  0.034399  0.034399  0.000000      1.000000
 


--------------------------------------------------------------------------------------------------------




 Dimension of arrays:
   k-points           NKPTS =      4   k-points in BZ     NKDIM =      4   number of bands    NBANDS=    240
   number of dos      NEDOS =   2000   number of ions     NIONS =    101
   non local maximal  LDIM  =      4   non local SUM 2l+1 LMDIM =      8
   total plane-waves  NPLWV = ******
   max r-space proj   IRMAX =      1   max aug-charges    IRDMAX= 405207
   dimension x,y,z NGX =   168 NGY =  168 NGZ =  324
   dimension x,y,z NGXF=   336 NGYF=  336 NGZF=  648
   support grid    NGXF=   672 NGYF=  672 NGZF= 1296
   ions per type =               9  92
   NGX,Y,Z   is equivalent  to a cutoff of  19.21, 19.21, 18.85 a.u.
   NGXF,Y,Z  is equivalent  to a cutoff of  38.43, 38.43, 37.69 a.u.

 SYSTEM =  a-Si SPC                                
 POSCAR =   H Si                                   

 Startparameter for this run:
   NWRITE =      2    write-flag & timer
   PREC   = accura    normal or accurate (medium, high low for compatibility)
   ISTART =      1    job   : 0-new  1-cont  2-samecut
   ICHARG =      1    charge: 1-file 2-atom 10-const
   ISPIN  =      1    spin polarized calculation?
   LNONCOLLINEAR =      F non collinear calculations
   LSORBIT =      F    spin-orbit coupling
   INIWAV =      1    electr: 0-lowe 1-rand  2-diag
   LASPH  =      T    aspherical Exc in radial PAW
 Electronic Relaxation 1
   ENCUT  = 1200.0 eV  88.20 Ry    9.39 a.u.  41.06 41.06 80.73*2*pi/ulx,y,z
   ENINI  = 1200.0     initial cutoff
   ENAUG  =  400.0 eV  augmentation charge cutoff
   NELM   =    150;   NELMIN=  2; NELMDL=  0     # of ELM steps 
   EDIFF  = 0.1E-05   stopping-criterion for ELM
   LREAL  =      F    real-space projection
   NLSPLINE    = F    spline interpolate recip. space projectors
   LCOMPAT=      F    compatible to vasp.4.4
   GGA_COMPAT  = T    GGA compatible to vasp.4.4-vasp.4.6
   LMAXPAW     = -100 max onsite density
   LMAXMIX     =    2 max onsite mixed and CHGCAR
   VOSKOWN=      0    Vosko Wilk Nusair interpolation
   ROPT   =    0.00000   0.00000
 Ionic relaxation
   EDIFFG = -.1E-01   stopping-criterion for IOM
   NSW    =      0    number of steps for IOM
   NBLOCK =      1;   KBLOCK =      1    inner block; outer block 
   IBRION =     -1    ionic relax: 0-MD 1-quasi-New 2-CG
   NFREE  =      0    steps in history (QN), initial steepest desc. (CG)
   ISIF   =      2    stress and relaxation
   IWAVPR =     10    prediction:  0-non 1-charg 2-wave 3-comb
   ISYM   =      1    0-nonsym 1-usesym 2-fastsym
   LCORR  =      T    Harris-Foulkes like correction to forces

   POTIM  = 0.5000    time-step for ionic-motion
   TEIN   =    0.0    initial temperature
   TEBEG  =    0.0;   TEEND  =   0.0 temperature during run
   SMASS  =  -3.00    Nose mass-parameter (am)
   estimated Nose-frequenzy (Omega)   =  0.10E-29 period in steps = 0.13E+47 mass=  -0.483E-26a.u.
   SCALEE = 1.0000    scale energy and forces
   NPACO  =    256;   APACO  = 10.0  distance and # of slots for P.C.
   PSTRESS=    0.0 pullay stress

  Mass of Ions in am
   POMASS =   1.00 28.09
  Ionic Valenz
   ZVAL   =   1.00  4.00
  Atomic Wigner-Seitz radii
   RWIGS  =  -1.00 -1.00
  virtual crystal weights 
   VCA    =   1.00  1.00
   NELECT =     377.0000    total number of electrons
   NUPDOWN=      -1.0000    fix difference up-down

 DOS related values:
   EMIN   =  10.00;   EMAX   =-10.00  energy-range for DOS
   EFERMI =   0.00;   METHOD = LEGACY      
   ISMEAR =     0;   SIGMA  =   0.10  broadening in eV -4-tet -1-fermi 0-gaus
   EFERMI_NEDOS =   21; number of points for ismear=-14 and -15

 Electronic relaxation 2 (details)
   IALGO  =     38    algorithm
   LDIAG  =      F    sub-space diagonalisation (order eigenvalues)
   LSUBROT=      F    optimize rotation matrix (better conditioning)
   TURBO    =      0    0=normal 1=particle mesh
   IRESTART =      0    0=no restart 2=restart with 2 vectors
   NREBOOT  =      0    no. of reboots
   NMIN     =      0    reboot dimension
   EREF     =   0.00    reference energy to select bands
   IMIX   =      4    mixing-type and parameters
     AMIX     =   0.40;   BMIX     =  1.00
     AMIX_MAG =   1.60;   BMIX_MAG =  1.00
     AMIN     =   0.10
     WC   =   100.;   INIMIX=   1;  MIXPRE=   1;  MAXMIX= -45

 Intra band minimization:
   WEIMIN = 0.0000     energy-eigenvalue tresh-hold
   EBREAK =  0.10E-08  absolut break condition
   DEPER  =   0.30     relativ break condition  

   TIME   =   0.40     timestep for ELM

  volume/ion in A,a.u.               =      59.79       403.47
  Fermi-wavevector in a.u.,A,eV,Ry     =   0.649445  1.227272  5.738641  0.421778
  Thomas-Fermi vector in A             =   1.718403

 Write flags
   LWAVE        =      F    write WAVECAR
   LDOWNSAMPLE  =      F    k-point downsampling of WAVECAR
   LCHARG       =      F    write CHGCAR
   LVTOT        =      F    write LOCPOT, total local potential
   LVHAR        =      F    write LOCPOT, Hartree potential only
   WRT_POTENTIAL= false  ! write potential to hdf5 file
   LELF         =      F    write electronic localiz. function (ELF)
   LORBIT       =     11    0 simple, 1 ext, 2 COOP (PROOUT), +10 PAW based schemes


 Python interface
   PLUGINS active      =      F    recompile with -DPLUGINS to activate

 Dipole corrections
   LMONO      =      F    monopole corrections only (constant potential shift)
   LDIPOL     =      F    correct potential (dipole corrections)
   IDIPOL     =      0    1-x, 2-y, 3-z, 4-all directions 
   EPSILON    =  1.0000000 bulk dielectric constant
   LVACPOTAV  =      F  vacuum potentials using an averaging scheme for the charge density
   VACPOTFLAT =  0.1000000 required flatness to determine vacuum potential

Coulomb truncation method
  LTRUNCATE          =      F  Coulomb kernel truncation to be used
  IDIMENSIONALITY    =      3  Dimensionality of cutoff (0 molecules / 2 surfaces)
  ISURFACE           =     -1  Direction of surface normal
  LCOARSEN           =      F  Coarsen the charge grid before padding, preferred


 Exchange correlation treatment:
   METAGGA = SCAN    functional components
   XC_C    = 1    coefficients multiplying the functional components
   LIBXC   =     F    Libxc                    
   VOSKOWN =     0    Vosko Wilk Nusair interpolation
   LHFCALC =     F    Hartree Fock is set to
   LHFONE  =     F    Hartree Fock one center treatment
   AEXX    =    0.0000 exact exchange contribution

 Parameters of functionals:
   SCAN:
     P1 =  0.000000E+00
     P2 =  0.000000E+00
     P3 =  0.000000E+00

 Accuracy and mixing parameters for tau-dependent meta-GGA functionals:
   LMAXTAU = 6
   LMIXTAU = T

 Van der Waals corrections
   IVDW    =     0    specifies the selected vdW correction

 Linear response parameters
   LEPSILON=     F    determine dielectric tensor
   LRPA    =     F    only Hartree local field effects (RPA)
   LNABLA  =     F    use nabla operator in PAW spheres
   LVEL    =     F    velocity operator in full k-point grid
   CSHIFT  =0.1000    complex shift for real part using Kramers Kronig
   OMEGAMAX=  -1.0    maximum frequency
   DEG_THRESHOLD= 0.2000000E-02 threshold for treating states as degnerate
   RTIME   =   -0.100 relaxation time in fs
  (WPLASMAI=    0.000 imaginary part of plasma frequency in eV, 0.658/RTIME)
   DFIELD  = 0.0000000 0.0000000 0.0000000 field for delta impulse in time

  Optional k-point grid parameters
   LKPOINTS_OPT  =     F    use optional k-point grid
   KPOINTS_OPT_MODE=     1    mode for optional k-point grid

 Orbital magnetization related:
   ORBITALMAG=     F  switch on orbital magnetization
   LCHIMAG   =     F  perturbation theory with respect to B field
   DQ        =  0.001000  dq finite difference perturbation B field
   LLRAUG    =     F  two centre corrections for induced B field
   LBONE     =     F  B-component reconstruction in AE one-centre
   LVGVCALC  =     T  calculate vGv susceptibility
   LVGVAPPL  =     F  apply vGv susceptibility instead of pGv for G=0

 Random number generation:
   RANDOM_GENERATOR = DEFAULT
   PCG_SEED         = not used


--------------------------------------------------------------------------------------------------------


 Static calculation
 charge density and potential will be updated during run
 non-spin polarized calculation
 Variant of blocked Davidson
 perform Loewdin sub-space diagonalisation
    ordering is kept fixed
    before iterative eigenvector-optimisation
 modified Broyden-mixing scheme, WC =      100.0
 initial mixing is a Kerker type mixing with AMIX =  0.4000 and BMIX =      1.0000
 Hartree-type preconditioning will be used
 using additional bands           51
 reciprocal scheme for non local part
 use partial core corrections
 calculate Harris-corrections to forces   (improved forces if not selfconsistent)
 use gradient corrections 
 use of overlap-Matrix (Vanderbilt PP)
 Gauss-broadening in eV      SIGMA  =   0.10


--------------------------------------------------------------------------------------------------------


  energy-cutoff  :     1200.00
  volume of cell :     6038.65
      direct lattice vectors                 reciprocal lattice vectors
    14.535360045  0.000000000  0.000000000     0.068797745  0.000000000  0.000000000
     0.000000000 14.535360045  0.000000000     0.000000000  0.068797745  0.000000000
     0.000000000  0.000000000 28.581700000     0.000000000  0.000000000  0.034987422

  length of vectors
    14.535360045 14.535360045 28.581700000     0.068797745  0.068797745  0.034987422



 old parameters found on file WAVECAR:
  energy-cutoff  :     1200.00
  volume of cell :     6038.65
      direct lattice vectors                 reciprocal lattice vectors
    14.535360045  0.000000000  0.000000000     0.068797745  0.000000000  0.000000000
     0.000000000 14.535360045  0.000000000     0.000000000  0.068797745  0.000000000
     0.000000000  0.000000000 28.581700000     0.000000000  0.000000000  0.034987422

  length of vectors


 k-points in units of 2pi/SCALE and weight: read from INCAR                         
   0.00000000  0.00000000  0.00000000       0.250
   0.03439887  0.00000000  0.00000000       0.250
   0.00000000  0.03439887  0.00000000       0.250
   0.03439887  0.03439887  0.00000000       0.250

 k-points in reciprocal lattice and weights: read from INCAR                         
   0.00000000  0.00000000  0.00000000       0.250
   0.50000000  0.00000000  0.00000000       0.250
   0.00000000  0.50000000  0.00000000       0.250
   0.50000000  0.50000000  0.00000000       0.250

 position of ions in fractional coordinates (direct lattice) 
   0.91163892  0.74774206  0.38954821
   0.22388506  0.88508987  0.63862716
   0.76778284  0.69886814  0.47602242
   0.91536776  0.76865657  0.47547382
   0.95346795  0.57143889  0.49718246
   0.77008068  0.43598920  0.58695984
   0.12543687  0.82953570  0.45083253
   0.17109174  0.98272076  0.43769160
   0.88626632  0.58991177  0.41836630
   0.94811549  0.38655389  0.56954765
   0.50453102  0.16413078  0.37722168
   0.07064359  0.70832783  0.54011833
   0.35767329  0.25241205  0.48447853
   0.81602382  0.88360384  0.42194376
   0.21424168  0.35786592  0.64022084
   0.18178084  0.21876376  0.37033266
   0.20386010  0.47303403  0.57971219
   0.59815856  0.95106691  0.36706375
   0.88980940  0.05236231  0.55367910
   0.39840706  0.02385988  0.63938569
   0.06720755  0.62584415  0.41177957
   0.87087626  0.89486603  0.56861873
   0.13671419  0.45309301  0.50968382
   0.16128943  0.82245641  0.50343541
   0.15823550  0.96519109  0.62178037
   0.51167222  0.33758228  0.56370230
   0.54542853  0.66507744  0.37738556
   0.23265058  0.19440798  0.53116750
   0.43220188  0.55388446  0.38632936
   0.14255306  0.95895801  0.54224836
   0.54983709  0.41092343  0.46940455
   0.25412924  0.08803153  0.64813115
   0.00324802  0.36324728  0.42300808
   0.30353772  0.56739221  0.42851965
   0.36951338  0.82158956  0.56313410
   0.66256838  0.51218890  0.64630165
   0.85619482  0.38550197  0.39334994
   0.20610429  0.66120412  0.38290340
   0.75413337  0.64423929  0.62032139
   0.80037233  0.53602112  0.42406540
   0.28021253  0.04126179  0.52087525
   0.79861799  0.39394071  0.54376647
   0.51226801  0.41630273  0.38748990
   0.92382989  0.09843169  0.39079061
   0.35754532  0.87978557  0.42537848
   0.52265166  0.66301488  0.50033553
   0.73659682  0.28006117  0.41379449
   0.64984906  0.09319205  0.37425136
   0.51860910  0.01861825  0.50611930
   0.26872055  0.01763032  0.44084747
   0.64700221  0.76300828  0.60189807
   0.96334043  0.52912002  0.60128649
   0.56704065  0.76859465  0.44310310
   0.27568426  0.80719019  0.36766847
   0.29140523  0.29261057  0.41402926
   0.40883267  0.38911179  0.50698699
   0.02001911  0.03784777  0.50897532
   0.44684204  0.58212800  0.59951053
   0.66097778  0.01275840  0.54354709
   0.05300309  0.58785816  0.49103587
   0.56932680  0.48873918  0.58375079
   0.43638960  0.25334770  0.62110266
   0.71607445  0.86151977  0.54538149
   0.26062168  0.78514739  0.61866019
   0.31154990  0.78833273  0.49159287
   0.77384392  0.52696596  0.50429716
   0.90539209  0.87455006  0.64689889
   0.64630322  0.09055572  0.61270428
   0.10728252  0.73460169  0.61935154
   0.26032448  0.07477833  0.36498658
   0.50194285  0.72896715  0.57404633
   0.92477241  0.76218270  0.52649842
   0.49097167  0.16178134  0.47096954
   0.95667393  0.28771699  0.63192357
   0.51389370  0.91531272  0.43744529
   0.37035340  0.63995181  0.49113524
   0.95381882  0.96735134  0.43521939
   0.85685528  0.61514403  0.55893316
   0.77788923  0.13135691  0.42556181
   0.41348821  0.29530056  0.36255922
   0.73057014  0.24648512  0.53875942
   0.02362019  0.34635055  0.50290536
   0.00263082  0.73420954  0.36569522
   0.40582276  0.97741645  0.56239097
   0.73727104  0.87748772  0.34987422
   0.74102740  0.22062611  0.61705042
   0.08202480  0.19183563  0.49760966
   0.27649814  0.23025849  0.60940707
   0.10613841  0.47491428  0.39840247
   0.02962995  0.89554025  0.36783039
   0.68231815  0.58385207  0.37224815
   0.05104951  0.20767012  0.41346561
   0.59550296  0.26898543  0.49975369
   0.34333928  0.51746293  0.54650633
   0.72005784  0.79619631  0.46848648
   0.51275166  0.12775053  0.65012578
   0.62309430  0.53968598  0.51475874
   0.87843713  0.14997977  0.62555936
   0.76657888  0.10208485  0.50462394
   0.11455237  0.57052663  0.62365080
   0.23198462  0.43212345  0.44665118

 position of ions in cartesian coordinates  (Angst):
  13.25100000 10.86870000 11.13395000
   3.25425000 12.86510000 18.25305000
  11.16000000 10.15830000 13.60553000
  13.30520000 11.17270000 13.58985000
  13.85900000  8.30607000 14.21032000
  11.19340000  6.33726000 16.77631000
   1.82327000 12.05760000 12.88556000
   2.48688000 14.28420000 12.50997000
  12.88220000  8.57458000 11.95762000
  13.78120000  5.61870000 16.27864000
   7.33354000  2.38570000 10.78163700
   1.02683000 10.29580000 15.43750000
   5.19891000  3.66890000 13.84722000
  11.86120000 12.84350000 12.05987000
   3.11408000  5.20171000 18.29860000
   2.64225000  3.17981000 10.58473700
   2.96318000  6.87572000 16.56916000
   8.69445000 13.82410000 10.49130600
  12.93370000  0.76110500 15.82509000
   5.79099000  0.34681200 18.27473000
   0.97688600  9.09687000 11.76936000
  12.65850000 13.00720000 16.25209000
   1.98719000  6.58587000 14.56763000
   2.34440000 11.95470000 14.38904000
   2.30001000 14.02940000 17.77154000
   7.43734000  4.90688000 16.11157000
   7.92800000  9.66714000 10.78632100
   3.38166000  2.82579000 15.18167000
   6.28221000  8.05091000 11.04195000
   2.07206000 13.93880000 15.49838000
   7.99208000  5.97292000 13.41638000
   3.69386000  1.27957000 18.52469000
   0.04721120  5.27993000 12.09029000
   4.41203000  8.24725000 12.24782000
   5.37101000 11.94210000 16.09533000
   9.63067000  7.44485000 18.47240000
  12.44510000  5.60341000 11.24261000
   2.99580000  9.61084000 10.94403000
  10.96160000  9.36425000 17.72984000
  11.63370000  7.79126000 12.12051000
   4.07299000  0.59975500 14.88750000
  11.60820000  5.72607000 15.54177000
   7.44600000  6.05111000 11.07512000
  13.42820000  1.43074000 11.16946000
   5.19705000 12.78800000 12.15804000
   7.59693000  9.63716000 14.30044000
  10.70670000  4.07079000 11.82695000
   9.44579000  1.35458000 10.69674000
   7.53817000  0.27062300 14.46575000
   3.90595000  0.25626300 12.60017000
   9.40441000 11.09060000 17.20327000
  14.00250000  7.69095000 17.18579000
   8.24214000 11.17180000 12.66464000
   4.00717000 11.73280000 10.50859000
   4.23568000  4.25320000 11.83366000
   5.94253000  5.65588000 14.49055000
   0.29098500  0.55013100 14.54738000
   6.49501000  8.46144000 17.13503000
   9.60755000  0.18544800 15.53550000
   0.77041900  8.54473000 14.03464000
   8.27537000  7.10400000 16.68459000
   6.34308000  3.68250000 17.75217000
  10.40840000 12.52250000 15.58793000
   3.78823000 11.41240000 17.68236000
   4.52849000 11.45870000 14.05056000
  11.24810000  7.65964000 14.41367000
  13.16020000 12.71190000 18.48947000
   9.39425000  1.31626000 17.51213000
   1.55939000 10.67770000 17.70212000
   3.78391000  1.08693000 10.43193700
   7.29592000 10.59580000 16.40722000
  13.44190000 11.07860000 15.04822000
   7.13645000  2.35155000 13.46111000
  13.90560000  4.18207000 18.06145000
   7.46963000 13.30440000 12.50293000
   5.38322000  9.30193000 14.03748000
  13.86410000 14.06080000 12.43931000
  12.45470000  8.94134000 15.97526000
  11.30690000  1.90932000 12.16328000
   6.01020000  4.29230000 10.36255900
  10.61910000  3.58275000 15.39866000
   0.34332800  5.03433000 14.37389000
   0.03823996 10.67200000 10.45219100
   5.89878000 14.20710000 16.07409000
  10.71650000 12.75460000 10.00000000
  10.77110000  3.20688000 17.63635000
   1.19226000  2.78840000 14.22253000
   4.01900000  3.34689000 17.41789000
   1.54276000  6.90305000 11.38702000
   0.43068200 13.01700000 10.51321800
   9.91774000  8.48650000 10.63948500
   0.74202300  3.01856000 11.81755000
   8.65585000  3.90980000 14.28381000
   4.99056000  7.52151000 15.62008000
  10.46630000 11.57300000 13.39014000
   7.45303000  1.85690000 18.58170000
   9.05690000  7.84453000 14.71268000
  12.76840000  2.18001000 17.87955000
  11.14250000  1.48384000 14.42301000
   1.66506000  8.29281000 17.82500000
   3.37198000  6.28107000 12.76605000



--------------------------------------------------------------------------------------------------------


 k-point     1 :   0.0000 0.0000 0.0000  plane waves:  569857
 k-point     2 :   0.5000 0.0000 0.0000  plane waves:  570026
 k-point     3 :   0.0000 0.5000 0.0000  plane waves:  570026
 k-point     4 :   0.5000 0.5000 0.0000  plane waves:  569924

 maximum and minimum number of plane-waves per node :     35686    35553

 maximum number of plane-waves:    570026
 maximum index in each direction: 
   IXMAX=   41   IYMAX=   41   IZMAX=   80
   IXMIN=  -41   IYMIN=  -41   IZMIN=  -80


 parallel 3D FFT for wavefunctions:
    minimum data exchange during FFTs selected (reduces bandwidth)
 parallel 3D FFT for charge:
    minimum data exchange during FFTs selected (reduces bandwidth)


 total amount of memory used by VASP MPI-rank0   369758. kBytes
=======================================================================

   base                                    :      30000. kBytes
   nonl-proj                               :      75892. kBytes
   fftplans                                :     110224. kBytes
   grid                                    :      85039. kBytes
   one-center                              :         21. kBytes
   wavefun                                 :      68582. kBytes

     INWAV:  cpu time     20.2108: real time     20.2244
 Broyden mixing: mesh for mixing (old mesh)
   NGX = 83   NGY = 83   NGZ =161
  (NGX  =336   NGY  =336   NGZ  =648)
  gives a total of ****** points

 initial charge density was supplied:
 number of electron     376.9999999 magnetization 
 keeping initial charge density in first step


--------------------------------------------------------------------------------------------------------


 Maximum index for augmentation-charges        10846 (set IRDMAX)


--------------------------------------------------------------------------------------------------------


 First call to EWALD:  gamma=   0.097
 Maximum number of real-space cells   3x   3x   2
 Maximum number of reciprocal cells   2x   2x   4

    FEWALD:  cpu time      0.0202: real time      0.0203


--------------------------------------- Ionic step        1  -------------------------------------------




--------------------------------------- Iteration      1(   1)  ---------------------------------------


    POTLOK:  cpu time      2.2115: real time      2.2133
    SETDIJ:  cpu time      1.7242: real time      1.7251
    EDDIAG:  cpu time     40.5557: real time     40.5818
     EDDAV:  cpu time    189.1351: real time    189.2401
       DOS:  cpu time      0.0155: real time      0.0160
    CHARGE:  cpu time     23.7698: real time     23.7928
    MIXING:  cpu time      0.0572: real time      0.0575
    --------------------------------------------
      LOOP:  cpu time    257.4690: real time    257.6267

 eigenvalue-minimisations  :  1920
 total energy-change (2. order) :-0.9432390E+03  (-0.1066855E+01)
 number of electron     376.9999999 magnetization 
 augmentation part      -20.9692258 magnetization 

 Broyden mixing:
  rms(total) = 0.11663E+01    rms(broyden)= 0.28048E+02
  rms(prec ) = 0.12009E+01
  weight for this iteration     100.00
  WARNING: grid for Broyden might be to small

 Free energy of the ion-electron system (eV)
  ---------------------------------------------------
  alpha Z        PSCENC =        49.70632041
  Ewald energy   TEWEN  =     58858.96876814
  -Hartree energ DENC   =    -67345.62623024
  -exchange      EXHF   =         0.00000000
  -V(xc)+E(xc)   XCENC  =      -433.48532218
  PAW double counting   =     33702.43264667   -32785.14177719
  entropy T*S    EENTRO =        -0.24894585
  eigenvalues    EBANDS =     -2584.38861002
  atomic energy  EATOM  =      9594.54415021
  Solvation  Ediel_sol  =         0.00000000
  ---------------------------------------------------
  free energy    TOTEN  =      -943.23900003 eV

  energy without entropy =     -942.99005418  energy(sigma->0) =     -943.11452710


--------------------------------------------------------------------------------------------------------




--------------------------------------- Iteration      1(   2)  ---------------------------------------


    POTLOK:  cpu time      2.1825: real time      2.2004
    SETDIJ:  cpu time      1.7161: real time      1.7183
    EDDIAG:  cpu time     40.5113: real time     40.5359
     EDDAV:  cpu time    189.7021: real time    189.8054
       DOS:  cpu time      0.0030: real time      0.0030
    CHARGE:  cpu time     23.5465: real time     23.5677
    MIXING:  cpu time      0.0475: real time      0.0477
    --------------------------------------------
      LOOP:  cpu time    257.7091: real time    257.8783

 eigenvalue-minimisations  :  1928
 total energy-change (2. order) : 0.6746076E+02  (-0.1028095E+01)
 number of electron     376.9999999 magnetization 
 augmentation part      -20.9028859 magnetization 

 Broyden mixing:
  rms(total) = 0.78506E+00    rms(broyden)= 0.16145E+02
  rms(prec ) = 0.80304E+00
  weight for this iteration     100.00
  WARNING: grid for Broyden might be to small

 eigenvalues of (default mixing * dielectric matrix)
  average eigenvalue GAMMA=   0.6348
  0.6348

 Free energy of the ion-electron system (eV)
  ---------------------------------------------------
  alpha Z        PSCENC =        49.70632041
  Ewald energy   TEWEN  =     58858.96876814
  -Hartree energ DENC   =    -67332.97353492
  -exchange      EXHF   =         0.00000000
  -V(xc)+E(xc)   XCENC  =      -423.80512971
  PAW double counting   =     40203.43241302   -39285.90394900
  entropy T*S    EENTRO =        -0.23919463
  eigenvalues    EBANDS =     -2539.50808109
  atomic energy  EATOM  =      9594.54415021
  Solvation  Ediel_sol  =         0.00000000
  ---------------------------------------------------
  free energy    TOTEN  =      -875.77823756 eV

  energy without entropy =     -875.53904293  energy(sigma->0) =     -875.65864025


--------------------------------------------------------------------------------------------------------




--------------------------------------- Iteration      1(   3)  ---------------------------------------


    POTLOK:  cpu time      2.1682: real time      2.1907
    SETDIJ:  cpu time      1.7062: real time      1.7071
    EDDIAG:  cpu time     40.4965: real time     40.5208
     EDDAV:  cpu time    190.3594: real time    190.4602
       DOS:  cpu time      0.0021: real time      0.0021
    CHARGE:  cpu time     23.5725: real time     23.5940
    MIXING:  cpu time      0.0429: real time      0.0429
    --------------------------------------------
      LOOP:  cpu time    258.3478: real time    258.5179

 eigenvalue-minimisations  :  1936
 total energy-change (2. order) :-0.3634108E+01  (-0.8262479E+00)
 number of electron     376.9999999 magnetization 
 augmentation part      -20.8355048 magnetization 

 Broyden mixing:
  rms(total) = 0.33440E+00    rms(broyden)= 0.23695E+02
  rms(prec ) = 0.42661E+00
  weight for this iteration     100.00
  WARNING: grid for Broyden might be to small

 eigenvalues of (default mixing * dielectric matrix)
  average eigenvalue GAMMA=   0.7659
  0.9057  0.6260

 Free energy of the ion-electron system (eV)
  ---------------------------------------------------
  alpha Z        PSCENC =        49.70632041
  Ewald energy   TEWEN  =     58858.96876814
  -Hartree energ DENC   =    -67331.00700089
  -exchange      EXHF   =         0.00000000
  -V(xc)+E(xc)   XCENC  =      -427.55002507
  PAW double counting   =     47827.30234379   -46909.93650495
  entropy T*S    EENTRO =        -0.23667754
  eigenvalues    EBANDS =     -2541.20372003
  atomic energy  EATOM  =      9594.54415021
  Solvation  Ediel_sol  =         0.00000000
  ---------------------------------------------------
  free energy    TOTEN  =      -879.41234593 eV

  energy without entropy =     -879.17566839  energy(sigma->0) =     -879.29400716


--------------------------------------------------------------------------------------------------------




--------------------------------------- Iteration      1(   4)  ---------------------------------------


    POTLOK:  cpu time      2.1662: real time      2.1944
    SETDIJ:  cpu time      1.7063: real time      1.7071
    EDDIAG:  cpu time     40.5276: real time     40.5538
     EDDAV:  cpu time    209.0498: real time    209.1656
       DOS:  cpu time      0.0020: real time      0.0020
    CHARGE:  cpu time     23.5435: real time     23.5662
    MIXING:  cpu time      0.0432: real time      0.0431
    --------------------------------------------
      LOOP:  cpu time    277.0385: real time    277.2323

 eigenvalue-minimisations  :  2272
 total energy-change (2. order) : 0.2238716E+00  (-0.1465282E+00)
 number of electron     376.9999999 magnetization 
 augmentation part      -20.8289164 magnetization 

 Broyden mixing:
  rms(total) = 0.20702E+00    rms(broyden)= 0.18368E+01
  rms(prec ) = 0.39643E+00
  weight for this iteration     100.00
  WARNING: grid for Broyden might be to small

 eigenvalues of (default mixing * dielectric matrix)
  average eigenvalue GAMMA=   0.7185
  1.1656  0.6314  0.3585

 Free energy of the ion-electron system (eV)
  ---------------------------------------------------
  alpha Z        PSCENC =        49.70632041
  Ewald energy   TEWEN  =     58858.96876814
  -Hartree energ DENC   =    -67331.35558436
  -exchange      EXHF   =         0.00000000
  -V(xc)+E(xc)   XCENC  =      -428.38799131
  PAW double counting   =     53527.68519222   -52610.39010672
  entropy T*S    EENTRO =        -0.24312382
  eigenvalues    EBANDS =     -2539.71609915
  atomic energy  EATOM  =      9594.54415021
  Solvation  Ediel_sol  =         0.00000000
  ---------------------------------------------------
  free energy    TOTEN  =      -879.18847437 eV

  energy without entropy =     -878.94535055  energy(sigma->0) =     -879.06691246


--------------------------------------------------------------------------------------------------------




--------------------------------------- Iteration      1(   5)  ---------------------------------------


    POTLOK:  cpu time      2.1695: real time      2.1911
    SETDIJ:  cpu time      1.7067: real time      1.7074
    EDDIAG:  cpu time     40.4884: real time     40.5170
     EDDAV:  cpu time    207.6920: real time    207.8094
       DOS:  cpu time      0.0025: real time      0.0025
    CHARGE:  cpu time     23.5694: real time     23.5920
    MIXING:  cpu time      0.0428: real time      0.0428
    --------------------------------------------
      LOOP:  cpu time    275.6714: real time    275.8624

 eigenvalue-minimisations  :  2248
 total energy-change (2. order) : 0.2126565E+00  (-0.8186303E-01)
 number of electron     376.9999999 magnetization 
 augmentation part      -20.8298690 magnetization 

 Broyden mixing:
  rms(total) = 0.67414E-01    rms(broyden)= 0.20675E+01
  rms(prec ) = 0.10781E+00
  weight for this iteration     100.00
  WARNING: grid for Broyden might be to small

 eigenvalues of (default mixing * dielectric matrix)
  average eigenvalue GAMMA=   0.9902
  2.3393  0.7403  0.6210  0.2602

 Free energy of the ion-electron system (eV)
  ---------------------------------------------------
  alpha Z        PSCENC =        49.70632041
  Ewald energy   TEWEN  =     58858.96876814
  -Hartree energ DENC   =    -67331.89991786
  -exchange      EXHF   =         0.00000000
  -V(xc)+E(xc)   XCENC  =      -429.49630594
  PAW double counting   =     53625.26468492   -52707.95947419
  entropy T*S    EENTRO =        -0.24082246
  eigenvalues    EBANDS =     -2537.86322113
  atomic energy  EATOM  =      9594.54415021
  Solvation  Ediel_sol  =         0.00000000
  ---------------------------------------------------
  free energy    TOTEN  =      -878.97581788 eV

  energy without entropy =     -878.73499543  energy(sigma->0) =     -878.85540666


--------------------------------------------------------------------------------------------------------




--------------------------------------- Iteration      1(   6)  ---------------------------------------


    POTLOK:  cpu time      2.1596: real time      2.1900
    SETDIJ:  cpu time      1.7080: real time      1.7088
    EDDIAG:  cpu time     40.5234: real time     40.5482
     EDDAV:  cpu time    192.7044: real time    192.8097
       DOS:  cpu time      0.0043: real time      0.0043
    CHARGE:  cpu time     23.5192: real time     23.5402
    MIXING:  cpu time      0.0442: real time      0.0442
    --------------------------------------------
      LOOP:  cpu time    260.6632: real time    260.8454

 eigenvalue-minimisations  :  1984
 total energy-change (2. order) :-0.2495791E-01  (-0.3076771E-01)
 number of electron     376.9999999 magnetization 
 augmentation part      -20.8294271 magnetization 

 Broyden mixing:
  rms(total) = 0.41447E-01    rms(broyden)= 0.28724E+00
  rms(prec ) = 0.52074E-01
  weight for this iteration     100.00
  WARNING: grid for Broyden might be to small

 eigenvalues of (default mixing * dielectric matrix)
  average eigenvalue GAMMA=   0.9257
  2.5258  0.7376  0.6183  0.2660  0.4808

 Free energy of the ion-electron system (eV)
  ---------------------------------------------------
  alpha Z        PSCENC =        49.70632041
  Ewald energy   TEWEN  =     58858.96876814
  -Hartree energ DENC   =    -67333.47412943
  -exchange      EXHF   =         0.00000000
  -V(xc)+E(xc)   XCENC  =      -429.68510011
  PAW double counting   =     53186.93289565   -52269.60112958
  entropy T*S    EENTRO =        -0.23817023
  eigenvalues    EBANDS =     -2536.15438086
  atomic energy  EATOM  =      9594.54415021
  Solvation  Ediel_sol  =         0.00000000
  ---------------------------------------------------
  free energy    TOTEN  =      -879.00077579 eV

  energy without entropy =     -878.76260556  energy(sigma->0) =     -878.88169068


--------------------------------------------------------------------------------------------------------




--------------------------------------- Iteration      1(   7)  ---------------------------------------


    POTLOK:  cpu time      2.1749: real time      2.1991
    SETDIJ:  cpu time      1.7057: real time      1.7072
    EDDIAG:  cpu time     40.5035: real time     40.5295
     EDDAV:  cpu time    201.7769: real time    201.8902
       DOS:  cpu time      0.0019: real time      0.0019
    CHARGE:  cpu time     23.5324: real time     23.5528
    MIXING:  cpu time      0.0446: real time      0.0446
    --------------------------------------------
      LOOP:  cpu time    269.7397: real time    269.9253

 eigenvalue-minimisations  :  2144
 total energy-change (2. order) : 0.3132034E-02  (-0.2495466E-02)
 number of electron     376.9999999 magnetization 
 augmentation part      -20.8277977 magnetization 

 Broyden mixing:
  rms(total) = 0.25498E-01    rms(broyden)= 0.15959E+00
  rms(prec ) = 0.28345E-01
  weight for this iteration     100.00
  WARNING: grid for Broyden might be to small

 eigenvalues of (default mixing * dielectric matrix)
  average eigenvalue GAMMA=   0.9405
  2.5745  0.9358  0.2600  0.6525  0.6525  0.5679

 Free energy of the ion-electron system (eV)
  ---------------------------------------------------
  alpha Z        PSCENC =        49.70632041
  Ewald energy   TEWEN  =     58858.96876814
  -Hartree energ DENC   =    -67332.20548212
  -exchange      EXHF   =         0.00000000
  -V(xc)+E(xc)   XCENC  =      -429.67827656
  PAW double counting   =     53144.49515173   -52227.15349292
  entropy T*S    EENTRO =        -0.23968170
  eigenvalues    EBANDS =     -2537.43510095
  atomic energy  EATOM  =      9594.54415021
  Solvation  Ediel_sol  =         0.00000000
  ---------------------------------------------------
  free energy    TOTEN  =      -878.99764376 eV

  energy without entropy =     -878.75796205  energy(sigma->0) =     -878.87780291


--------------------------------------------------------------------------------------------------------




--------------------------------------- Iteration      1(   8)  ---------------------------------------


    POTLOK:  cpu time      2.1664: real time      2.1926
    SETDIJ:  cpu time      1.7078: real time      1.7090
    EDDIAG:  cpu time     40.5149: real time     40.5394
     EDDAV:  cpu time    200.4649: real time    200.5753
       DOS:  cpu time      0.0026: real time      0.0027
    CHARGE:  cpu time     23.5259: real time     23.5477
    MIXING:  cpu time      0.0450: real time      0.0450
    --------------------------------------------
      LOOP:  cpu time    268.4275: real time    268.6117

 eigenvalue-minimisations  :  2120
 total energy-change (2. order) : 0.4989504E-03  (-0.7494988E-03)
 number of electron     376.9999999 magnetization 
 augmentation part      -20.8264137 magnetization 

 Broyden mixing:
  rms(total) = 0.14792E-01    rms(broyden)= 0.97785E-01
  rms(prec ) = 0.15901E-01
  weight for this iteration     100.00
  WARNING: grid for Broyden might be to small

 eigenvalues of (default mixing * dielectric matrix)
  average eigenvalue GAMMA=   0.9312
  2.5830  1.1077  0.2589  0.7770  0.6168  0.6168  0.5580

 Free energy of the ion-electron system (eV)
  ---------------------------------------------------
  alpha Z        PSCENC =        49.70632041
  Ewald energy   TEWEN  =     58858.96876814
  -Hartree energ DENC   =    -67331.09142241
  -exchange      EXHF   =         0.00000000
  -V(xc)+E(xc)   XCENC  =      -429.52343939
  PAW double counting   =     53146.04365444   -52228.69115577
  entropy T*S    EENTRO =        -0.24020544
  eigenvalues    EBANDS =     -2538.71381502
  atomic energy  EATOM  =      9594.54415021
  Solvation  Ediel_sol  =         0.00000000
  ---------------------------------------------------
  free energy    TOTEN  =      -878.99714481 eV

  energy without entropy =     -878.75693937  energy(sigma->0) =     -878.87704209


--------------------------------------------------------------------------------------------------------




--------------------------------------- Iteration      1(   9)  ---------------------------------------


    POTLOK:  cpu time      2.1694: real time      2.1972
    SETDIJ:  cpu time      1.7084: real time      1.7095
    EDDIAG:  cpu time     40.5321: real time     40.5594
     EDDAV:  cpu time    200.4060: real time    200.5218
       DOS:  cpu time      0.0085: real time      0.0085
    CHARGE:  cpu time     23.5253: real time     23.5484
    MIXING:  cpu time      0.0462: real time      0.0462
    --------------------------------------------
      LOOP:  cpu time    268.3960: real time    268.5911

 eigenvalue-minimisations  :  2120
 total energy-change (2. order) :-0.6230194E-03  (-0.3579212E-03)
 number of electron     376.9999999 magnetization 
 augmentation part      -20.8249763 magnetization 

 Broyden mixing:
  rms(total) = 0.54847E-02    rms(broyden)= 0.43227E-01
  rms(prec ) = 0.65253E-02
  weight for this iteration     100.00
  WARNING: grid for Broyden might be to small

 eigenvalues of (default mixing * dielectric matrix)
  average eigenvalue GAMMA=   0.9536
  2.5763  1.4090  0.2588  0.7950  0.7950  0.6782  0.6265  0.4900

 Free energy of the ion-electron system (eV)
  ---------------------------------------------------
  alpha Z        PSCENC =        49.70632041
  Ewald energy   TEWEN  =     58858.96876814
  -Hartree energ DENC   =    -67330.19860411
  -exchange      EXHF   =         0.00000000
  -V(xc)+E(xc)   XCENC  =      -429.35793853
  PAW double counting   =     53178.44261344   -52261.07834849
  entropy T*S    EENTRO =        -0.24040636
  eigenvalues    EBANDS =     -2539.78432255
  atomic energy  EATOM  =      9594.54415021
  Solvation  Ediel_sol  =         0.00000000
  ---------------------------------------------------
  free energy    TOTEN  =      -878.99776783 eV

  energy without entropy =     -878.75736146  energy(sigma->0) =     -878.87756464


--------------------------------------------------------------------------------------------------------




--------------------------------------- Iteration      1(  10)  ---------------------------------------


    POTLOK:  cpu time      2.1635: real time      2.1932
    SETDIJ:  cpu time      1.7119: real time      1.7128
    EDDIAG:  cpu time     40.5334: real time     40.5584
     EDDAV:  cpu time    198.5894: real time    198.6998
       DOS:  cpu time      0.0036: real time      0.0036
    CHARGE:  cpu time     23.5264: real time     23.5492
    MIXING:  cpu time      0.0465: real time      0.0465
    --------------------------------------------
      LOOP:  cpu time    266.5745: real time    266.7634

 eigenvalue-minimisations  :  2088
 total energy-change (2. order) :-0.1516590E-03  (-0.8488044E-04)
 number of electron     376.9999999 magnetization 
 augmentation part      -20.8252023 magnetization 

 Broyden mixing:
  rms(total) = 0.28289E-02    rms(broyden)= 0.30411E-01
  rms(prec ) = 0.33740E-02
  weight for this iteration     100.00
  WARNING: grid for Broyden might be to small

 eigenvalues of (default mixing * dielectric matrix)
  average eigenvalue GAMMA=   1.0058
  2.5386  2.1049  0.8626  0.8626  0.2589  0.7168  0.6048  0.5817  0.5212

 Free energy of the ion-electron system (eV)
  ---------------------------------------------------
  alpha Z        PSCENC =        49.70632041
  Ewald energy   TEWEN  =     58858.96876814
  -Hartree energ DENC   =    -67329.90293869
  -exchange      EXHF   =         0.00000000
  -V(xc)+E(xc)   XCENC  =      -429.36019797
  PAW double counting   =     53187.51693017   -52270.14826619
  entropy T*S    EENTRO =        -0.24050864
  eigenvalues    EBANDS =     -2540.08217692
  atomic energy  EATOM  =      9594.54415021
  Solvation  Ediel_sol  =         0.00000000
  ---------------------------------------------------
  free energy    TOTEN  =      -878.99791949 eV

  energy without entropy =     -878.75741084  energy(sigma->0) =     -878.87766516


--------------------------------------------------------------------------------------------------------




--------------------------------------- Iteration      1(  11)  ---------------------------------------


    POTLOK:  cpu time      2.1777: real time      2.2063
    SETDIJ:  cpu time      1.7187: real time      1.7200
    EDDIAG:  cpu time     40.4964: real time     40.5245
     EDDAV:  cpu time    196.2104: real time    196.3198
       DOS:  cpu time      0.0066: real time      0.0066
    CHARGE:  cpu time     23.5307: real time     23.5518
    MIXING:  cpu time      0.0471: real time      0.0478
    --------------------------------------------
      LOOP:  cpu time    264.1877: real time    264.3768

 eigenvalue-minimisations  :  2048
 total energy-change (2. order) :-0.9670492E-04  (-0.3688093E-04)
 number of electron     376.9999999 magnetization 
 augmentation part      -20.8252871 magnetization 

 Broyden mixing:
  rms(total) = 0.14881E-02    rms(broyden)= 0.11379E-01
  rms(prec ) = 0.17966E-02
  weight for this iteration     100.00
  WARNING: grid for Broyden might be to small

 eigenvalues of (default mixing * dielectric matrix)
  average eigenvalue GAMMA=   1.0390
  2.6139  2.6139  0.2589  0.9520  0.8053  0.8053  0.6737  0.6078  0.5297  0.5297

 Free energy of the ion-electron system (eV)
  ---------------------------------------------------
  alpha Z        PSCENC =        49.70632041
  Ewald energy   TEWEN  =     58858.96876814
  -Hartree energ DENC   =    -67329.66241096
  -exchange      EXHF   =         0.00000000
  -V(xc)+E(xc)   XCENC  =      -429.37005520
  PAW double counting   =     53185.79954842   -52268.42882683
  entropy T*S    EENTRO =        -0.24037381
  eigenvalues    EBANDS =     -2540.31513657
  atomic energy  EATOM  =      9594.54415021
  Solvation  Ediel_sol  =         0.00000000
  ---------------------------------------------------
  free energy    TOTEN  =      -878.99801619 eV

  energy without entropy =     -878.75764238  energy(sigma->0) =     -878.87782928


--------------------------------------------------------------------------------------------------------




--------------------------------------- Iteration      1(  12)  ---------------------------------------


    POTLOK:  cpu time      2.1669: real time      2.1921
    SETDIJ:  cpu time      1.7063: real time      1.7072
    EDDIAG:  cpu time     40.5056: real time     40.5330
     EDDAV:  cpu time    194.8118: real time    194.9235
       DOS:  cpu time      0.0030: real time      0.0030
    CHARGE:  cpu time     23.5398: real time     23.5605
    MIXING:  cpu time      0.0480: real time      0.0484
    --------------------------------------------
      LOOP:  cpu time    262.7814: real time    262.9677

 eigenvalue-minimisations  :  2024
 total energy-change (2. order) :-0.9382742E-04  (-0.2078014E-04)
 number of electron     376.9999999 magnetization 
 augmentation part      -20.8253928 magnetization 

 Broyden mixing:
  rms(total) = 0.82947E-03    rms(broyden)= 0.65791E-02
  rms(prec ) = 0.11184E-02
  weight for this iteration     100.00
  WARNING: grid for Broyden might be to small

 eigenvalues of (default mixing * dielectric matrix)
  average eigenvalue GAMMA=   1.0482
  2.6861  2.6861  1.0323  1.0323  0.8911  0.2589  0.6982  0.6370  0.5466  0.5307
  0.5307

 Free energy of the ion-electron system (eV)
  ---------------------------------------------------
  alpha Z        PSCENC =        49.70632041
  Ewald energy   TEWEN  =     58858.96876814
  -Hartree energ DENC   =    -67329.35851007
  -exchange      EXHF   =         0.00000000
  -V(xc)+E(xc)   XCENC  =      -429.37990964
  PAW double counting   =     53181.99420527   -52264.62235405
  entropy T*S    EENTRO =        -0.24042506
  eigenvalues    EBANDS =     -2540.61035525
  atomic energy  EATOM  =      9594.54415021
  Solvation  Ediel_sol  =         0.00000000
  ---------------------------------------------------
  free energy    TOTEN  =      -878.99811002 eV

  energy without entropy =     -878.75768496  energy(sigma->0) =     -878.87789749


--------------------------------------------------------------------------------------------------------




--------------------------------------- Iteration      1(  13)  ---------------------------------------


    POTLOK:  cpu time      2.1647: real time      2.1932
    SETDIJ:  cpu time      1.7031: real time      1.7037
    EDDIAG:  cpu time     40.5017: real time     40.5285
     EDDAV:  cpu time    192.5214: real time    192.6339
       DOS:  cpu time      0.0037: real time      0.0037
    CHARGE:  cpu time     23.5299: real time     23.5517
    MIXING:  cpu time      0.0498: real time      0.0498
    --------------------------------------------
      LOOP:  cpu time    260.4744: real time    260.6645

 eigenvalue-minimisations  :  1984
 total energy-change (2. order) :-0.1352598E-03  (-0.1406148E-04)
 number of electron     376.9999999 magnetization 
 augmentation part      -20.8254735 magnetization 

 Broyden mixing:
  rms(total) = 0.43867E-03    rms(broyden)= 0.39746E-02
  rms(prec ) = 0.67686E-03
  weight for this iteration     100.00
  WARNING: grid for Broyden might be to small

 eigenvalues of (default mixing * dielectric matrix)
  average eigenvalue GAMMA=   1.0785
  2.7671  2.7671  1.5300  1.0407  0.8494  0.8494  0.2589  0.6541  0.6246  0.5268
  0.5371  0.5371

 Free energy of the ion-electron system (eV)
  ---------------------------------------------------
  alpha Z        PSCENC =        49.70632041
  Ewald energy   TEWEN  =     58858.96876814
  -Hartree energ DENC   =    -67329.02133216
  -exchange      EXHF   =         0.00000000
  -V(xc)+E(xc)   XCENC  =      -429.38567366
  PAW double counting   =     53180.26673527   -52262.89442246
  entropy T*S    EENTRO =        -0.24041897
  eigenvalues    EBANDS =     -2540.94237207
  atomic energy  EATOM  =      9594.54415021
  Solvation  Ediel_sol  =         0.00000000
  ---------------------------------------------------
  free energy    TOTEN  =      -878.99824528 eV

  energy without entropy =     -878.75782631  energy(sigma->0) =     -878.87803579


--------------------------------------------------------------------------------------------------------




--------------------------------------- Iteration      1(  14)  ---------------------------------------


    POTLOK:  cpu time      2.1905: real time      2.1925
    SETDIJ:  cpu time      1.7043: real time      1.7054
    EDDIAG:  cpu time     40.5180: real time     40.5428
     EDDAV:  cpu time    192.6579: real time    192.7639
       DOS:  cpu time      0.0024: real time      0.0024
    CHARGE:  cpu time     23.4999: real time     23.5221
    MIXING:  cpu time      0.0508: real time      0.0508
    --------------------------------------------
      LOOP:  cpu time    260.6237: real time    260.7799

 eigenvalue-minimisations  :  1984
 total energy-change (2. order) :-0.1547200E-03  (-0.1494497E-04)
 number of electron     376.9999999 magnetization 
 augmentation part      -20.8255471 magnetization 

 Broyden mixing:
  rms(total) = 0.30666E-03    rms(broyden)= 0.26583E-02
  rms(prec ) = 0.47265E-03
  weight for this iteration     100.00
  WARNING: grid for Broyden might be to small

 eigenvalues of (default mixing * dielectric matrix)
  average eigenvalue GAMMA=   1.1017
  2.8155  2.8155  1.8826  1.0036  1.0036  0.2589  0.8661  0.7855  0.6354  0.6354
  0.5310  0.5310  0.5578

 Free energy of the ion-electron system (eV)
  ---------------------------------------------------
  alpha Z        PSCENC =        49.70632041
  Ewald energy   TEWEN  =     58858.96876814
  -Hartree energ DENC   =    -67328.69484270
  -exchange      EXHF   =         0.00000000
  -V(xc)+E(xc)   XCENC  =      -429.39094788
  PAW double counting   =     53179.93464089   -52262.56242723
  entropy T*S    EENTRO =        -0.24041850
  eigenvalues    EBANDS =     -2541.26364334
  atomic energy  EATOM  =      9594.54415021
  Solvation  Ediel_sol  =         0.00000000
  ---------------------------------------------------
  free energy    TOTEN  =      -878.99840000 eV

  energy without entropy =     -878.75798150  energy(sigma->0) =     -878.87819075


--------------------------------------------------------------------------------------------------------




--------------------------------------- Iteration      1(  15)  ---------------------------------------


    POTLOK:  cpu time      2.1653: real time      2.1938
    SETDIJ:  cpu time      1.7139: real time      1.7149
    EDDIAG:  cpu time     40.4919: real time     40.5155
     EDDAV:  cpu time    192.1823: real time    192.2871
       DOS:  cpu time      0.0103: real time      0.0108
    CHARGE:  cpu time     23.5231: real time     23.5465
    MIXING:  cpu time      0.0649: real time      0.0658
    --------------------------------------------
      LOOP:  cpu time    260.1518: real time    260.3344

 eigenvalue-minimisations  :  1976
 total energy-change (2. order) :-0.1195967E-03  (-0.9081645E-05)
 number of electron     376.9999999 magnetization 
 augmentation part      -20.8255964 magnetization 

 Broyden mixing:
  rms(total) = 0.22991E-03    rms(broyden)= 0.10158E-02
[...]
   -.111E+02 0.343E+02 -.306E+03   0.117E+02 -.314E+02 0.305E+03   -.508E+00 -.184E+01 0.153E+01   0.306E-04 -.167E-04 0.198E-04
   0.219E+02 -.110E+02 -.331E+03   -.230E+02 0.125E+02 0.331E+03   0.752E+00 -.146E+01 0.903E+00   -.193E-04 -.289E-04 0.856E-05
   -.215E+01 0.192E+02 0.356E+03   0.297E+01 -.214E+02 -.358E+03   -.497E+00 0.255E+01 0.102E+01   0.269E-04 -.641E-05 -.330E-04
   -.842E+01 -.292E+02 -.234E+03   0.849E+01 0.276E+02 0.232E+03   -.515E+00 0.115E+01 0.258E+01   0.491E-05 -.143E-04 0.793E-05
   0.126E+02 -.171E+02 -.733E+02   -.976E+01 0.167E+02 0.716E+02   -.300E+01 0.687E-01 0.287E+01   -.949E-05 -.125E-04 0.238E-05
   -.550E+01 0.215E+02 0.966E+02   0.554E+01 -.206E+02 -.954E+02   -.117E+00 -.769E+00 -.212E+01   -.298E-04 0.206E-04 -.283E-04
   -.257E+02 0.479E+01 -.343E+03   0.257E+02 -.455E+01 0.344E+03   0.377E+00 -.345E+00 -.902E+00   -.669E-05 0.243E-04 0.381E-05
   -.428E+01 -.161E+02 0.172E+03   0.449E+01 0.136E+02 -.172E+03   -.532E+00 0.303E+01 0.124E-01   -.177E-04 -.200E-04 -.236E-04
   0.127E+02 -.609E+01 0.253E+02   -.123E+02 0.621E+01 -.263E+02   -.137E+01 -.609E+00 0.109E+01   0.410E-05 -.238E-04 -.293E-04
   -.101E+02 0.815E+01 0.158E+03   0.104E+02 -.614E+01 -.162E+03   0.232E+00 -.176E+01 0.394E+01   0.222E-05 -.229E-04 -.234E-04
   0.258E+01 -.218E+02 -.160E+03   -.325E+01 0.215E+02 0.161E+03   0.744E+00 0.191E+01 -.456E+00   0.839E-06 -.158E-04 0.176E-04
   -.126E+02 0.417E+01 0.205E+03   0.130E+02 -.655E+00 -.206E+03   -.114E+00 -.372E+01 -.873E+00   0.172E-04 -.123E-04 -.651E-05
   -.282E+01 -.287E+01 0.371E+03   0.226E+01 0.378E+01 -.371E+03   0.172E+01 -.650E+00 -.323E+00   -.176E-04 0.206E-04 -.407E-04
   -.217E+02 -.552E+01 -.871E+02   0.206E+02 0.459E+01 0.889E+02   0.161E+01 0.949E+00 -.238E+01   0.126E-04 0.185E-04 0.178E-04
   0.266E+02 0.295E+02 -.135E+02   -.257E+02 -.277E+02 0.136E+02   -.663E+00 -.290E+01 -.206E-01   0.609E-05 0.878E-05 0.490E-05
   0.111E+02 0.822E+01 0.355E+03   -.127E+02 -.714E+01 -.354E+03   0.969E+00 -.456E+00 -.134E+01   0.657E-05 -.232E-04 -.390E-04
   -.279E+02 0.523E+01 -.168E+03   0.266E+02 -.620E+01 0.168E+03   0.924E+00 0.947E+00 -.302E+00   0.259E-04 -.217E-04 -.275E-04
   -.164E+02 0.200E+02 0.368E+03   0.173E+02 -.212E+02 -.371E+03   -.174E+00 0.819E+00 0.307E+01   0.301E-05 -.321E-04 -.211E-04
   0.392E+01 -.266E+02 -.330E+03   -.474E+01 0.265E+02 0.329E+03   -.232E+00 0.434E+00 0.163E+01   0.207E-04 0.144E-04 0.228E-04
   0.179E+02 0.911E+01 -.907E+01   -.187E+02 -.871E+01 0.835E+01   0.827E+00 -.458E+00 0.461E+00   0.951E-07 0.340E-04 -.175E-04
   0.215E+02 -.754E+01 -.273E+03   -.229E+02 0.104E+02 0.274E+03   0.129E+01 -.344E+01 -.775E+00   -.659E-05 0.619E-04 -.162E-04
   0.156E+02 0.103E+02 0.324E+03   -.155E+02 -.109E+02 -.322E+03   -.128E+00 -.121E-01 -.205E+01   0.499E-05 0.262E-04 -.126E-04
   -.138E+02 -.177E+02 0.337E+03   0.152E+02 0.200E+02 -.339E+03   -.357E+00 -.197E+01 0.196E+01   -.215E-05 -.289E-04 -.295E-04
   -.242E+02 0.840E+01 0.336E+03   0.238E+02 -.857E+01 -.339E+03   -.296E+00 -.600E+00 0.178E+01   0.153E-04 0.154E-05 -.427E-04
   0.245E+02 0.191E+02 0.245E+03   -.232E+02 -.175E+02 -.244E+03   -.226E+01 -.179E+01 -.376E+00   0.702E-05 0.184E-04 -.994E-05
   -.259E+02 0.161E+02 0.206E+02   0.253E+02 -.153E+02 -.194E+02   0.624E+00 -.444E+00 -.130E+01   -.226E-04 0.274E-04 -.736E-05
   0.158E+02 -.575E+01 -.147E+03   -.153E+02 0.600E+01 0.148E+03   -.456E+00 0.155E+00 -.705E+00   -.883E-05 -.109E-04 -.164E-04
   -.511E+01 0.123E+01 0.934E+02   0.531E+01 -.199E+01 -.933E+02   -.939E-02 -.515E+00 0.170E+00   -.377E-05 -.112E-04 -.232E-04
   -.292E+02 -.386E-01 -.375E+03   0.272E+02 -.138E+01 0.371E+03   0.210E+01 0.125E+01 0.354E+01   0.319E-04 0.574E-05 0.317E-04
   -.157E+02 -.141E+02 -.152E+02   0.161E+02 0.128E+02 0.176E+02   -.197E+01 0.856E+00 -.359E+01   -.445E-06 -.209E-05 -.121E-05
   -.316E+02 0.323E+02 -.329E+03   0.304E+02 -.303E+02 0.329E+03   0.204E+01 -.307E+01 -.856E+00   -.261E-05 0.168E-04 0.276E-04
   -.170E+02 0.537E+01 0.104E+02   0.169E+02 -.445E+01 -.916E+01   0.889E+00 -.573E+00 -.743E+00   -.238E-06 -.108E-04 -.706E-06
   -.953E+01 0.128E+01 -.350E+03   0.101E+02 0.567E+00 0.347E+03   -.146E+01 -.720E+00 0.233E+01   -.657E-05 -.242E-04 0.579E-05
   -.564E+01 0.159E+02 0.153E+03   0.435E+01 -.139E+02 -.153E+03   0.149E+01 -.208E+01 -.432E+00   0.261E-04 0.525E-06 -.107E-04
 -----------------------------------------------------------------------------------------------
   -.189E+02 0.951E+01 0.737E+01   -.968E-13 -.160E-13 -.114E-12   0.189E+02 -.951E+01 -.735E+01   0.471E-04 -.401E-04 -.115E-02


 POSITION                                       TOTAL-FORCE (eV/Angst)
 -----------------------------------------------------------------------------------
     13.25100     10.86870     11.13395        -0.567000     -0.152376     -0.054519
      3.25425     12.86510     18.25305         0.470277     -0.085755      0.407396
     11.16000     10.15830     13.60553        -0.592962      1.049267     -0.180673
     13.30520     11.17270     13.58985        -0.018395     -0.114226     -0.421744
     13.85900      8.30607     14.21032        -0.404110     -0.397651     -0.190640
     11.19340      6.33726     16.77631        -0.919445      0.351334      1.411991
      1.82327     12.05760     12.88556         0.168816      0.043332      1.173241
      2.48688     14.28420     12.50997         0.013799      0.086692     -0.049101
     12.88220      8.57458     11.95762         0.012157      0.309105     -0.150338
     13.78120      5.61870     16.27864        -0.269789     -0.274352     -0.098897
      7.33354      2.38570     10.78164        -0.262036      0.124342      1.587127
      1.02683     10.29580     15.43750         1.096919      1.153601      0.441591
      5.19891      3.66890     13.84722        -0.871174     -1.384122      0.086900
     11.86120     12.84350     12.05987        -0.329476      0.432064     -0.690129
      3.11408      5.20171     18.29860        -0.780239      1.006117      0.289523
      2.64225      3.17981     10.58474         0.494696     -0.894252     -0.004106
      2.96318      6.87572     16.56916         0.731078     -0.647747      1.006335
      8.69445     13.82410     10.49131        -0.366055     -0.757642      0.506970
     12.93370      0.76111     15.82509         0.120896      0.132328      0.171110
      5.79099      0.34681     18.27473        -0.281473      0.275105      0.159523
      0.97689      9.09687     11.76936        -0.350918      0.004014     -0.075815
     12.65850     13.00720     16.25209        -0.280125     -0.782356     -0.394859
      1.98719      6.58587     14.56763        -0.181257     -0.000278     -0.557636
      2.34440     11.95470     14.38904        -1.207500     -0.946444     -1.304202
      2.30001     14.02940     17.77154        -0.483655      0.504874      0.499964
      7.43734      4.90688     16.11157         0.032178      0.407876      0.541465
      7.92800      9.66714     10.78632         0.389940      0.213895      0.950384
      3.38166      2.82579     15.18167         0.739336     -0.398484     -0.502678
      6.28221      8.05091     11.04195         1.380114     -0.065787     -0.004085
      2.07206     13.93880     15.49838         0.676593      0.484345     -0.470000
      7.99208      5.97292     13.41638         0.332296      0.871626     -0.260021
      3.69386      1.27957     18.52469        -0.050330     -0.491222     -0.578072
      0.04721      5.27993     12.09029        -0.919327     -0.401416     -0.586582
      4.41203      8.24725     12.24782        -0.465034      0.524991     -0.648273
      5.37101     11.94210     16.09533         0.910968      0.354386      0.380428
      9.63067      7.44485     18.47240         0.896571      0.241571      0.585055
     12.44510      5.60341     11.24261        -1.377543      0.279581      0.504880
      2.99580      9.61084     10.94403         1.805318      0.901418      0.293222
     10.96160      9.36425     17.72984        -1.518431      0.247324     -0.268509
     11.63370      7.79126     12.12051         0.276258     -0.808772     -0.732003
      4.07299      0.59976     14.88750        -0.757688      0.051063      0.631874
     11.60820      5.72607     15.54177         0.423460     -1.271638     -0.767926
      7.44600      6.05111     11.07512         0.655056      0.096633     -0.079652
     13.42820      1.43074     11.16946         0.288297      0.439164      0.134150
      5.19705     12.78800     12.15804        -0.110422      0.190193      0.876218
      7.59693      9.63716     14.30044         1.036541      0.384024     -0.036117
     10.70670      4.07079     11.82695         0.153667      1.186879      0.280672
      9.44579      1.35458     10.69674         0.049335      1.027830      0.527447
      7.53817      0.27062     14.46575        -0.061225     -0.690371     -0.270640
      3.90595      0.25626     12.60017         0.016326     -0.896674     -0.469269
      9.40441     11.09060     17.20327         0.932886     -0.163934     -0.495669
     14.00250      7.69095     17.18579         0.845427      0.085653     -0.137647
      8.24214     11.17180     12.66464         0.664430     -0.587719     -0.234534
      4.00717     11.73280     10.50859        -1.197777     -0.284734     -0.299403
      4.23568      4.25320     11.83366        -0.567957      0.332093      0.065723
      5.94253      5.65588     14.49055        -0.000226      1.479782      0.904821
      0.29098      0.55013     14.54738         0.037732      0.305955     -0.371849
      6.49501      8.46144     17.13503        -0.184442      0.580626      0.193601
      9.60755      0.18545     15.53550        -0.744141     -0.628418     -0.586922
      0.77042      8.54473     14.03464         0.508965     -0.548965     -0.103312
      8.27537      7.10400     16.68459        -0.036733     -1.058521      0.143932
      6.34308      3.68250     17.75217         0.222170     -0.282687     -0.182581
     10.40840     12.52250     15.58793        -0.017814     -0.141313      0.682897
      3.78823     11.41240     17.68236        -0.395842      0.149497      0.540126
      4.52849     11.45870     14.05056         0.456506     -0.079542     -0.597965
     11.24810      7.65964     14.41367         0.756980      0.406102     -0.485002
     13.16020     12.71190     18.48947         0.593619     -0.187784      0.118401
      9.39425      1.31626     17.51213         0.021712      1.103484      0.542486
      1.55939     10.67770     17.70212        -0.149208     -0.248742      0.222154
      3.78391      1.08693     10.43194         0.220733      0.600096     -0.388259
      7.29592     10.59580     16.40722        -0.473483     -0.359837      0.459256
     13.44190     11.07860     15.04822        -0.325267     -0.394781      1.329639
      7.13645      2.35155     13.46111        -0.067105      0.166727     -0.980597
     13.90560      4.18207     18.06145         0.309466     -0.187747      0.419170
      7.46963     13.30440     12.50293        -0.368331      0.648183     -0.085208
      5.38322      9.30193     14.03748        -1.059827     -0.528121      0.160305
     13.86410     14.06080     12.43931         0.395374      0.216509      0.282499
     12.45470      8.94134     15.97526         0.099059      1.647960      0.095809
     11.30690      1.90932     12.16328         0.198811     -0.376054     -1.036939
      6.01020      4.29230     10.36256         1.353498      0.196754     -0.145070
     10.61910      3.58275     15.39866         0.522819      0.070333     -0.780586
      0.34333      5.03433     14.37389         0.193881     -1.193610      0.039164
      0.03824     10.67200     10.45219        -0.653875      0.641292      0.120408
      5.89878     14.20710     16.07409        -0.355360      0.032340     -0.586537
     10.71650     12.75460     10.00000         0.626340     -0.175416      0.358377
     10.77110      3.20688     17.63635        -0.978696      0.159978      1.008007
      1.19226      2.78840     14.22253         0.051937     -0.062923     -0.275078
      4.01900      3.34689     17.41789        -0.007500     -0.807474     -0.145626
      1.54276      6.90305     11.38702        -0.097414     -0.616436     -0.119282
      0.43068     13.01700     10.51322         0.937836      0.033796      0.225631
      9.91774      8.48650     10.63949        -0.735798     -0.774094     -0.135719
      0.74202      3.01856     11.81755        -0.975725     -0.218224      0.224312
      8.65585      3.90980     14.28381        -0.022935      0.319691     -0.061667
      4.99056      7.52151     15.62008         0.122098      0.425770      0.111875
     10.46630     11.57300     13.39014         0.227248     -1.328497      0.303323
      7.45303      1.85690     18.58170         0.131814     -0.114158     -0.272471
      9.05690      7.84453     14.71268        -1.716510     -0.449423     -1.337873
     12.76840      2.18001     17.87955         0.892900     -1.019138     -0.965937
     11.14250      1.48384     14.42301         0.909444      0.333580      0.540242
      1.66506      8.29281     17.82500        -1.084825      1.066322     -0.756840
      3.37198      6.28107     12.76605         0.237823     -0.097641     -1.124566
 -----------------------------------------------------------------------------------
    total drift:                                0.004428     -0.003300      0.010230


--------------------------------------------------------------------------------------------------------



  FREE ENERGIE OF THE ION-ELECTRON SYSTEM (eV)
  ---------------------------------------------------
  free  energy   TOTEN  =      -878.99880734 eV

  energy  without entropy=     -878.75838715  energy(sigma->0) =     -878.87859725



--------------------------------------------------------------------------------------------------------


    POTLOK:  cpu time      3.8668: real time      3.8694


--------------------------------------------------------------------------------------------------------


     LOOP+:  cpu time   6175.7487: real time   6180.1740
    4ORBIT:  cpu time      0.0000: real time      0.0000



 total charge

# of ion       s       p       d       tot
------------------------------------------
    1        0.565   0.016   0.000   0.581
    2        0.586   0.021   0.000   0.608
    3        0.532   0.013   0.000   0.545
    4        0.574   0.018   0.000   0.592
    5        0.576   0.019   0.000   0.595
    6        0.593   0.019   0.000   0.612
    7        0.524   0.013   0.000   0.537
    8        0.555   0.016   0.000   0.571
    9        0.569   0.017   0.000   0.585
   10        0.760   0.994   0.000   1.754
   11        0.800   0.787   0.000   1.587
   12        0.754   0.970   0.000   1.724
   13        0.763   0.945   0.000   1.709
   14        0.795   0.840   0.000   1.635
   15        0.863   0.754   0.000   1.616
   16        0.798   0.885   0.000   1.682
   17        0.758   0.964   0.000   1.722
   18        0.802   0.873   0.000   1.675
   19        0.770   0.902   0.000   1.672
   20        0.789   0.890   0.000   1.680
   21        0.760   0.971   0.000   1.731
   22        0.752   0.960   0.000   1.712
   23        0.770   0.973   0.000   1.743
   24        0.751   0.967   0.000   1.718
   25        0.805   0.829   0.000   1.634
   26        0.769   0.913   0.000   1.683
   27        0.787   0.851   0.000   1.638
   28        0.763   0.909   0.000   1.672
   29        0.798   0.874   0.000   1.672
   30        0.754   0.966   0.000   1.720
   31        0.771   0.879   0.000   1.650
   32        0.790   0.862   0.000   1.652
   33        0.761   0.947   0.000   1.707
   34        0.767   0.978   0.000   1.745
   35        0.757   0.968   0.000   1.726
   36        0.878   0.717   0.000   1.595
   37        0.797   0.827   0.000   1.623
   38        0.797   0.867   0.000   1.664
   39        0.792   0.834   0.000   1.626
   40        0.750   0.928   0.000   1.678
   41        0.766   0.928   0.000   1.694
   42        0.764   0.995   0.000   1.759
   43        0.790   0.827   0.000   1.617
   44        0.810   0.811   0.000   1.621
   45        0.764   0.916   0.000   1.680
   46        0.762   0.952   0.000   1.714
   47        0.837   0.762   0.000   1.600
   48        0.797   0.842   0.000   1.639
   49        0.751   0.919   0.000   1.671
   50        0.764   0.940   0.000   1.704
   51        0.781   0.856   0.000   1.637
   52        0.782   0.890   0.000   1.672
   53        0.758   0.935   0.000   1.693
   54        0.840   0.746   0.000   1.586
   55        0.764   0.934   0.000   1.698
   56        0.764   0.980   0.000   1.743
   57        0.761   0.899   0.000   1.659
   58        0.802   0.872   0.000   1.673
   59        0.756   0.970   0.000   1.725
   60        0.767   0.966   0.000   1.733
   61        0.761   0.982   0.000   1.744
   62        0.794   0.845   0.000   1.639
   63        0.756   0.912   0.000   1.668
   64        0.818   0.815   0.000   1.633
   65        0.760   0.977   0.000   1.737
   66        0.766   0.986   0.000   1.752
   67        0.925   0.597   0.000   1.522
   68        0.788   0.875   0.000   1.662
   69        0.808   0.824   0.000   1.632
   70        0.870   0.711   0.000   1.581
   71        0.756   0.935   0.000   1.691
   72        0.758   0.934   0.000   1.692
   73        0.761   0.887   0.000   1.648
   74        0.852   0.754   0.000   1.606
   75        0.760   0.902   0.000   1.662
   76        0.768   0.951   0.000   1.720
   77        0.772   0.865   0.000   1.637
   78        0.763   0.891   0.000   1.654
   79        0.761   0.915   0.000   1.676
   80        0.803   0.846   0.000   1.649
   81        0.760   0.944   0.000   1.704
   82        0.771   0.954   0.000   1.725
   83        0.797   0.888   0.000   1.685
   84        0.755   0.934   0.000   1.689
   85        0.876   0.717   0.000   1.593
   86        0.797   0.896   0.000   1.693
   87        0.761   0.879   0.000   1.640
   88        0.764   0.916   0.000   1.680
   89        0.808   0.858   0.000   1.666
   90        0.874   0.681   0.000   1.555
   91        0.827   0.754   0.000   1.582
   92        0.767   0.879   0.000   1.646
   93        0.761   0.939   0.000   1.699
   94        0.763   0.903   0.000   1.666
   95        0.750   0.928   0.000   1.679
   96        0.781   0.907   0.000   1.687
   97        0.760   0.962   0.000   1.722
   98        0.809   0.837   0.000   1.646
   99        0.769   0.937   0.000   1.705
  100        0.801   0.825   0.000   1.626
  101        0.759   0.954   0.000   1.713
--------------------------------------------------
tot         77.183  81.811   0.000 158.994


 total amount of memory used by VASP MPI-rank0   369758. kBytes
=======================================================================

   base                                    :      30000. kBytes
   nonl-proj                               :      75892. kBytes
   fftplans                                :     110224. kBytes
   grid                                    :      85039. kBytes
   one-center                              :         21. kBytes
   wavefun                                 :      68582. kBytes

  
  
 General timing and accounting informations for this job:
 ========================================================
  
                  Total CPU time used (sec):     6326.231
                            User time (sec):     5615.138
                          System time (sec):      711.093
                         Elapsed time (sec):     6330.683
  
                   Maximum memory used (kb):      636616.
                   Average memory used (kb):          N/A
  
                          Minor page faults:     10608227
                          Major page faults:         1173
                 Voluntary context switches:         3438
