ITEM: TIMESTEP
152235
ITEM: NUMBER OF ATOMS
12000
ITEM: BOX BOUNDS pp pp pp
-9.9320005715621640e-01 5.8914383663331328e+01
-9.9320005715621640e-01 5.8914383663331328e+01
-9.9320005715621640e-01 6.3257948737815191e+01
ITEM: ATOMS id type xs ys zs
1 2 0.374575 0.379082 0.267509
2 2 0.17124 0.0345139 0.274887
3 2 0.17326 0.0536393 0.214031
4 2 0.531609 0.140976 0.203725
5 2 0.0385522 0.475972 0.00271524
6 2 0.663468 0.201058 0.11044
7 2 0.30311 0.424251 0.652839
8 2 0.281371 0.187761 0.449704
9 2 0.440277 0.206547 0.0484341
10 2 0.82831 0.0912608 0.17938
11 2 0.286986 0.871397 0.79816
12 2 0.336714 0.8436 0.256413
13 2 0.471758 0.0686529 0.568218
14 2 0.246903 0.320135 0.0772853
15 2 0.253278 0.408989 0.424282
16 2 0.302503 0.182011 0.111336
17 2 0.699933 0.182788 0.619252
18 2 0.130635 0.125712 0.168479
19 2 0.290607 0.98918 0.482171
20 2 0.0968569 0.229914 0.866292
21 2 0.425573 0.944405 0.557811
22 2 0.345571 0.102696 0.0468106
23 2 0.322241 0.229008 0.821037
24 2 0.182074 0.676301 0.359009
25 2 0.670287 0.930861 0.121984
26 2 0.478718 0.642274 0.128318
27 2 0.0626541 0.855419 0.404723
28 2 0.196703 0.553971 0.354687
29 2 0.219138 0.573336 0.740017
30 2 0.242431 0.903199 0.434289
31 2 0.719281 0.906515 0.141642
32 2 0.364618 0.282562 0.98001
33 2 0.359793 0.389747 0.0716318
34 2 0.377744 0.319047 0.245056
35 2 0.0661102 0.402633 0.0529005
36 2 0.318998 0.432638 0.954212
37 2 0.249117 0.988438 0.256023
38 2 0.575637 0.563382 0.346184
39 2 0.279758 0.806564 0.819852
40 2 0.306762 0.310195 0.462754
41 2 0.188168 0.225056 0.595642
42 2 0.0276692 0.0192324 0.582111
43 2 0.232995 0.152982 0.173192
44 2 0.578789 0.968898 0.490071
45 2 0.298308 0.2366 0.881147
46 2 0.00523467 0.79214 0.907658
47 2 0.385846 0.424133 0.166752
48 2 0.427801 0.210448 0.524423
49 2 0.898242 0.921072 0.131357
50 2 0.877561 0.627269 0.121175
51 2 0.297086 0.323107 0.373316
52 2 0.369803 0.110838 0.981385
53 2 0.153175 0.278806 0.253674
54 2 0.279692 0.421538 0.591116
55 2 0.0436634 0.352509 0.649237
56 2 0.504362 0.0850116 0.360433
57 2 0.382007 0.238424 0.0423428
58 2 0.179602 0.343759 0.389659
59 2 0.256001 0.131621 0.0220837
60 2 0.293839 0.348055 0.286332
61 2 0.51441 0.238802 0.132079
62 2 0.853387 0.0701149 0.782614
63 2 0.0659333 0.0283266 0.371126
64 2 0.221276 0.355335 0.319675
65 2 0.221058 0.246 0.970322
66 2 0.0306626 0.593806 0.553729
67 2 0.289289 0.22298 0.56215
68 2 0.0890302 0.766379 0.108072
69 2 0.0125268 0.0995268 0.0119541
70 2 0.301526 0.384621 0.299222
71 2 0.0238791 0.449464 0.462793
72 2 0.163971 0.816787 0.276534
73 2 0.1108 0.115851 0.0172339
74 2 0.166978 0.894141 0.448068
75 2 0.328842 0.974425 0.983555
76 2 0.0372227 0.807093 0.649162
77 2 0.145435 0.779944 0.542073
78 2 0.297741 0.117715 0.488348
79 2 0.38892 0.737399 0.248666
80 2 0.0134229 0.152668 0.397392
81 2 0.170712 0.36468 0.446374
82 2 0.136354 0.469103 0.432835
83 2 0.00997992 0.962554 0.150085
84 2 0.554011 0.348308 0.281821
85 2 0.839092 0.855248 0.936077
86 2 0.35263 0.639449 0.693378
87 2 0.360165 0.145674 0.964445
88 2 0.983815 0.160592 0.568803
89 2 0.175386 0.0620022 0.909963
90 2 0.558136 0.0850146 0.434233
91 2 0.790923 0.371547 0.0344594
92 2 0.22557 0.352384 0.426597
93 2 0.345986 0.24604 0.590185
94 2 0.374938 0.34699 0.033425
95 2 0.168642 0.243642 0.300462
96 2 0.605531 0.0715201 0.322543
97 2 0.0883244 0.115535 0.115078
98 2 0.288452 0.277243 0.476937
99 2 0.220814 0.26201 0.655479
100 2 0.296148 0.319481 0.311356
101 2 0.10376 0.942511 0.557804
102 2 0.00456557 0.656647 0.32874
103 2 0.387669 0.980416 0.0906754
104 2 0.138396 0.12124 0.300845
105 2 0.222719 0.469285 0.264664
106 2 0.379087 0.0273148 0.322265
107 2 0.257292 0.280494 0.283779
108 2 0.293897 0.186107 0.485907
109 2 0.124839 0.275104 0.156788
110 2 0.0964756 0.376941 0.118837
111 2 0.710378 0.423928 0.356925
112 2 0.0880993 0.34723 0.33284
113 2 0.0172614 0.188472 0.186497
114 2 0.00450679 0.270912 0.466637
115 2 0.547401 0.909987 0.943722
116 2 0.534534 0.650531 0.344097
117 2 0.229618 0.141434 0.321815
118 2 0.0536624 0.218555 0.245984
119 2 0.26444 0.244162 0.230041
120 2 0.419386 0.694176 0.443881
121 2 0.977078 0.530398 0.602449
122 2 0.0789114 0.285185 0.203227
123 2 0.983164 0.695586 0.551585
124 2 0.182386 0.136076 0.488947
125 2 0.488778 0.691821 0.324221
126 2 0.883453 0.434116 0.344249
127 2 0.127738 0.764944 0.936588
128 2 0.920222 0.222313 0.281482
129 2 0.4322 0.180867 0.915301
130 2 0.269268 0.0785055 0.336613
131 2 0.151527 0.152195 0.851782
132 2 0.336884 0.00528816 0.0417604
133 2 0.73015 0.31337 0.375661
134 2 0.78138 0.689052 0.59886
135 2 0.302407 0.404722 0.266454
136 2 0.487964 0.0554399 0.909237
137 2 0.367979 0.186429 0.252464
138 2 0.292504 0.690618 0.412521
139 2 0.0214088 0.908289 0.410901
140 2 0.136925 0.348432 0.922089
141 2 0.0852118 0.100506 0.342592
142 2 0.258938 0.304546 0.220355
143 2 0.319366 0.263943 0.310107
144 2 0.252074 0.278978 0.425923
145 2 0.384576 0.303274 0.581554
146 2 0.00789453 0.562002 0.675343
147 2 0.990098 0.0180765 0.669428
148 2 0.341841 0.0783473 0.247795
149 2 0.287415 0.372058 0.502261
150 2 0.0414156 0.35319 0.504274
151 2 0.0159825 0.280383 0.165676
152 2 0.388927 0.753077 0.579785
153 2 0.0780093 0.0447384 0.599657
154 2 0.123958 0.177387 0.383546
155 2 0.374379 0.18349 0.553403
156 2 0.204398 0.175848 0.187307
157 2 0.772131 0.1391 0.0568479
158 2 0.504776 0.193515 0.324227
159 2 0.221472 0.0899623 0.452191
160 2 0.789261 0.33295 0.525758
161 2 0.870866 0.183398 0.266965
162 2 0.509982 0.164806 0.0403206
163 2 0.28123 0.225006 0.295238
164 2 0.593031 0.2274 0.199834
165 2 0.252574 0.479297 0.596331
166 2 0.359593 0.181944 0.0842914
167 2 0.147177 0.159189 0.787216
168 2 0.986497 0.414239 0.668725
169 2 0.352156 0.424213 0.689769
170 2 0.210607 0.0566242 0.340912
171 2 0.0877141 0.1642 0.2357
172 2 0.246977 0.341293 0.456859
173 2 0.258436 0.428376 0.37159
174 2 0.472781 0.0992882 0.126683
175 2 0.0394881 0.415039 0.198041
176 2 0.392696 0.296046 0.299827
177 2 0.435826 0.40671 0.977965
178 2 0.315611 0.135903 0.175561
179 2 0.037814 0.417383 0.882616
180 2 0.165648 0.117002 0.378375
181 2 0.297658 0.357274 0.569038
182 2 0.216935 0.228367 0.00326853
183 2 0.573634 0.508826 0.552963
184 2 0.951641 0.195505 0.210695
185 2 0.248565 0.416844 0.0266287
186 2 0.176516 0.136249 0.950577
187 2 0.938013 0.0589935 0.205151
188 2 0.0725516 0.405365 0.299894
189 2 0.193415 0.075631 0.638623
190 2 0.168117 0.355395 0.154887
191 2 0.0445827 0.439333 0.342858
192 2 0.253368 0.111926 0.453809
193 2 0.972953 0.0715202 0.740955
194 2 0.27982 0.541057 0.247206
195 2 0.486639 0.218217 0.436001
196 2 0.47619 0.854112 0.407373
197 2 0.057778 0.081719 0.172084
198 2 0.916103 0.206383 0.452383
199 2 0.253603 0.575997 0.936045
200 2 0.383997 0.385417 0.427873
201 2 0.269285 0.139697 0.0623027
202 2 0.144235 0.232592 0.666019
203 2 0.0997532 0.481204 0.337018
204 2 0.516736 0.0628239 0.102222
205 2 0.489573 0.176949 0.384704
206 2 0.0328184 0.268693 0.10273
207 2 0.201809 0.115819 0.204754
208 2 0.683724 0.862347 0.106179
209 2 0.903205 0.574014 0.515762
210 2 0.133041 0.106613 0.202132
211 2 0.509765 0.973356 0.188099
212 2 0.950508 0.866979 0.384808
213 2 0.953099 0.00669135 0.366909
214 2 0.417016 0.958097 0.703997
215 2 0.296446 0.199145 0.180818
216 2 0.910477 0.715989 0.419924
217 2 0.0927602 0.212756 0.147239
218 2 0.0965264 0.412949 0.327649
219 2 0.956697 0.0476171 0.590734
220 2 0.953868 0.39613 0.167586
221 2 0.336904 0.278509 0.144068
222 2 0.0898459 0.253179 0.0361253
223 2 0.202269 0.637392 0.728315
224 2 0.196124 0.886106 0.822543
225 2 0.807312 0.496591 0.536887
226 2 0.611671 0.208269 0.685563
227 2 0.422017 0.98615 0.34141
228 2 0.231755 0.284497 0.0756036
229 2 0.328987 0.139525 0.438584
230 2 0.340515 0.241471 0.285505
231 2 0.243301 0.552899 0.307625
232 2 0.970344 0.781254 0.968503
233 2 0.0854842 0.994359 0.150381
234 2 0.260566 0.912828 0.402061
235 2 0.188574 0.988906 0.11019
236 2 0.219113 0.867539 0.205393
237 2 0.0246426 0.925523 0.322473
238 2 0.224853 0.166917 0.984655
239 2 0.98734 0.112731 0.11552
240 2 0.898274 0.155659 0.410941
241 2 0.380069 0.284148 0.408404
242 2 0.00147841 0.439379 0.929705
243 2 0.404192 0.933803 0.27467
244 2 0.118397 0.170389 0.211319
245 2 0.344717 0.750405 0.917944
246 2 0.797634 0.378939 0.670365
247 2 0.971599 0.259791 0.444813
248 2 0.298801 0.238622 0.17696
249 2 0.424536 0.761939 0.297019
250 2 0.253088 0.173461 0.369644
251 2 0.514632 0.587234 0.956128
252 2 0.1657 0.749752 0.859396
253 2 0.15715 0.593287 0.33941
254 2 0.118631 0.182799 0.149617
255 2 0.409244 0.222299 0.268567
256 2 0.56012 0.0627287 0.0156728
257 2 0.417402 0.357981 0.375903
258 2 0.493566 0.0740857 0.794671
259 2 0.373468 0.548665 0.268933
260 2 0.366089 0.118365 0.292661
261 2 0.0409192 0.509934 0.983189
262 2 0.273412 0.291096 0.996497
263 2 0.601012 0.0778862 0.0675668
264 2 0.122933 0.179401 0.852723
265 2 0.373562 0.0953942 0.262837
266 2 0.128902 0.517012 0.300648
267 2 0.935228 0.507146 0.0700629
268 2 0.202698 0.280973 0.971403
269 2 0.250261 0.394828 0.546729
270 2 0.228717 0.169988 0.909522
271 2 0.0823321 0.273938 0.268074
272 2 0.930518 0.246716 0.251343
273 2 0.597981 0.356786 0.164666
274 2 0.267528 0.177882 0.27355
275 2 0.357927 0.149735 0.246155
276 2 0.621901 0.603712 0.315282
277 2 0.648686 0.898173 0.356383
278 2 0.549845 0.174624 0.0357841
279 2 0.201964 0.39846 0.981034
280 2 0.044289 0.128315 0.288196
281 2 0.0684504 0.154694 0.0481341
282 2 0.267929 0.7515 0.163066
283 2 0.430785 0.0338937 0.153356
284 2 0.269696 0.393743 0.320116
285 2 0.375509 0.134993 0.16932
286 2 0.943176 0.894486 0.505063
287 2 0.292545 0.246335 0.11027
288 2 0.689201 0.102423 0.176541
289 2 0.818065 0.371025 0.18399
290 2 0.119012 0.750796 0.436917
291 2 0.0600046 0.79589 0.570394
292 2 0.431295 0.123626 0.186121
293 2 0.0821033 0.931857 0.982685
294 2 0.309089 0.204152 0.63956
295 2 0.171953 0.392641 0.277319
296 2 0.0933526 0.341359 0.296144
297 2 0.142335 0.357856 0.391561
298 2 0.174179 0.781834 0.422092
299 2 0.87811 0.36315 0.403417
300 2 0.150422 0.434296 0.586069
301 2 0.23903 0.413793 0.103064
302 2 0.150295 0.00339699 0.0044604
303 2 0.253668 0.240141 0.108504
304 2 0.0981847 0.798719 0.330204
305 2 0.242236 0.21013 0.129568
306 2 0.394838 0.329055 0.362822
307 2 0.815602 0.607764 0.667398
308 2 0.470622 0.795579 0.598984
309 2 0.904392 0.352619 0.109549
310 2 0.293589 0.115383 0.930233
311 2 0.25551 0.459141 0.897995
312 2 0.957144 0.0571434 0.403173
313 2 0.158821 0.756919 0.12978
314 2 0.340523 0.0349074 0.311004
315 2 0.690723 0.953615 0.384355
316 2 0.545843 0.747171 0.101846
317 2 0.428592 0.0221655 0.633467
318 2 0.140418 0.572105 0.172096
319 2 0.135453 0.485281 0.494873
320 2 0.57723 0.411731 0.27784
321 2 0.1981 0.502244 0.315947
322 2 0.508699 0.876744 0.409398
323 2 0.489775 0.0880045 0.419891
324 2 0.445596 0.127182 0.34185
325 2 0.399999 0.342912 0.94206
326 2 0.800443 0.456857 0.374168
327 2 0.18307 0.369519 0.999352
328 2 0.141259 0.2993 0.131107
329 2 0.0269481 0.329447 0.958861
330 2 0.183005 0.558643 0.744749
331 2 0.262783 0.349059 0.136744
332 2 0.32893 0.685608 0.934731
333 2 0.443451 0.355634 0.585265
334 2 0.973109 0.077476 0.874857
335 2 0.335849 0.292525 0.106741
336 2 0.258502 0.342538 0.627919
337 2 0.200041 0.645552 0.544942
338 2 0.314773 0.985875 0.191396
339 2 0.311447 0.444278 0.346836
340 2 0.238381 0.994782 0.548104
341 2 0.0649039 0.290917 0.993838
342 2 0.863792 0.285488 0.0211219
343 2 0.0941679 0.269278 0.866475
344 2 0.259606 0.346424 0.265573
345 2 0.513546 0.201907 0.252404
346 2 0.500882 0.756101 0.392124
347 2 0.622445 0.225438 0.919036
348 2 0.241925 0.270009 0.208772
349 2 0.46604 0.7186 0.244536
350 2 0.651443 0.145097 0.590716
351 2 0.0122835 0.211945 0.0799721
352 2 0.004111 0.860262 0.494311
353 2 0.474331 0.593938 0.404111
354 2 0.388358 0.0441197 0.383956
355 2 0.0490237 0.337928 0.239431
356 2 0.306399 0.51453 0.427433
357 2 0.219395 0.718849 0.236671
358 2 0.0979917 0.653523 0.62086
359 2 0.232385 0.557741 0.0666266
360 2 0.241725 0.511926 0.944259
361 2 0.275035 0.141002 0.284385
362 2 0.228148 0.704001 0.531784
363 2 0.990255 0.880304 0.78746
364 2 0.0303269 0.857602 0.333401
365 2 0.156731 0.0564 0.39528
366 2 0.402 0.190507 0.502869
367 2 0.309926 0.764673 0.303478
368 2 0.0322194 0.255497 0.885934
369 2 0.296479 0.398994 0.138225
370 2 0.974292 0.845117 0.362021
371 2 0.341128 0.730414 0.344287
372 2 0.23838 0.0624298 0.830801
373 2 0.00403669 0.0269648 0.273597
374 2 0.502514 0.0134121 0.471674
375 2 0.416551 0.323909 0.235647
376 2 0.163519 0.095387 0.25219
377 2 0.148896 0.994645 0.436517
378 2 0.985039 0.206482 0.00153614
379 2 0.873317 0.153252 0.183173
380 2 0.584293 0.171358 0.111016
381 2 0.402945 0.616783 0.057624
382 2 0.400863 0.867141 0.727062
383 2 0.00630503 0.30434 0.0563095
384 2 0.540267 0.222004 0.275656
385 2 0.192069 0.273484 0.250028
386 2 0.659643 0.0258803 0.164297
387 2 0.191922 0.110692 0.167848
388 2 0.618839 0.26353 0.369177
389 2 0.4749 0.00882302 0.413751
390 2 0.932839 0.36799 0.0576391
391 2 0.224604 0.304544 0.379277
392 2 0.124325 0.200785 0.0412247
393 2 0.411872 0.53335 0.49922
394 2 0.0906007 0.037587 0.200944
395 2 0.389511 0.400081 0.462453
396 2 0.196292 0.267582 0.50095
397 2 0.952667 0.766312 0.420149
398 2 0.322598 0.463729 0.875718
399 2 0.286263 0.0247109 0.273981
400 2 0.222789 0.281657 0.716586
401 2 0.239205 0.207556 0.384661
402 2 0.163239 0.394693 0.854561
403 2 0.335082 0.77524 0.22953
404 2 0.433374 0.979921 0.458197
405 2 0.106489 0.250938 0.353886
406 2 0.9532 0.0699015 0.530386
407 2 0.0545178 0.481549 0.410575
408 2 0.398636 0.175549 0.129393
409 2 0.287904 0.0182376 0.8448
410 2 0.129242 0.00410134 0.60783
411 2 0.525728 0.967227 0.153357
412 2 0.949979 0.139222 0.237206
413 2 0.531329 0.143042 0.347793
414 2 0.0703447 0.38051 0.73852
415 2 0.634397 0.74578 0.295318
416 2 0.542224 0.685414 0.400026
417 2 0.331398 0.0735239 0.307732
418 2 0.39865 0.201949 0.1573
419 2 0.565591 0.881457 0.446045
420 2 0.870275 0.452256 0.113592
421 2 0.0426471 0.863768 0.213875
422 2 0.125975 0.50167 0.593692
423 2 0.0881274 0.783441 0.834354
424 2 0.986405 0.995779 0.257858
425 2 0.311687 0.0539897 0.151741
426 2 0.262517 0.807234 0.489623
427 2 0.380105 0.409456 0.565194
428 2 0.0612688 0.306986 0.0543978
429 2 0.0900824 0.263034 0.11217
430 2 0.100893 0.42554 0.00292079
431 2 0.296742 0.44458 0.526651
432 2 0.638934 0.971896 0.51541
433 2 0.437207 0.123609 0.439558
434 2 0.112408 0.337667 0.177698
435 2 0.21554 0.120403 0.851982
436 2 0.320249 0.644156 0.195108
437 2 0.287906 0.00927193 0.207515
438 2 0.828641 0.59619 0.197214
439 2 0.808515 0.10319 0.320567
440 2 0.430146 0.0905294 0.999969
441 2 0.40727 0.355238 0.166808
442 2 0.217874 0.550126 0.0287975
443 2 0.53055 0.225962 0.0674602
444 2 0.32027 0.517487 0.651271
445 2 0.244907 0.307542 0.694568
446 2 0.174562 0.214718 0.734768
447 2 0.102155 0.251772 0.924293
448 2 0.414002 0.0778077 0.211684
449 2 0.30758 0.303999 0.635433
450 2 0.113936 0.943409 0.419188
451 2 0.838268 0.409332 0.481251
452 2 0.306799 0.171363 0.618101
453 2 0.387545 0.465579 0.436179
454 2 0.050679 0.333329 0.415924
455 2 0.148457 0.621887 0.207347
456 2 0.798083 0.612562 0.215377
457 2 0.112139 0.989182 0.944257
458 2 0.33282 0.247785 0.90006
459 2 0.34731 0.101977 0.218054
460 2 0.402965 0.263984 0.627082
461 2 0.30461 0.198603 0.697154
462 2 0.601803 0.255109 0.267201
463 2 0.251842 0.384514 0.0508371
464 2 0.465081 0.369351 0.217044
465 2 0.332519 0.431941 0.263161
466 2 0.975586 0.324526 0.185839
467 2 0.422606 0.877872 0.374423
468 2 0.0763624 0.871424 0.463673
469 2 0.352943 0.186734 0.193719
470 2 0.776974 0.204493 0.316282
471 2 0.996985 0.0734172 0.221537
472 2 0.512395 0.35996 0.48191
473 2 0.110025 0.371914 0.280911
474 2 0.133881 0.314853 0.901313
475 2 0.385456 0.650251 0.312696
476 2 0.143393 0.253952 0.442796
477 2 0.705874 0.11686 0.815345
478 2 0.435196 0.325806 0.937582
479 2 0.105737 0.144619 0.0960111
480 2 0.0276085 0.939721 0.616265
481 2 0.220431 0.261495 0.557527
482 2 0.275508 0.174304 0.336295
483 2 0.243495 0.142035 0.430611
484 2 0.594697 0.0202945 0.859931
485 2 0.533656 0.967911 0.428246
486 2 0.0319674 0.350013 0.302759
487 2 0.457642 0.510154 0.279683
488 2 0.379605 0.145947 0.539607
489 2 0.164536 0.32228 0.629029
490 2 0.278064 0.0521962 0.967053
491 2 0.169951 0.218722 0.240328
492 2 0.979554 0.0616602 0.434824
493 2 0.947627 0.544103 0.2134
494 2 0.287083 0.562095 0.0917022
495 2 0.063955 0.437415 0.177292
496 2 0.876649 0.752989 0.8966
497 2 0.692987 0.322272 0.0977198
498 2 0.463001 0.69475 0.553205
499 2 0.98451 0.332494 0.0104376
500 2 0.708388 0.0356321 0.37747
501 2 0.343088 0.318872 0.934675
502 2 0.717153 0.493929 0.11762
503 2 0.513362 0.126296 0.45687
504 2 0.444424 0.4755 0.485827
505 2 0.326369 0.269688 0.984876
506 2 0.19045 0.442366 0.11909
507 2 0.189122 0.408766 0.137867
508 2 0.07706 0.0562616 0.122461
509 2 0.743451 0.53393 0.438189
510 2 0.157114 0.142195 0.0191755
511 2 0.366585 0.476843 0.19115
512 2 0.822777 0.364846 0.728113
513 2 0.696106 0.362759 0.358754
514 2 0.349353 0.0913257 0.00763783
515 2 0.934308 0.287555 0.494937
516 2 0.587899 0.311617 0.970588
517 2 0.268226 0.1508 0.400824
518 2 0.00775837 0.10588 0.327873
519 2 0.239126 0.164059 0.486585
520 2 0.853678 0.416686 0.979383
521 2 0.963235 0.439697 0.686385
522 2 0.80413 0.293225 0.297027
523 2 0.899373 0.688714 0.369855
524 2 0.205386 0.46542 0.357679
525 2 0.474657 0.563206 0.213383
526 2 0.192929 0.285283 0.0659198
527 2 0.499876 0.270605 0.649983
528 2 0.975087 0.432193 0.958909
529 2 0.480497 0.330408 0.254959
530 2 0.0107935 0.506622 0.0761435
531 2 0.235502 0.692605 0.762469
532 2 0.175247 0.30406 0.335391
533 2 0.155408 0.186912 0.0623245
534 2 0.273421 0.227285 0.445728
535 2 0.318685 0.146834 0.242331
536 2 0.0792861 0.640844 0.391762
537 2 0.830566 0.275109 0.17418
538 2 0.737853 0.960435 0.129886
539 2 0.0730001 0.153972 0.298032
540 2 0.332239 0.13863 0.299765
541 2 0.317317 0.712275 0.865809
542 2 0.978601 0.419257 0.059629
543 2 0.123077 0.312504 0.733347
544 2 0.501932 0.701633 0.241817
545 2 0.374882 0.579466 0.827185
546 2 0.331397 0.8833 0.254917
547 2 0.190912 0.00928669 0.388384
548 2 0.328179 0.0321881 0.014649
549 2 0.095489 0.167047 0.878119
550 2 0.337183 0.156979 0.358265
551 2 0.0448022 0.180673 0.0307124
552 2 0.0387268 0.059092 0.119529
553 2 0.13383 0.124195 0.700205
554 2 0.525815 0.261791 0.404621
555 2 0.418173 0.390587 0.890215
556 2 0.298399 0.235206 0.526197
557 2 0.0833203 0.33121 0.584161
558 2 0.246662 0.397046 0.290333
559 2 0.951606 0.327977 0.630497
560 2 0.338748 0.973918 0.454926
561 2 0.593674 0.904583 0.616213
562 2 0.434823 0.410714 0.339739
563 2 0.336577 0.0834389 0.381958
564 2 0.164264 0.415716 0.404727
565 2 0.360521 0.429763 0.612802
566 2 0.615746 0.937053 0.665773
567 2 0.079595 0.0149088 0.440976
568 2 0.73814 0.149966 0.40451
569 2 0.0363579 0.389471 0.301608
570 2 0.541765 0.262417 0.221738
571 2 0.831656 0.260007 0.228152
572 2 0.816739 0.575106 0.47466
573 2 0.324004 0.368467 0.489128
574 2 0.0439481 0.53103 0.226418
575 2 0.305736 0.639484 0.44618
576 2 0.369212 0.641102 0.240624
577 2 0.158897 0.49338 0.310678
578 2 0.418854 0.374009 0.506127
579 2 0.320591 0.847948 0.613427
580 2 0.636825 0.912634 0.108711
581 2 0.385538 0.997735 0.97343
582 2 0.398927 0.238075 0.569848
583 2 0.376948 0.396378 0.60064
584 2 0.511664 0.985568 0.262407
585 2 0.0538924 0.182579 0.229256
586 2 0.25002 0.293294 0.349014
587 2 0.39574 0.203618 0.969912
588 2 0.0477195 0.572321 0.970546
589 2 0.97473 0.242707 0.922714
590 2 0.133888 0.825332 0.461641
591 2 0.478427 0.0186675 0.0797688
592 2 0.378769 0.518047 0.824357
593 2 0.463161 0.19377 0.529371
594 2 0.0645812 0.249024 0.191975
595 2 0.256668 0.944766 0.633248
596 2 0.465738 0.204071 0.567819
597 2 0.297304 0.42585 0.462851
598 2 0.400333 0.985015 0.902484
599 2 0.834541 0.715665 0.182457
600 2 0.462958 0.20526 0.21164
601 2 0.377553 0.96028 0.211782
602 2 0.434492 0.182163 0.453031
603 2 0.288253 0.439888 0.979605
604 2 0.403002 0.38465 0.121865
605 2 0.14797 0.317537 0.26066
606 2 0.709313 0.036792 0.882591
607 2 0.402238 0.119671 0.0492795
608 2 0.146343 0.0663869 0.273274
609 2 0.31441 0.12298 0.211181
610 2 0.935147 0.0336646 0.174937
611 2 0.0110497 0.219319 0.415615
612 2 0.163569 0.569732 0.0511133
613 2 0.145699 0.25524 0.362986
614 2 0.812285 0.656087 0.989808
615 2 0.166111 0.188122 0.910341
616 2 0.460549 0.241867 0.575636
617 2 0.31378 0.495395 0.554234
618 2 0.647805 0.678043 0.468511
619 2 0.277815 0.251443 0.415896
620 2 0.211033 0.161659 0.248521
621 2 0.189523 0.200202 0.0470773
622 2 0.282247 0.542605 0.184277
623 2 0.185739 0.164762 0.277013
624 2 0.960223 0.943596 0.235379
625 2 0.780064 0.281797 0.407247
626 2 0.944806 0.992829 0.306312
627 2 0.179024 0.816486 0.98995
628 2 0.383916 0.326833 0.15165
629 2 0.599619 0.789449 0.533346
630 2 0.0213999 0.948592 0.410027
631 2 0.167092 0.0928763 0.809609
632 2 0.384374 0.602008 0.0269686
633 2 0.191555 0.0832396 0.321373
634 2 0.994469 0.49731 0.615773
635 2 0.249588 0.123327 0.263103
636 2 0.419067 0.970465 0.273951
637 2 0.727928 0.234513 0.502063
638 2 0.21946 0.145775 0.0155937
639 2 0.141579 0.576357 0.830741
640 2 0.224877 0.883028 0.0466911
641 2 0.30894 0.125744 0.273235
642 2 0.314673 0.181731 0.336679
643 2 0.119149 0.685129 0.364552
644 2 0.216233 0.233726 0.489598
645 2 0.778544 0.479768 0.423466
646 2 0.366294 0.445948 0.561392
647 2 0.206797 0.231968 0.431449
648 2 0.965502 0.484156 0.188806
649 2 0.453334 0.0490665 0.461529
650 2 0.479003 0.394655 0.1092
651 2 0.249806 0.208382 0.221313
652 2 0.952385 0.719845 0.040912
653 2 0.185806 0.929483 0.0674069
654 2 0.111658 0.934211 0.00890841
655 2 0.892016 0.350064 0.711948
656 2 0.273241 0.430134 0.337205
657 2 0.212917 0.403031 0.22527
658 2 0.191727 0.547334 0.806042
659 2 0.381529 0.159376 0.197281
660 2 0.204978 0.342151 0.156182
661 2 0.293779 0.242123 0.327784
662 2 0.702607 0.613641 0.435118
663 2 0.191238 0.11613 0.456116
664 2 0.373561 0.312318 0.829931
665 2 0.343009 0.944137 0.0587158
666 2 0.881109 0.0216034 0.182984
667 2 0.309242 0.55558 0.475402
668 2 0.0677769 0.960117 0.56092
669 2 0.315382 0.0815119 0.0610012
670 2 0.463841 0.271223 0.182654
671 2 0.990617 0.175879 0.125635
672 2 0.511004 0.231549 0.170363
673 2 0.0792133 0.233871 0.271304
674 2 0.196789 0.482657 0.487908
675 2 0.106307 0.678514 0.708949
676 2 0.0278984 0.676354 0.259034
677 2 0.467792 0.617716 0.462785
678 2 0.325809 0.124844 0.334387
679 2 0.582404 0.832104 0.354165
680 2 0.0344143 0.019916 0.163358
681 2 0.0599932 0.382172 0.451765
682 2 0.145206 0.202046 0.172419
683 2 0.611892 0.653274 0.0919398
684 2 0.263694 0.601263 0.134683
685 2 0.0791902 0.191576 0.978556
686 2 0.853253 0.227933 0.552898
687 2 0.263381 0.684495 0.268981
688 2 0.508875 0.510725 0.423491
689 2 0.378748 0.967732 0.928393
690 2 0.592573 0.407908 0.442299
691 2 0.603818 0.658599 0.150777
692 2 0.097458 0.381578 0.351014
693 2 0.508849 0.363318 0.966021
694 2 0.17786 0.798039 0.0246288
695 2 0.580593 0.16594 0.569912
696 2 0.586499 0.379154 0.222679
697 2 0.369138 0.313875 0.3865
698 2 0.280121 0.87367 0.295543
699 2 0.768932 0.155466 0.216248
700 2 0.367734 0.274255 0.16955
701 2 0.313237 0.796893 0.432267
702 2 0.386041 0.299323 0.764872
703 2 0.189053 0.114627 0.520297
704 2 0.152061 0.157618 0.2288
705 2 0.315258 0.295636 0.256543
706 2 0.505605 0.106499 0.726644
707 2 0.227132 0.226348 0.160745
708 2 0.254445 0.360897 0.339095
709 2 0.353361 0.959038 0.774858
710 2 0.0977513 0.491701 0.299298
711 2 0.488905 0.102877 0.161248
712 2 0.503697 0.190498 0.978728
713 2 0.845051 0.607469 0.592662
714 2 0.0543135 0.602483 0.349613
715 2 0.251507 0.782657 0.273531
716 2 0.486141 0.369751 0.310652
717 2 0.286382 0.0765825 0.997517
718 2 0.160612 0.267645 0.330981
719 2 0.976214 0.887795 0.724675
720 2 0.0889022 0.138867 0.333302
721 2 0.171233 0.155489 0.81766
722 2 0.588225 0.248075 0.41473
723 2 0.478082 0.251335 0.125444
724 2 0.306034 0.281368 0.0190612
725 2 0.302868 0.450292 0.207047
726 2 0.364775 0.215762 0.170758
727 2 0.297548 0.368389 0.192385
728 2 0.0322542 0.816302 0.553239
729 2 0.223828 0.389613 0.490407
730 2 0.139557 0.649888 0.232152
731 2 0.548664 0.327619 0.8453
732 2 0.90677 0.261274 0.0643295
733 2 0.516953 0.17914 0.35625
734 2 0.429213 0.38079 0.148939
735 2 0.521355 0.132666 0.0947088
736 2 0.937547 0.0741818 0.123841
737 2 0.880637 0.0793956 0.246535
738 2 0.00746285 0.361975 0.378736
739 2 0.909559 0.334782 0.0146327
740 2 0.335814 0.603841 0.687945
741 2 0.432318 0.162829 0.354194
742 2 0.0355917 0.441107 0.0838259
743 2 0.455161 0.445434 0.249274
744 2 0.166435 0.209751 0.318955
745 2 0.261205 0.0167761 0.179929
746 2 0.00323891 0.364704 0.503711
747 2 0.369244 0.0181489 0.181719
748 2 0.416506 0.232879 0.141179
749 2 0.0994198 0.151449 0.026806
750 2 0.0937364 0.0432125 0.31844
751 2 0.183168 0.294762 0.190349
752 2 0.427909 0.556632 0.722311
753 2 0.967515 0.243617 0.359815
754 2 0.147957 0.574149 0.489605
755 2 0.208352 0.113741 0.304447
756 2 0.247034 0.96069 0.230417
757 2 0.269275 0.133876 0.883708
758 2 0.976471 0.227074 0.159613
759 2 0.0654417 0.543483 0.534005
760 2 0.116343 0.224864 0.263251
761 2 0.434212 0.901171 0.00982431
762 2 0.358621 0.131404 0.414165
763 2 0.41574 0.316581 0.444952
764 2 0.313613 0.924761 0.342609
765 2 0.522638 0.698699 0.542543
766 2 0.994683 0.359899 0.0369957
767 2 0.671285 0.332759 0.162142
768 2 0.400712 0.13632 0.296804
769 2 0.446651 0.391167 0.483167
770 2 0.616048 0.531594 0.158274
771 2 0.161401 0.423221 0.19384
772 2 0.491351 0.0351179 0.173442
773 2 0.259515 0.150739 0.145456
774 2 0.675567 0.215286 0.345019
775 2 0.208922 0.113424 0.890852
776 2 0.286235 0.00638316 0.307374
777 2 0.156796 0.253648 0.0117675
778 2 0.11278 0.330652 0.389047
779 2 0.433471 0.249624 0.326667
780 2 0.338426 0.233577 0.444901
781 2 0.315629 0.244963 0.142291
782 2 0.865006 0.130879 0.0641855
783 2 0.223961 0.468237 0.204086
784 2 0.483564 0.52802 0.0944272
785 2 0.391011 0.123739 0.880134
786 2 0.176694 0.51061 0.0155448
787 2 0.221317 0.861934 0.491222
788 2 0.229697 0.116779 0.372942
789 2 0.0168528 0.150621 0.499356
790 2 0.671221 0.359735 0.389263
791 2 0.223468 0.197673 0.420958
792 2 0.25779 0.126974 0.488907
793 2 0.426859 0.317219 0.296598
794 2 0.203703 0.598113 0.966088
795 2 0.283048 0.130619 0.542467
796 2 0.516623 0.244171 0.531031
797 2 0.278515 0.0643585 0.2315
798 2 0.432663 0.21309 0.397999
799 2 0.304282 0.553195 0.155377
800 2 0.502178 0.0989649 0.102002
801 2 0.308648 0.187224 0.243228
802 2 0.609265 0.471532 0.307152
803 2 0.153276 0.365758 0.332722
804 2 0.120866 0.63418 0.262302
805 2 0.427324 0.338642 0.519894
806 2 0.535434 0.369898 0.124518
807 2 0.536303 0.200657 0.220262
808 2 0.225859 0.0177021 0.244782
809 2 0.0536512 0.148776 0.395225
810 2 0.150257 0.270686 0.186171
811 2 0.0463299 0.686886 0.227548
812 2 0.222444 0.374322 0.525461
813 2 0.873252 0.935141 0.829385
814 2 0.938871 0.168101 0.372876
815 2 0.293758 0.935613 0.286106
816 2 0.15526 0.320067 0.0147254
817 2 0.54498 0.00551165 0.258694
818 2 0.994923 0.25091 0.184462
819 2 0.161033 0.901927 0.524306
820 2 0.20226 0.303544 0.155294
821 2 0.684406 0.501226 0.137067
822 2 0.109911 0.318402 0.348496
823 2 0.152119 0.919112 0.804905
824 2 0.64355 0.0843431 0.382037
825 2 0.0864852 0.787394 0.543561
826 2 0.535384 0.769441 0.0299089
827 2 0.133934 0.268045 0.222773
828 2 0.0570159 0.281067 0.319292
829 2 0.375573 0.896481 0.126062
830 2 0.951844 0.39751 0.00881129
831 2 0.00605173 0.545977 0.739652
832 2 0.901322 0.696964 0.724557
833 2 0.936675 0.15136 0.405998
834 2 0.00358902 0.450858 0.383377
835 2 0.443079 0.239298 0.981834
836 2 0.320562 0.219078 0.345241
837 2 0.937315 0.152665 0.175678
838 2 0.325926 0.925178 0.30549
839 2 0.479006 0.131074 0.321364
840 2 0.100523 0.483991 0.976757
841 2 0.229829 0.20597 0.704018
842 2 0.0189617 0.919593 0.0261713
843 2 0.0324131 0.384066 0.105356
844 2 0.586725 0.964687 0.181312
845 2 0.68453 0.382203 0.516453
846 2 0.219845 0.94117 0.966335
847 2 0.991231 0.171206 0.737048
848 2 0.920211 0.244267 0.185264
849 2 0.14797 0.437289 0.342239
850 2 0.111516 0.29671 0.526681
851 2 0.0404475 0.205333 0.475257
852 2 0.496765 0.231729 0.333913
853 2 0.376383 0.957333 0.149962
854 2 0.0787267 0.131784 0.217639
855 2 0.868939 0.963877 0.516659
856 2 0.362722 0.259769 0.462716
857 2 0.229947 0.0420925 0.307768
858 2 0.251704 0.212946 0.574586
859 2 0.432231 0.392936 0.2708
860 2 0.038942 0.215034 0.0503668
861 2 0.399399 0.286775 0.0927677
862 2 0.487053 0.37 0.247873
863 2 0.798319 0.602166 0.250334
864 2 0.179613 0.33157 0.20717
865 2 0.20073 0.171459 0.497647
866 2 0.356811 0.559602 0.426323
867 2 0.133306 0.782086 0.318786
868 2 0.480526 0.340395 0.377855
869 2 0.225115 0.393301 0.132655
870 2 0.175674 0.129356 0.289522
871 2 0.530649 0.263576 0.18536
872 2 0.0842185 0.364527 0.187729
873 2 0.534213 0.442773 0.329738
874 2 0.44699 0.902576 0.393621
875 2 0.196166 0.0460272 0.722179
876 2 0.662541 0.124706 0.123424
877 2 0.018262 0.805915 0.178991
878 2 0.191301 0.135644 0.0910859
879 2 0.678011 0.888594 0.485466
880 2 0.862476 0.772898 0.10573
881 2 0.194213 0.98843 0.485781
882 2 0.389436 0.613296 0.299989
883 2 0.313857 0.210747 0.27809
884 2 0.314249 0.285012 0.843222
885 2 0.0130951 0.308654 0.0206124
886 2 0.0998333 0.159935 0.270728
887 2 0.30704 0.0413436 0.217199
888 2 0.299021 0.163365 0.423911
889 2 0.18996 0.999514 0.190296
890 2 0.0467514 0.305208 0.215233
891 2 0.759091 0.882113 0.970024
892 2 0.257614 0.244226 0.269294
893 2 0.347507 0.218409 0.921061
894 2 0.00438781 0.447709 0.105682
895 2 0.208517 0.307678 0.259271
896 2 0.121847 0.395963 0.14172
897 2 0.924503 0.425738 0.0100732
898 2 0.282446 0.333594 0.441642
899 2 0.239302 0.90854 0.255182
900 2 0.221874 0.057361 0.513927
901 2 0.204391 0.587822 0.525763
902 2 0.270136 0.00358333 0.0365589
903 2 0.189439 0.33774 0.4256