ITEM: TIMESTEP
434640
ITEM: NUMBER OF ATOMS
12500
ITEM: BOX BOUNDS pp pp pp
-1.1522709684844854e+00 5.9073454574660133e+01
-1.1522709684844854e+00 5.9073454574660133e+01
-1.1522709684844854e+00 8.0142735745628244e+01
ITEM: ATOMS id type xs ys zs
1 2 0.233813 0.54162 0.536959
2 2 0.275245 0.892814 0.82386
3 2 0.0870703 0.34291 0.0714332
4 2 0.212481 0.475654 0.383044
5 2 0.19853 0.392912 0.841778
6 2 0.0310862 0.136613 0.78144
7 2 0.0179904 0.1147 0.0499859
8 2 0.477104 0.978545 0.887564
9 2 0.237833 0.459195 0.424072
10 2 0.329197 0.387303 0.818516
11 2 0.387637 0.0640666 0.834523
12 2 0.448865 0.313606 0.49544
13 2 0.0283052 0.0525482 0.554359
14 2 0.329701 0.105473 0.59637
15 2 0.345792 0.32531 0.832318
16 2 0.36703 0.162006 0.405689
17 2 0.190221 0.205821 0.920575
18 2 0.222182 0.501734 0.466316
19 2 0.112612 0.67843 0.415678
20 2 0.0466838 0.886295 0.896176
21 2 0.203676 0.177177 0.377821
22 2 0.331458 0.0254399 0.426376
23 2 0.976029 0.292235 0.410733
24 2 0.678466 0.573505 0.0638486
25 2 0.960843 0.436013 0.437507
26 2 0.586788 0.674723 0.897625
27 2 0.252394 0.921089 0.572301
28 2 0.289104 0.9132 0.938121
29 2 0.314842 0.903775 0.297066
30 2 0.457085 0.927381 0.350174
31 2 0.846399 0.459339 0.389166
32 2 0.0669095 0.581496 0.469486
33 2 0.0456106 0.755429 0.730377
34 2 0.0604218 0.652157 0.352765
35 2 0.361461 0.263427 0.652356
36 2 0.909275 0.064884 0.112718
37 2 0.510988 0.421268 0.376776
38 2 0.584347 0.461978 0.97749
39 2 0.699124 0.515978 0.0898139
40 2 0.153164 0.0124978 0.998833
41 2 0.84669 0.309531 0.982833
42 2 0.338566 0.934529 0.297164
43 2 0.117541 0.24493 0.950108
44 2 0.211454 0.366223 0.0153349
45 2 0.142545 0.799996 0.739416
46 2 0.443379 0.269764 0.802717
47 2 0.0650773 0.155185 0.819291
48 2 0.734251 0.0905377 0.967572
49 2 0.973053 0.141029 0.539843
50 2 0.0534356 0.821006 0.313973
51 2 0.721004 0.256926 0.352351
52 2 0.988358 0.127815 0.929333
53 2 0.180389 0.201993 0.446232
54 2 0.212174 0.150052 0.506246
55 2 0.981163 0.128088 0.0185997
56 2 0.363176 0.477022 0.870521
57 2 0.876286 0.330236 0.357885
58 2 0.295704 0.208449 0.849157
59 2 0.252309 0.741056 0.407408
60 2 0.955434 0.68132 0.816281
61 2 0.172072 0.912243 0.883507
62 2 0.404976 0.36454 0.334227
63 2 0.255061 0.481017 0.465429
64 2 0.0649018 0.223142 0.0945518
65 2 0.472954 0.00753195 0.270936
66 2 0.781939 0.597667 0.114582
67 2 0.0366602 0.947204 0.0415501
68 2 0.371587 0.999496 0.503473
69 2 0.198046 0.264977 0.942117
70 2 0.194943 0.828083 0.254145
71 2 0.413805 0.438252 0.667919
72 2 0.264867 0.72757 0.43391
73 2 0.131092 0.547111 0.389511
74 2 0.236441 0.715588 0.854813
75 2 0.130268 0.83433 0.412964
76 2 0.602786 0.472426 0.0436902
77 2 0.818449 0.287369 0.429917
78 2 0.20558 0.361789 0.80774
79 2 0.965784 0.889541 0.377036
80 2 0.685796 0.126007 0.315308
81 2 0.666557 0.452807 0.0357243
82 2 0.36215 0.499152 0.72212
83 2 0.392457 0.362086 0.509435
84 2 0.273547 0.286118 0.200375
85 2 0.244553 0.0353314 0.0112512
86 2 0.205828 0.937191 0.315487
87 2 0.252589 0.780501 0.517085
88 2 0.0678489 0.817522 0.937552
89 2 0.174392 0.948367 0.515245
90 2 0.00566826 0.999115 0.0520095
91 2 0.340764 0.344304 0.443844
92 2 0.402625 0.254003 0.500661
93 2 0.511952 0.809934 0.327164
94 2 0.810169 0.0787325 0.958476
95 2 0.316317 0.43707 0.393662
96 2 0.201162 0.588801 0.358729
97 2 0.14516 0.694816 0.300118
98 2 0.277929 0.533103 0.501435
99 2 0.261009 0.0492256 0.986639
100 2 0.0306408 0.0246498 0.672068
101 2 0.061073 0.400432 0.936367
102 2 0.53072 0.14247 0.292715
103 2 0.890244 0.926127 0.362211
104 2 0.54315 0.491016 0.427114
105 2 0.158594 0.257689 0.0829517
106 2 0.0111614 0.217304 0.442933
107 2 0.521912 0.467484 0.46321
108 2 0.939067 0.970289 0.834734
109 2 0.136691 0.859306 0.372257
110 2 0.207474 0.643607 0.852963
111 2 0.675013 0.268844 0.0459204
112 2 0.702108 0.366173 0.987187
113 2 0.797935 0.569838 0.9374
114 2 0.615426 0.420391 0.344308
115 2 0.529247 0.606806 0.922626
116 2 0.240397 0.343467 0.8123
117 2 0.296046 0.237463 0.322195
118 2 0.0862768 0.191039 0.0931234
119 2 0.37859 0.375885 0.374362
120 2 0.419551 0.24978 0.958285
121 2 0.908881 0.441906 0.0013071
122 2 0.281616 0.38172 0.957215
123 2 0.0716957 0.53081 0.783797
124 2 0.270932 0.336942 0.449533
125 2 0.0889231 0.567732 0.845425
126 2 0.994239 0.00298998 0.759143
127 2 0.656605 0.186073 0.0144186
128 2 0.0774871 0.846175 0.979229
129 2 0.198562 0.400217 0.812986
130 2 0.984524 0.0609949 0.593417
131 2 0.238723 0.901737 0.815574
132 2 0.405089 0.479774 0.97031
133 2 0.388683 0.577179 0.559755
134 2 0.705447 0.369679 0.400567
135 2 0.53476 0.482773 0.599385
136 2 0.36554 0.705756 0.363692
137 2 0.414733 0.542327 0.97624
138 2 0.190187 0.472562 0.406092
139 2 0.519618 0.506943 0.874157
140 2 0.0772805 0.20801 0.415707
141 2 0.465494 0.242081 0.529911
142 2 0.0646235 0.0409697 0.427837
143 2 0.469181 0.129052 0.436912
144 2 0.336481 0.980722 0.385823
145 2 0.180664 0.374473 0.387966
146 2 0.499337 0.776486 0.481676
147 2 0.311676 0.245031 0.473619
148 2 0.414614 0.616353 0.971916
149 2 0.556518 0.332934 0.429696
150 2 0.0389874 0.31173 0.785128
151 2 0.509929 0.200888 0.552648
152 2 0.401466 0.0816473 0.810916
153 2 0.319544 0.381414 0.397052
154 2 0.369641 0.520816 0.944193
155 2 0.250364 0.591803 0.396674
156 2 0.324823 0.198784 0.447307
157 2 0.24027 0.54042 0.506598
158 2 0.17499 0.27156 0.478882
159 2 0.451331 0.163405 0.442737
160 2 0.626337 0.123463 0.359739
161 2 0.0265358 0.944431 0.573206
162 2 0.432691 0.383932 0.932652
163 2 0.489653 0.888533 0.377279
164 2 0.0282353 0.817266 0.93572
165 2 0.0598989 0.19348 0.857745
166 2 0.142491 0.368859 0.3907
167 2 0.206564 0.548299 0.404797
168 2 0.0501561 0.377945 0.564499
169 2 0.590053 0.111916 0.303302
170 2 0.415383 0.900734 0.936974
171 2 0.322202 0.489763 0.0206888
172 2 0.961874 0.900584 0.436805
173 2 0.101057 0.0438432 0.597948
174 2 0.263337 0.503163 0.62467
175 2 0.259234 0.802621 0.272586
176 2 0.158038 0.188078 0.967217
177 2 0.124463 0.143616 0.0513064
178 2 0.213789 0.41407 0.501341
179 2 0.117669 0.24554 0.870557
180 2 0.164607 0.132979 0.0159324
181 2 0.283447 0.891385 0.502889
182 2 0.624908 0.374617 0.866049
183 2 0.117329 0.245005 0.441114
184 2 0.25493 0.171609 0.964599
185 2 0.306142 0.242779 0.293901
186 2 0.375628 0.151696 0.34354
187 2 0.222377 0.366002 0.416667
188 2 0.941306 0.117672 0.545317
189 2 0.212033 0.145313 0.92702
190 2 0.29104 0.462076 0.310564
191 2 0.287617 0.623979 0.843194
192 2 0.0603529 0.108873 0.439749
193 2 0.276403 0.292234 0.348458
194 2 0.328951 0.153294 0.513312
195 2 0.0830657 0.943461 0.469602
196 2 0.956007 0.504294 0.103154
197 2 0.29607 0.359469 0.870483
198 2 0.402023 0.258876 0.250452
199 2 0.0686727 0.502078 0.00315538
200 2 0.905915 0.926029 0.498429
201 2 0.148664 0.771774 0.491633
202 2 0.190365 0.213669 0.0624803
203 2 0.544912 0.298108 0.525188
204 2 0.383883 0.0935322 0.54491
205 2 0.178675 0.345693 0.543066
206 2 0.110816 0.958331 0.576028
207 2 0.106261 0.220693 0.0458867
208 2 0.220022 0.964057 0.296172
209 2 0.983518 0.71859 0.044103
210 2 0.262346 0.127249 0.430201
211 2 0.106903 0.469373 0.400023
212 2 0.291778 0.510342 0.669715
213 2 0.359192 0.255124 0.54443
214 2 0.41926 0.216871 0.59703
215 2 0.543306 0.698597 0.447596
216 2 0.488593 0.681863 0.478191
217 2 0.352831 0.510162 0.0122267
218 2 0.242519 0.206416 0.549977
219 2 0.252764 0.0870895 0.987078
220 2 0.991408 0.0779237 0.373672
221 2 0.404726 0.31132 0.42524
222 2 0.39414 0.9282 0.257954
223 2 0.9815 0.476875 0.912139
224 2 0.499489 0.201333 0.412907
225 2 0.871777 0.233421 0.768915
226 2 0.954671 0.963794 0.947877
227 2 0.147722 0.488067 0.931903
228 2 0.188907 0.00670888 0.454132
229 2 0.373205 0.403536 0.626514
230 2 0.250285 0.134333 0.368944
231 2 0.0532373 0.108012 0.371131
232 2 0.0192578 0.599065 0.50479
233 2 0.103704 0.0265831 0.965275
234 2 0.0222623 0.185105 0.828576
235 2 0.905141 0.640674 0.435181
236 2 0.294516 0.477099 0.356358
237 2 0.617036 0.0052102 0.309197
238 2 0.233068 0.492504 0.939661
239 2 0.308974 0.401848 0.311241
240 2 0.647228 0.347576 0.906118
241 2 0.752118 0.10642 0.458972
242 2 0.282234 0.886511 0.36266
243 2 0.979062 0.797416 0.505643
244 2 0.179012 0.18237 0.400188
245 2 0.328135 0.24692 0.767866
246 2 0.920251 0.920209 0.40035
247 2 0.0147703 0.259811 0.0412974
248 2 0.2382 0.481941 0.510692
249 2 0.437997 0.376769 0.442236
250 2 0.442556 0.462787 0.294976
251 2 0.0835756 0.135516 0.391998
252 2 0.273401 0.861808 0.274034
253 2 0.380554 0.995443 0.531471
254 2 0.583557 0.328383 0.409606
255 2 0.186712 0.855453 0.909748
256 2 0.157779 0.254452 0.779033
257 2 0.442526 0.455547 0.863859
258 2 0.0211867 0.587364 0.905217
259 2 0.540797 0.925269 0.383383
260 2 0.40197 0.513792 0.597626
261 2 0.427027 0.92213 0.479893
262 2 0.350414 0.733407 0.461523
263 2 0.503711 0.836259 0.633079
264 2 0.555979 0.258855 0.00828967
265 2 0.0158787 0.189724 0.048551
266 2 0.448226 0.532613 0.37684
267 2 0.378035 0.0348011 0.781697
268 2 0.0703865 0.349135 0.624719
269 2 0.736353 0.245841 0.565935
270 2 0.426041 0.133777 0.619829
271 2 0.442783 0.330573 0.960048
272 2 0.394439 0.828617 0.382129
273 2 0.193554 0.176474 0.780014
274 2 0.7915 0.625621 0.0798214
275 2 0.517976 0.523832 0.654482
276 2 0.451736 0.842524 0.309673
277 2 0.327422 0.678137 0.853927
278 2 0.965959 0.424676 0.055741
279 2 0.741217 0.342168 0.479608
280 2 0.452027 0.163661 0.279182
281 2 0.106798 0.181927 0.924969
282 2 0.963552 0.0825715 0.819569
283 2 0.27307 0.194771 0.424374
284 2 0.505932 0.608181 0.487774
285 2 0.109484 0.178694 0.716949
286 2 0.229748 0.471239 0.324648
287 2 0.981146 0.20664 0.00734366
288 2 0.201362 0.269895 0.893021
289 2 0.0112908 0.713598 0.558204
290 2 0.19241 0.799394 0.273151
291 2 0.391604 0.0906262 0.358395
292 2 0.453167 0.645383 0.340037
293 2 0.19228 0.160858 0.605556
294 2 0.978255 0.453069 0.0952361
295 2 0.13924 0.30458 0.948255
296 2 0.101727 0.698773 0.339557
297 2 0.501766 0.987936 0.426895
298 2 0.241387 0.979266 0.504627
299 2 0.224375 0.0843485 0.427062
300 2 0.427964 0.0231068 0.663313
301 2 0.450568 0.286111 0.472011
302 2 0.126377 0.328442 0.0390757
303 2 0.227831 0.208763 0.910981
304 2 0.521029 0.254696 0.238196
305 2 0.0847819 0.421154 0.345472
306 2 0.220941 0.133124 0.341507
307 2 0.273977 0.210069 0.375537
308 2 0.505401 0.349461 0.549528
309 2 0.944125 0.872591 0.421259
310 2 0.102299 0.27967 0.0649243
311 2 0.356721 0.203245 0.278862
312 2 0.627574 0.369731 0.428588
313 2 0.479405 0.188578 0.389724
314 2 0.272045 0.250709 0.901024
315 2 0.282212 0.568728 0.558522
316 2 0.809786 0.24449 0.0130221
317 2 0.200767 0.994375 0.913399
318 2 0.0751945 0.0373859 0.00648274
319 2 0.939348 0.233276 0.437788
320 2 0.119836 0.0547341 0.30137
321 2 0.536642 0.267357 0.486713
322 2 0.0527461 0.186894 0.904202
323 2 0.342834 0.448007 0.561942
324 2 0.446799 0.101488 0.987969
325 2 0.343541 0.548699 0.947842
326 2 0.591772 0.59636 0.356634
327 2 0.144438 0.586393 0.9342
328 2 0.335447 0.184298 0.405785
329 2 0.0914389 0.845055 0.725279
330 2 0.706073 0.856413 0.540337
331 2 0.195219 0.477315 0.452341
332 2 0.64262 0.520913 0.375489
333 2 0.23372 0.174675 0.396048
334 2 0.165085 0.164671 0.0876292
335 2 0.14199 0.597486 0.0463793
336 2 0.256923 0.15684 0.59153
337 2 0.171853 0.852718 0.769896
338 2 0.219394 0.26967 0.918486
339 2 0.299237 0.42402 0.924272
340 2 0.0821353 0.0481295 0.529205
341 2 0.193662 0.332667 0.0200303
342 2 0.99309 0.970404 0.0695083
343 2 0.917112 0.611045 0.417636
344 2 0.370083 0.868362 0.880282
345 2 0.307302 0.658366 0.772109
346 2 0.210812 0.37882 0.988015
347 2 0.128916 0.956986 0.00206826
348 2 0.374111 0.503635 0.322837
349 2 0.139705 0.47809 0.0318945
350 2 0.23676 0.24729 0.439812
351 2 0.10189 0.326947 0.779152
352 2 0.434207 0.344155 0.459619
353 2 0.450108 0.136355 0.3686
354 2 0.109371 0.690921 0.869296
355 2 0.187711 0.839123 0.442717
356 2 0.128096 0.176071 0.983728
357 2 0.25857 0.0314689 0.0652093
358 2 0.196449 0.583781 0.978191
359 2 0.685648 0.279215 0.617004
360 2 0.937423 0.196699 0.0747997
361 2 0.165886 0.581511 0.601194
362 2 0.457554 0.40091 0.884154
363 2 0.0919465 0.736247 0.701042
364 2 0.280175 0.857078 0.412694
365 2 0.265801 0.129085 0.0433271
366 2 0.134566 0.254826 0.133541
367 2 0.295323 0.290121 0.870957
368 2 0.751915 0.03111 0.506405
369 2 0.467552 0.344228 0.907381
370 2 0.472132 0.460533 0.644357
371 2 0.237525 0.64134 0.374259
372 2 0.0623429 0.2478 0.886118
373 2 0.296166 0.37025 0.596624
374 2 0.571883 0.905897 0.289076
375 2 0.37102 0.75719 0.878264
376 2 0.476243 0.19458 0.4369
377 2 0.174872 0.144089 0.407319
378 2 0.685129 0.0687774 0.987134
379 2 0.240514 0.519353 0.803101
380 2 0.0902822 0.395594 0.42421
381 2 0.338998 0.745093 0.268079
382 2 0.0959881 0.714693 0.45361
383 2 0.296321 0.309939 0.419976
384 2 0.545579 0.588819 0.582716
385 2 0.160757 0.0822211 0.810067
386 2 0.285311 0.242845 0.520673
387 2 0.34959 0.461987 0.018163
388 2 0.422927 0.119793 0.507823
389 2 0.141863 0.830346 0.292491
390 2 0.10893 0.81833 0.798338
391 2 0.723507 0.150086 0.559084
392 2 0.237483 0.179515 0.0521611
393 2 0.192446 0.846629 0.613965
394 2 0.98209 0.431819 0.793535
395 2 0.906716 0.566275 0.385906
396 2 0.963995 0.658943 0.438322
397 2 0.770073 0.71593 0.883802
398 2 0.353497 0.442737 0.327328
399 2 0.726483 0.976597 0.4212
400 2 0.626834 0.407763 0.881987
401 2 0.970822 0.913795 0.574172
402 2 0.377496 0.878874 0.475287
403 2 0.258549 0.288022 0.226635
404 2 0.577182 0.57216 0.784346
405 2 0.548475 0.410164 0.423803
406 2 0.0765009 0.691318 0.47158
407 2 0.0657549 0.181282 0.437448
408 2 0.297196 0.100124 0.897284
409 2 0.63935 0.525803 0.588731
410 2 0.912615 0.928206 0.912306
411 2 0.409981 0.310241 0.494824
412 2 0.144232 0.19236 0.436425
413 2 0.800124 0.411318 0.421494
414 2 0.252933 0.278566 0.453091
415 2 0.303581 0.813949 0.381861
416 2 0.163132 0.481114 0.319577
417 2 0.240108 0.398669 0.286632
418 2 0.194247 0.558456 0.454568
419 2 0.0870811 0.245652 0.423664
420 2 0.465161 0.0441256 0.352813
421 2 0.984036 0.00148875 0.0274863
422 2 0.200388 0.596543 0.450265
423 2 0.166564 0.628824 0.418768
424 2 0.96141 0.685439 0.863636
425 2 0.0236945 0.909601 0.0647154
426 2 0.161962 0.975023 0.992283
427 2 0.264923 0.40185 0.369037
428 2 0.161719 0.193513 0.0207303
429 2 0.365968 0.937067 0.501486
430 2 0.364238 0.18517 0.303747
431 2 0.0467389 0.200883 0.772175
432 2 0.0193469 0.227068 0.0579847
433 2 0.547629 0.498248 0.855273
434 2 0.107581 0.364426 0.951293
435 2 0.115762 0.310059 0.103588
436 2 0.310839 0.445252 0.96702
437 2 0.0803535 0.985468 0.374493
438 2 0.19917 0.886893 0.513071
439 2 0.381665 0.682514 0.385842
440 2 0.379646 0.488384 0.0255013
441 2 0.0355698 0.220967 0.113853
442 2 0.292272 0.201286 0.333463
443 2 0.649012 0.243443 0.926163
444 2 0.386603 0.127869 0.364925
445 2 0.116153 0.180945 0.867695
446 2 0.447375 0.443744 0.333976
447 2 0.281886 0.116934 0.0189066
448 2 0.568995 0.459827 0.880845
449 2 0.00931973 0.927458 0.34916
450 2 0.302394 0.0445258 0.332105
451 2 0.395474 0.295512 0.399284
452 2 0.434293 0.281076 0.591641
453 2 0.941205 0.802385 0.382116
454 2 0.175689 0.293125 0.954444
455 2 0.418389 0.267586 0.460047
456 2 0.313351 0.95329 0.396452
457 2 0.39965 0.312819 0.739088
458 2 0.538789 0.755096 0.416114
459 2 0.267036 0.361648 0.471301
460 2 0.394063 0.176119 0.38731
461 2 0.309726 0.371377 0.252937
462 2 0.0359795 0.0779439 0.358984
463 2 0.211503 0.48653 0.426996
464 2 0.51182 0.429274 0.617865
465 2 0.177303 0.393717 0.322241
466 2 0.146822 0.469183 0.882861
467 2 0.120168 0.228013 0.115218
468 2 0.34284 0.129682 0.694758
469 2 0.578677 0.51024 0.0107845
470 2 0.345099 0.480712 0.332388
471 2 0.271896 0.104467 0.321906
472 2 0.539231 0.268383 0.381195
473 2 0.0178784 0.946303 0.690822
474 2 0.205495 0.574701 0.857171
475 2 0.189834 0.776546 0.643138
476 2 0.104903 0.918031 0.812374
477 2 0.210861 0.999071 0.771452
478 2 0.14144 0.544714 0.828757
479 2 0.555947 0.575667 0.0160512
480 2 0.255268 0.742721 0.301628
481 2 0.456829 0.119474 0.410376
482 2 0.0545433 0.243074 0.961434
483 2 0.189479 0.118285 0.388017
484 2 0.0873823 0.303879 0.865372
485 2 0.0374224 0.256685 0.0172538
486 2 0.00192521 0.0790629 0.7821
487 2 0.202891 0.141866 0.0195361
488 2 0.342019 0.333476 0.487618
489 2 0.631972 0.485416 0.553606
490 2 0.816906 0.271678 0.102567
491 2 0.189973 0.536051 0.0127784
492 2 0.522544 0.518661 0.801616
493 2 0.552123 0.31227 0.550737
494 2 0.944535 0.374154 0.933822
495 2 0.950148 0.0255626 0.393913
496 2 0.489538 0.477001 0.375501
497 2 0.274127 0.150897 0.541875
498 2 0.234787 0.414877 0.38679
499 2 0.315798 0.0285235 0.452596
500 2 0.125934 0.700352 0.528958
501 2 0.186794 0.99663 0.324801
502 2 0.205655 0.159761 0.0448644
503 2 0.128922 0.419949 0.0165311
504 2 0.139088 0.270724 0.91195
505 2 0.24198 0.451773 0.378251
506 2 0.175388 0.291079 0.526183
507 2 0.477679 0.440347 0.37735
508 2 0.959424 0.770171 0.977436
509 2 0.263085 0.417547 0.340596
510 2 0.307455 0.321779 0.446675
511 2 0.0376128 0.489016 0.382557
512 2 0.118644 0.132102 0.106175
513 2 0.420849 0.468522 0.52471
514 2 0.23904 0.668593 0.943002
515 2 0.016924 0.467615 0.458166
516 2 0.216341 0.378454 0.354517
517 2 0.407642 0.986949 0.332359
518 2 0.465001 0.187926 0.331557
519 2 0.129663 0.448747 0.527552
520 2 0.448162 0.558794 0.613187
521 2 0.0247232 0.966687 0.940027
522 2 0.383313 0.161912 0.432119
523 2 0.995878 0.406732 0.474556
524 2 0.376449 0.102818 0.443751
525 2 0.302426 0.549584 0.403686
526 2 0.338608 0.834992 0.562996
527 2 0.927545 0.207434 0.101503
528 2 0.358521 0.978781 0.611882
529 2 0.283331 0.139254 0.385117
530 2 0.970078 0.878576 0.7442
531 2 0.147658 0.836119 0.485868
532 2 0.328477 0.540357 0.699801
533 2 0.698302 0.275447 0.424816
534 2 0.343636 0.940515 0.839831
535 2 0.748453 0.246987 0.0373559
536 2 0.083403 0.318913 0.485379
537 2 0.162417 0.0567467 0.549056
538 2 0.317422 0.15089 0.485354
539 2 0.906854 0.121079 0.0987052
540 2 0.250793 0.0968814 0.361139
541 2 0.210237 0.513721 0.291046
542 2 0.356392 0.244925 0.330212
543 2 0.579008 0.487978 0.365862
544 2 0.432621 0.39247 0.297102
545 2 0.560237 0.273363 0.0656783
546 2 0.174312 0.365942 0.0253224
547 2 0.658246 0.0324143 0.278465
548 2 0.265948 0.221571 0.445657
549 2 0.106113 0.149462 0.412886
550 2 0.602048 0.990257 0.837802
551 2 0.299256 0.382947 0.474055
552 2 0.329643 0.288875 0.955081
553 2 0.466023 0.682729 0.344154
554 2 0.993853 0.15785 0.736617
555 2 0.156351 0.889523 0.428694
556 2 0.361464 0.106076 0.97812
557 2 0.499591 0.991948 0.45634
558 2 0.0808906 0.909114 0.551911
559 2 0.646278 0.150731 0.488735
560 2 0.569566 0.356097 0.59529
561 2 0.557906 0.590262 0.433476
562 2 0.0103697 0.0865777 0.454883
563 2 0.172929 0.100936 0.0571572
564 2 0.957198 0.424385 0.57112
565 2 0.429839 0.662308 0.924414
566 2 0.0879681 0.430894 0.435219
567 2 0.0846086 0.56432 0.990768
568 2 0.372193 0.694189 0.902979
569 2 0.269598 0.0333778 0.484383
570 2 0.157157 0.58193 0.643375
571 2 0.0580085 0.517705 0.600336
572 2 0.826493 0.110153 0.947037
573 2 0.196327 0.445358 0.000659103
574 2 0.735545 0.0900377 0.995283
575 2 0.604672 0.978762 0.501367
576 2 0.539545 0.0730664 0.292748
577 2 0.515974 0.489936 0.507745
578 2 0.283609 0.266539 0.637006
579 2 0.683978 0.548946 0.0227243
580 2 0.0310579 0.00110046 0.927171
581 2 0.599763 0.309985 0.370437
582 2 0.133871 0.393309 0.949382
583 2 0.960851 0.728064 0.336895
584 2 0.456074 0.333802 0.409337
585 2 0.332585 0.485999 0.360118
586 2 0.318555 0.444986 0.538992
587 2 0.594949 0.297075 0.652802
588 2 0.351429 0.349622 0.369254
589 2 0.164838 0.485323 0.591902
590 2 0.384443 0.524564 0.36946
591 2 0.0451246 0.528979 0.856658
592 2 0.026131 0.239913 0.421943
593 2 0.0433641 0.02645 0.763698
594 2 0.321221 0.310985 0.321332
595 2 0.281251 0.141101 0.328324
596 2 0.794308 0.254059 0.883127
597 2 0.252013 0.370881 0.916429
598 2 0.447656 0.526318 0.42635
599 2 0.989217 0.132428 0.0661802
600 2 0.572621 0.32743 0.773313
601 2 0.390266 0.368131 0.223443
602 2 0.221516 0.836506 0.99101
603 2 0.113176 0.920632 0.783814
604 2 0.975117 0.587433 0.470351
605 2 0.342767 0.240015 0.28244
606 2 0.982539 0.353739 0.88334
607 2 0.448964 0.531647 0.712054
608 2 0.422059 0.408983 0.371063
609 2 0.926439 0.0525863 0.0885045
610 2 0.924464 0.172199 0.11133
611 2 0.234101 0.141789 0.413434
612 2 0.54448 0.527888 0.633646
613 2 0.506081 0.283895 0.766353
614 2 0.4226 0.176863 0.521475
615 2 0.40776 0.0245204 0.253637
616 2 0.76435 0.336657 0.411205
617 2 0.146608 0.306552 0.845991
618 2 0.177688 0.0422414 0.73542
619 2 0.229056 0.530675 0.357685
620 2 0.924176 0.144832 0.0420364
621 2 0.909507 0.702727 0.437352
622 2 0.205697 0.519537 0.792482
623 2 0.159396 0.0240358 0.467747
624 2 0.196517 0.0554445 0.897302
625 2 0.277811 0.356525 0.340696
626 2 0.135132 0.0204713 0.0236777
627 2 0.176141 0.0896966 0.488701
628 2 0.501685 0.368291 0.433113
629 2 0.0195941 0.174014 0.780988
630 2 0.134134 0.470412 0.988401
631 2 0.166415 0.309244 0.0691173
632 2 0.937523 0.33829 0.38765
633 2 0.0239626 0.16001 0.370703
634 2 0.44608 0.46201 0.483073
635 2 0.138804 0.582218 0.437211
636 2 0.0131322 0.0522867 0.870849
637 2 0.356876 0.432241 0.899871
638 2 0.0139604 0.415259 0.431144
639 2 0.552079 0.174517 0.492518
640 2 0.0378181 0.351383 0.0481852
641 2 0.0482849 0.396817 0.0844924
642 2 0.316803 0.875334 0.372136
643 2 0.433731 0.270306 0.303165
644 2 0.348831 0.0970501 0.556295
645 2 0.413884 0.018078 0.893948
646 2 0.254434 0.95619 0.891698
647 2 0.99161 0.76104 0.431494
648 2 0.12397 0.565921 0.0359049
649 2 0.259973 0.1965 0.349004
650 2 0.296544 0.140968 0.745435
651 2 0.0637472 0.575809 0.440852
652 2 0.250596 0.0645059 0.702419
653 2 0.283703 0.323394 0.706016
654 2 0.351674 0.843522 0.770951
655 2 0.00128323 0.979273 0.00668226
656 2 0.357963 0.18626 0.351414
657 2 0.958153 0.0737162 0.487892
658 2 0.877476 0.0430719 0.0601889
659 2 0.915024 0.186571 0.844077
660 2 0.412204 0.519834 0.88465
661 2 0.0163387 0.774744 0.473146
662 2 0.318084 0.78861 0.800722
663 2 0.519289 0.638747 0.418851
664 2 0.116209 0.36249 0.861006
665 2 0.608613 0.034353 0.36373
666 2 0.903975 0.937056 0.667138
667 2 0.0933555 0.0811376 0.785759
668 2 0.427761 0.76281 0.845592
669 2 0.253639 0.328731 0.268283
670 2 0.675274 0.449991 0.697775
671 2 0.10677 0.157669 0.0278776
672 2 0.485894 0.821327 0.393761
673 2 0.392481 0.928454 0.948373
674 2 0.334015 0.126726 0.991735
675 2 0.123718 0.102078 0.458249
676 2 0.399432 0.213982 0.555833
677 2 0.354169 0.471559 0.67786
678 2 0.303814 0.852038 0.732189
679 2 0.309851 0.658151 0.262502
680 2 0.410685 0.371369 0.796558
681 2 0.504873 0.928974 0.244139
682 2 0.361118 0.130312 0.461664
683 2 0.453419 0.560772 0.482267
684 2 0.253518 0.156386 0.345184
685 2 0.160339 0.905002 0.387371
686 2 0.0261734 0.286162 0.582367
687 2 0.247603 0.401143 0.874948
688 2 0.548965 0.0347927 0.258775
689 2 0.286591 0.956853 0.292975
690 2 0.312251 0.286209 0.674281
691 2 0.149199 0.342926 0.810144
692 2 0.625379 0.959082 0.448608
693 2 0.124528 0.0875864 0.0264925
694 2 0.166434 0.59609 0.714912
695 2 0.412992 0.612169 0.319141
696 2 0.194461 0.549868 0.356064
697 2 0.403003 0.0991963 0.569996
698 2 0.593896 0.731275 0.381267
699 2 0.33827 0.0962936 0.332768
700 2 0.439336 0.910964 0.394579
701 2 0.134175 0.724462 0.905159
702 2 0.0639637 0.39515 0.476513
703 2 0.364638 0.916484 0.338901
704 2 0.952274 0.999043 0.959626
705 2 0.0883944 0.247853 0.108599
706 2 0.00123924 0.0336584 0.0646945
707 2 0.20521 0.418452 0.528871
708 2 0.352277 0.429626 0.497548
709 2 0.0560274 0.153221 0.663851
710 2 0.243571 0.668298 0.437236
711 2 0.960488 0.130816 0.95046
712 2 0.592703 0.164639 0.386539
713 2 0.133359 0.12935 0.896955
714 2 0.872253 0.196504 0.875269
715 2 0.183914 0.507632 0.994038
716 2 0.350169 0.217209 0.397627
717 2 0.978895 0.0528918 0.393642
718 2 0.836263 0.0890304 0.866258
719 2 0.544219 0.599766 0.458761
720 2 0.391798 0.12981 0.972438
721 2 0.538402 0.9746 0.424873
722 2 0.394416 0.897827 0.275116
723 2 0.928396 0.156353 0.422408
724 2 0.186658 0.227974 0.945104
725 2 0.455852 0.452887 0.912381
726 2 0.215986 0.979973 0.675676
727 2 0.252808 0.63458 0.263407
728 2 0.877231 0.242753 0.896377
729 2 0.287975 0.498874 0.459328
730 2 0.134521 0.0998934 0.429016
731 2 0.428609 0.406908 0.653264
732 2 0.142365 0.972062 0.948432
733 2 0.316887 0.290506 0.345748
734 2 0.309862 0.176773 0.42629
735 2 0.108865 0.577475 0.0100543
736 2 0.321077 0.423494 0.333134
737 2 0.665562 0.234194 0.984841
738 2 0.280341 0.275277 0.41303
739 2 0.919419 0.0172464 0.931326
740 2 0.201912 0.127864 0.0615361
741 2 0.0417274 0.666684 0.917073
742 2 0.168482 0.252458 0.147393
743 2 0.901504 0.223193 0.6077
744 2 0.979968 0.828606 0.414419
745 2 0.0778668 0.12764 0.91653
746 2 0.037489 0.0942037 0.417959
747 2 0.369792 0.542301 0.327214
748 2 0.562757 0.19294 0.432522
749 2 0.0913298 0.110617 0.641083
750 2 0.584112 0.151163 0.610429
751 2 0.501618 0.0237454 0.412194
752 2 0.952553 0.024822 0.0973568
753 2 0.505364 0.554665 0.741824
754 2 0.108458 0.00500206 0.317106
755 2 0.15627 0.266946 0.0401987
756 2 0.992174 0.390462 0.534592
757 2 0.852878 0.0496118 0.414425
758 2 0.281412 0.558827 0.955632
759 2 0.328279 0.585794 0.345636
760 2 0.800001 0.448029 0.475488
761 2 0.233941 0.0336062 0.967568
762 2 0.119518 0.451197 0.425247
763 2 0.240246 0.504713 0.33856
764 2 0.470135 0.367492 0.586391
765 2 0.578895 0.571209 0.590942
766 2 0.0906296 0.285072 0.980747
767 2 0.243204 0.844053 0.410419
768 2 0.431332 0.812618 0.946743
769 2 0.269531 0.337189 0.493099
770 2 0.227533 0.164385 0.462996
771 2 0.187152 0.467451 0.362978
772 2 0.343138 0.013558 0.834499
773 2 0.207651 0.662978 0.926886
774 2 0.0117064 0.0352937 0.647786
775 2 0.140459 0.226264 0.0908138
776 2 0.385175 0.114295 0.801879
777 2 0.273264 0.12103 0.990623
778 2 0.079679 0.557062 0.489499
779 2 0.0341716 0.152578 0.518766
780 2 0.237664 0.0963807 0.334455
781 2 0.449308 0.426263 0.973995
782 2 0.614345 0.14154 0.702679
783 2 0.507309 0.376874 0.586191
784 2 0.160765 0.496456 0.408478
785 2 0.430935 0.309648 0.359221
786 2 0.155537 0.340169 0.986428
787 2 0.0312605 0.0327208 0.622801
788 2 0.270779 0.13944 0.499268
789 2 0.3308 0.831735 0.29525
790 2 0.39313 0.364528 0.563053
791 2 0.304552 0.972843 0.420078
792 2 0.316309 0.94532 0.971351
793 2 0.493264 0.382515 0.980154
794 2 0.293555 0.177195 0.382306
795 2 0.224991 0.76594 0.29867
796 2 0.766706 0.986966 0.422307
797 2 0.311076 0.0671182 0.450044
798 2 0.561226 0.440485 0.349711
799 2 0.0754107 0.177727 0.484016
800 2 0.249534 0.241493 0.0728561
801 2 0.259616 0.593863 0.513943
802 2 0.178672 0.98027 0.965154
803 2 0.257902 0.854671 0.361727
804 2 0.157703 0.211144 0.842149
805 2 0.256265 0.201471 0.301029
806 2 0.390985 0.994333 0.945098
807 2 0.172274 0.261459 0.731821
808 2 0.109114 0.272768 0.408512
809 2 0.238357 0.230114 0.828896
810 2 0.272774 0.405363 0.422246
811 2 0.319669 0.180732 0.347824
812 2 0.30119 0.790255 0.547894
813 2 0.171176 0.918901 0.412531
814 2 0.141728 0.952496 0.0292989
815 2 0.0423652 0.0986023 0.988874
816 2 0.194756 0.15661 0.723605
817 2 0.333749 0.287811 0.870106
818 2 0.27668 0.493375 0.404254
819 2 0.752155 0.274045 0.389524
820 2 0.0387873 0.603169 0.374418
821 2 0.258655 0.88684 0.467653
822 2 0.943393 0.604841 0.458778
823 2 0.223693 0.51167 0.382137
824 2 0.137706 0.073079 0.670317
825 2 0.323855 0.377251 0.452686
826 2 0.167587 0.0808158 0.43181
827 2 0.489564 0.0439029 0.274712
828 2 0.236679 0.3365 0.375319
829 2 0.125864 0.97575 0.330988
830 2 0.139359 0.163762 0.109129
831 2 0.152058 0.580346 0.39298
832 2 0.120272 0.360479 0.460527
833 2 0.326227 0.046329 0.376112
834 2 0.93311 0.515911 0.937874
835 2 0.435808 0.754704 0.951425
836 2 0.298372 0.388725 0.553108
837 2 0.559383 0.39196 0.812546
838 2 0.561157 0.0428484 0.285748
839 2 0.00500219 0.049444 0.997543
840 2 0.629277 0.140096 0.463178
841 2 0.538419 0.000685048 0.250039
842 2 0.219587 0.230962 0.53451
843 2 0.296047 0.300747 0.650247
844 2 0.0480923 0.717414 0.88167
845 2 0.863389 0.193706 0.921262
846 2 0.0557554 0.60592 0.904272
847 2 0.393463 0.499305 0.449231
848 2 0.136837 0.738003 0.36172
849 2 0.137219 0.755147 0.44355
850 2 0.0737866 0.195041 0.00419132
851 2 0.154678 0.517865 0.431674
852 2 0.253881 0.0604224 0.0317291
853 2 0.227042 0.308999 0.313307
854 2 0.656517 0.321135 0.402114
855 2 0.177408 0.858144 0.871596
856 2 0.37413 0.508956 0.407711
857 2 0.0930863 0.601708 0.83331
858 2 0.284905 0.393883 0.882121
859 2 0.356575 0.35312 0.417497
860 2 0.368115 0.294097 0.954429
861 2 0.460672 0.342964 0.859683
862 2 0.294907 0.472202 0.574009
863 2 0.963175 0.336248 0.538971
864 2 0.919563 0.597567 0.372756
865 2 0.0983699 0.385861 0.770498
866 2 0.403462 0.83249 0.906006
867 2 0.401347 0.0617226 0.503588
868 2 0.195267 0.391305 0.896896
869 2 0.251905 0.633745 0.949103
870 2 0.572906 0.306665 0.468848
871 2 0.333402 0.568912 0.446312
872 2 0.676444 0.332976 0.616655
873 2 0.0411583 0.63177 0.422672
874 2 0.66335 0.441181 0.598088
875 2 0.120102 0.357628 0.110394
876 2 0.960375 0.939655 0.877172
877 2 0.588096 0.389052 0.503211
878 2 0.869182 0.922868 0.0572105
879 2 0.379521 0.0623788 0.527968
880 2 0.0937178 0.754748 0.414465
881 2 0.200844 0.321081 0.96349
882 2 0.0777154 0.129877 0.022866
883 2 0.269496 0.236476 0.845267
884 2 0.413656 0.11929 0.995468
885 2 0.899882 0.377554 0.987612
886 2 0.38601 0.65497 0.44429
887 2 0.139177 0.0548312 0.0377677
888 2 0.434049 0.0993779 0.472401
889 2 0.0656424 0.489244 0.429182
890 2 0.608629 0.539926 0.374285
891 2 0.911406 0.54177 0.345237
892 2 0.184511 0.215193 0.00382381
893 2 0.0772973 0.445103 0.395732
894 2 0.229119 0.772673 0.452373
895 2 0.300373 0.0798414 0.41013
896 2 0.160199 0.961901 0.469687
897 2 0.564089 0.476523 0.813202
898 2 0.369926 0.375138 0.915968
899 2 0.0291547 0.869667 0.361552
900 2 0.1269 0.205901 0.0682392
901 2 0.0635123 0.870334 0.734085
902 2 0.5369 0.943682 0.256012
903 2 0.0475166 0.0148136 0.99626