 vasp.6.5.0 16Dec24 (build Jan 20 2025 08:32:48) complex                         
 executed on        HPECrayEX_GCC date 2025.07.29  01:37:55
 running  128 mpi-ranks, with    1 threads/rank, on    1 nodes
 distrk:  each k-point on  128 cores,    1 groups
 distr:  one band on NCORE=  16 cores,    8 groups


--------------------------------------------------------------------------------------------------------


 INCAR:
   SYSTEM = a-Si SPC
   NCORE = 16
   ISTART = 1
   ICHARG = 1
   ISPIN = 1
   ISYM = 1
   EDIFF = 1E-6
   NELM = 150
   EDIFFG = -0.01
   NSW = 0
   ISIF = 2
   IBRION = -1
   PREC = Accurate
   ENCUT = 1200
   KSPACING = 0.23
   KGAMMA = .TRUE.
   METAGGA = SCAN
   LASPH = .TRUE.
   LDIAG = .FALSE.
   LMIXTAU = .TRUE.
   ADDGRID = .TRUE.
   ALGO = Normal
   ISMEAR = 0
   SIGMA = 0.1
   LORBIT = 11
   NEDOS = 2000
   LWAVE = .FALSE.
   LCHARG = .FALSE.

 POTCAR:    PAW_PBE H 15Jun2001                   
 POTCAR:    PAW_PBE Si 05Jan2001                  
 POTCAR:    PAW_PBE H 15Jun2001                   
   SHA256 =  030f79b5d3ab3cf0e668861823c8fb652ff669f3e15e46930bd03bfd63a607b6 H/POTCAR              
   COPYR  = (c) Copyright 15Jun2001 Georg Kresse                                                    
   COPYR  = This file is part of the software VASP. Any use, copying, and all other rights are regul
   COPYR  = If you do not have a valid VASP license, you may not use, copy or distribute this file. 
   VRHFIN =H: ultrasoft test                                                                        
   LEXCH  = PE                                                                                      
   EATOM  =    12.4884 eV,    0.9179 Ry                                                             
                                                                                                    
   TITEL  = PAW_PBE H 15Jun2001                                                                     
   LULTRA =        F    use ultrasoft PP ?                                                          
   IUNSCR =        0    unscreen: 0-lin 1-nonlin 2-no                                               
   RPACOR =    0.000    partial core radius                                                         
   POMASS =    1.000; ZVAL   =    1.000    mass and valenz                                          
   RCORE  =    1.100    outmost cutoff radius                                                       
   RWIGS  =    0.700; RWIGS  =    0.370    wigner-seitz radius (au A)                               
   ENMAX  =  250.000; ENMIN  =  200.000 eV                                                          
   RCLOC  =    0.701    cutoff for local pot                                                        
   LCOR   =        T    correct aug charges                                                         
   LPAW   =        T    paw PP                                                                      
   EAUG   =  400.000                                                                                
   RMAX   =    1.123    core radius for proj-oper                                                   
   RAUG   =    1.200    factor for augmentation sphere                                              
   RDEP   =    1.112    radius for radial grids                                                     
   RDEPT  =    0.926    core radius for aug-charge                                                  
                                                                                                    
   Atomic configuration                                                                             
    2 entries                                                                                       
     n  l   j            E        occ.                                                              
     1  0  0.50        -6.4927   1.0000                                                             
     2  1  0.50        -3.4015   0.0000                                                             
   Description                                                                                      
     l       E           TYP  RCUT    TYP  RCUT                                                     
     0     -6.4927494     23  1.100                                                                 
     0      6.8029130     23  1.100                                                                 
     1     -4.0817478     23  1.100                                                                 
  local pseudopotential read in
  atomic valenz-charges read in
  non local Contribution for L=           0  read in
    real space projection operators read in
  non local Contribution for L=           0  read in
    real space projection operators read in
  non local Contribution for L=           1  read in
    real space projection operators read in
    PAW grid and wavefunctions read in

   number of l-projection  operators is LMAX  =           3
   number of lm-projection operators is LMMAX =           5

 POTCAR:    PAW_PBE Si 05Jan2001                  
   SHA256 =  79d9987ad8750f624c4d6acb2a16d13abf6a777132adc04dc6c8399be72b42bb Si/POTCAR             
   COPYR  = (c) Copyright 05Jan2001 Georg Kresse                                                    
   COPYR  = This file is part of the software VASP. Any use, copying, and all other rights are regul
   COPYR  = If you do not have a valid VASP license, you may not use, copy or distribute this file. 
   VRHFIN =Si: s2p2                                                                                 
   LEXCH  = PE                                                                                      
   EATOM  =   103.0669 eV,    7.5752 Ry                                                             
                                                                                                    
   TITEL  = PAW_PBE Si 05Jan2001                                                                    
   LULTRA =        F    use ultrasoft PP ?                                                          
   IUNSCR =        1    unscreen: 0-lin 1-nonlin 2-no                                               
   RPACOR =    1.500    partial core radius                                                         
   POMASS =   28.085; ZVAL   =    4.000    mass and valenz                                          
   RCORE  =    1.900    outmost cutoff radius                                                       
   RWIGS  =    2.480; RWIGS  =    1.312    wigner-seitz radius (au A)                               
   ENMAX  =  245.345; ENMIN  =  184.009 eV                                                          
   ICORE  =        2    local potential                                                             
   LCOR   =        T    correct aug charges                                                         
   LPAW   =        T    paw PP                                                                      
   EAUG   =  322.069                                                                                
   DEXC   =    0.000                                                                                
   RMAX   =    1.950    core radius for proj-oper                                                   
   RAUG   =    1.300    factor for augmentation sphere                                              
   RDEP   =    1.993    radius for radial grids                                                     
   RDEPT  =    1.837    core radius for aug-charge                                                  
                                                                                                    
   Atomic configuration                                                                             
    6 entries                                                                                       
     n  l   j            E        occ.                                                              
     1  0  0.50     -1785.8828   2.0000                                                             
     2  0  0.50      -139.4969   2.0000                                                             
     2  1  1.50       -95.5546   6.0000                                                             
     3  0  0.50       -10.8127   2.0000                                                             
     3  1  0.50        -4.0811   2.0000                                                             
     3  2  1.50        -4.0817   0.0000                                                             
   Description                                                                                      
     l       E           TYP  RCUT    TYP  RCUT                                                     
     0    -10.8127223     23  1.900                                                                 
     0     -7.6451159     23  1.900                                                                 
     1     -4.0811372     23  1.900                                                                 
     1      2.4879257     23  1.900                                                                 
     2     -4.0817478      7  1.900                                                                 
  local pseudopotential read in
  partial core-charges read in
  partial kinetic energy density read in
  atomic valenz-charges read in
  non local Contribution for L=           0  read in
    real space projection operators read in
  non local Contribution for L=           0  read in
    real space projection operators read in
  non local Contribution for L=           1  read in
    real space projection operators read in
  non local Contribution for L=           1  read in
    real space projection operators read in
    PAW grid and wavefunctions read in

   number of l-projection  operators is LMAX  =           4
   number of lm-projection operators is LMMAX =           8

 -----------------------------------------------------------------------------
|                                                                             |
|               ----> ADVICE to this user running VASP <----                  |
|                                                                             |
|     You have a (more or less) 'large supercell' and for larger cells it     |
|     might be more efficient to use real-space projection operators.         |
|     Therefore, try LREAL= Auto in the INCAR file.                           |
|     Mind: For very accurate calculation, you might also keep the            |
|     reciprocal projection scheme (i.e. LREAL=.FALSE.).                      |
|                                                                             |
 -----------------------------------------------------------------------------

 -----------------------------------------------------------------------------
|                                                                             |
|               ----> ADVICE to this user running VASP <----                  |
|                                                                             |
|     You enforced a specific xc type in the INCAR file but a different       |
|     type was found in the POTCAR file.                                      |
|     I HOPE YOU KNOW WHAT YOU ARE DOING!                                     |
|                                                                             |
 -----------------------------------------------------------------------------

  PAW_PBE H 15Jun2001                   :
 energy of atom  1       EATOM=  -12.4884
 kinetic energy error for atom=    0.0000 (will be added to EATOM!!)
  PAW_PBE Si 05Jan2001                  :
 energy of atom  2       EATOM= -103.0669
 kinetic energy error for atom=    0.0001 (will be added to EATOM!!)


 POSCAR:  H Si
  positions in cartesian coordinates
  No initial velocities read in


 exchange-correlation table for SCAN
   RHO(1)=    0.500       N(1)  =     2000
   RHO(2)=  100.500       N(2)  =     4000



--------------------------------------------------------------------------------------------------------


 ion  position               nearest neighbor table
   1  0.060  0.977  0.553-  73 1.48
   2  0.886  0.846  0.485-  70 1.47
   3  0.998  0.044  0.624-  73 1.48
   4  0.261  0.914  0.518-  17 0.75
   5  0.883  0.969  0.466- 100 1.49
   6  0.347  0.080  0.558-  57 1.53
   7  0.179  0.771  0.656-  80 1.50
   8  0.826  0.852  0.579-
   9  0.180  0.951  0.631-  19 0.74
  10  0.951  0.719  0.567-  79 1.49
  11  0.199  0.074  0.519-  95 1.48
  12  0.212  0.784  0.517- 101 1.48
  13  0.358  0.883  0.585-  50 1.49
  14  0.938  0.878  0.614-  15 0.83
  15  0.889  0.866  0.600-  14 0.83
  16  0.091  0.823  0.575-  26 0.74
  17  0.270  0.965  0.518-   4 0.75
  18  0.017  0.922  0.486-  67 1.48
  19  0.196  0.905  0.639-   9 0.74
  20  0.731  0.808  0.501-  70 1.65  47 1.76
  21  0.338  0.744  0.662-  80 1.49
  22  0.273  0.164  0.665-  76 1.48
  23  0.578  0.701  0.624-  90 1.48
  24  0.265  0.687  0.558-  75 1.49
  25  0.153  0.077  0.601-  73 1.47
  26  0.081  0.773  0.576-  16 0.74
  27  0.875  0.003  0.554-  60 1.50
  28  0.377  0.396  0.487-  77 2.30  63 2.31  49 2.34  41 2.41
  29  0.504  0.818  0.502-  39 2.35  50 2.36  47 2.37  38 2.46
  30  0.519  0.811  0.365-  94 2.23  82 2.26  39 2.33
  31  0.017  0.188  0.534- 105 2.31  37 2.31  69 2.32  73 2.35
  32  0.417  0.263  0.596-  76 2.30  51 2.36  77 2.37  57 2.38
  33  0.876  0.156  0.418- 100 2.31  43 2.33 105 2.34 102 2.39
  34  0.865  0.372  0.482- 105 2.34  97 2.34  56 2.39  36 2.39
  35  0.816  0.559  0.580-  58 2.26  36 2.29  79 2.30
  36  0.885  0.421  0.564-  35 2.29  99 2.35 106 2.35  34 2.39
  37  0.020  0.257  0.610- 106 2.29  31 2.31  45 2.32  73 2.99
  38  0.473  0.653  0.490-  59 2.37  53 2.43  29 2.46  64 2.49
  39  0.438  0.874  0.430-  86 2.31  30 2.33  29 2.35  72 2.36
  40  0.016  0.570  0.496-  71 2.32  99 2.33  79 2.35  97 2.39
  41  0.367  0.293  0.418-  49 2.39  28 2.41  98 2.44  78 2.46  55 2.67
  42  0.614  0.388  0.541-  77 2.30  74 2.31  46 2.33  58 2.39
  43  0.739  0.227  0.395-  56 2.32  33 2.33  84 2.36
  44  0.028  0.669  0.372- 103 2.31  71 2.33  89 2.35
  45  0.158  0.332  0.622-  76 2.30 104 2.32  37 2.32  52 2.35
  46  0.605  0.418  0.458-  56 2.32  49 2.32  42 2.33  59 2.37
  47  0.647  0.893  0.491-  20 1.76  65 2.30  91 2.37  29 2.37
  48  0.232  0.539  0.434-  63 2.30  71 2.33  64 2.39  98 2.45
  49  0.465  0.424  0.418-  46 2.32  28 2.34  41 2.39  93 2.40
  50  0.459  0.881  0.577-  13 1.49  92 2.34  29 2.36
  51  0.543  0.177  0.626-  32 2.36  74 2.40  92 2.44  57 2.92
  52  0.096  0.476  0.642-  66 2.27  45 2.35  99 2.37
  53  0.442  0.568  0.564-  90 2.28  75 2.29  38 2.43  77 2.43
  54  0.683  0.612  0.403-  82 2.29  62 2.30  59 2.33  85 2.34
  55  0.472  0.156  0.385-  72 2.35  84 2.43  78 2.63  41 2.67
  56  0.744  0.377  0.424-  46 2.32  43 2.32  85 2.36  34 2.39
  57  0.428  0.137  0.541-   6 1.53  78 2.38  32 2.38  92 2.47  96 2.51  51 2.92
  58  0.668  0.540  0.558-  35 2.26  90 2.32  42 2.39  59 2.40
  59  0.615  0.576  0.478-  54 2.33  46 2.37  38 2.37  58 2.40
  60  0.799  0.042  0.584-  27 1.50  88 2.31  65 2.32
  61  0.257  0.954  0.374-  72 2.37  81 2.46  86 2.58
  62  0.811  0.704  0.405-  54 2.30  70 2.31  87 2.35  89 2.45
  63  0.254  0.485  0.511- 104 2.29  48 2.30  28 2.31  75 2.36
  64  0.360  0.640  0.423-  93 2.34  48 2.39  86 2.47  38 2.49  82 3.12
  65  0.660  0.009  0.547-  47 2.30  92 2.31  60 2.32  96 2.36
  66  0.225  0.562  0.648-  80 2.26  52 2.27  75 2.29
  67  0.079  0.903  0.445-  18 1.48 103 2.31 101 2.34  81 2.37
  68  0.898  0.919  0.352- 103 2.24  87 2.30 100 2.35
  69  0.126  0.259  0.486- 104 2.30  95 2.31  31 2.32  83 2.32
  70  0.828  0.763  0.482-   2 1.47  20 1.65  62 2.31  79 2.32
  71  0.113  0.646  0.443-  40 2.32  44 2.33  48 2.33 101 2.36
  72  0.391  0.023  0.406-  55 2.35  39 2.36  61 2.37  78 2.37
  73  0.059  0.062  0.582-  25 1.47   3 1.48   1 1.48  31 2.35  37 2.99
  74  0.646  0.241  0.567-  88 2.30  42 2.31  96 2.32  51 2.40
  75  0.288  0.592  0.573-  24 1.49  53 2.29  66 2.29  63 2.36
  76  0.290  0.257  0.646-  22 1.48  32 2.30  45 2.30
  77  0.459  0.402  0.558-  42 2.30  28 2.30  32 2.37  53 2.43
  78  0.365  0.145  0.462-  95 2.32  72 2.37  57 2.38  41 2.46  55 2.63
  79  0.901  0.658  0.533-  10 1.49  35 2.30  70 2.32  40 2.35
  80  0.247  0.705  0.677-  21 1.49   7 1.50  66 2.26
  81  0.132  0.043  0.412-  95 2.35  67 2.37  61 2.46 102 2.53
  82  0.548  0.659  0.369-  30 2.26  93 2.28  54 2.29  64 3.12
  83  0.083  0.326  0.413-  69 2.32  98 2.36 102 2.45  97 2.48
  84  0.619  0.134  0.425-  43 2.36  96 2.38  91 2.42  55 2.43
  85  0.771  0.496  0.367-  54 2.34  89 2.34  56 2.36
  86  0.303  0.798  0.412-  39 2.31 101 2.32  64 2.47  61 2.58
  87  0.790  0.807  0.340-  94 2.26  68 2.30  62 2.35
  88  0.799  0.199  0.572-  74 2.30  60 2.31 106 2.33 105 2.37
  89  0.907  0.569  0.392-  85 2.34  44 2.35  97 2.41  62 2.45
  90  0.564  0.602  0.613-  23 1.48  53 2.28  58 2.32
  91  0.681  0.980  0.421-  94 2.29 100 2.37  47 2.37  84 2.42
  92  0.522  0.027  0.588-  65 2.31  50 2.34  51 2.44  57 2.47  96 2.86
  93  0.435  0.551  0.364-  82 2.28  64 2.34  49 2.40
  94  0.656  0.878  0.359-  30 2.23  87 2.26  91 2.29
  95  0.208  0.126  0.473-  11 1.48  69 2.31  78 2.32  81 2.35
  96  0.590  0.137  0.510-  74 2.32  65 2.36  84 2.38  57 2.51  92 2.86
  97  0.979  0.451  0.439-  34 2.34  40 2.39  89 2.41  83 2.48
  98  0.232  0.385  0.398-  83 2.36  41 2.44  48 2.45
  99  0.038  0.472  0.562- 104 2.32  40 2.33  36 2.35  52 2.37
 100  0.842  0.001  0.419-   5 1.49  33 2.31  68 2.35  91 2.37
 101  0.181  0.786  0.466-  12 1.48  86 2.32  67 2.34  71 2.36
 102  0.028  0.174  0.387-  33 2.39  83 2.45  81 2.53
 103  0.001  0.824  0.386-  68 2.24  67 2.31  44 2.31
 104  0.157  0.374  0.541-  63 2.29  69 2.30  45 2.32  99 2.32
 105  0.878  0.214  0.497-  31 2.31  34 2.34  33 2.34  88 2.37
 106  0.872  0.303  0.623-  37 2.29  88 2.33  36 2.35

  LATTYP: Found a simple tetragonal cell.
 ALAT       =    14.5630444323
 C/A-ratio  =     1.8906370936
  
  Lattice vectors:
  
 A1 = (  14.5630444323,   0.0000000000,   0.0000000000)
 A2 = (   0.0000000000,  14.5630444323,   0.0000000000)
 A3 = (   0.0000000000,   0.0000000000,  27.5334320000)


Analysis of symmetry for initial positions (statically):
=====================================================================
 Subroutine PRICEL returns:
 Original cell was already a primitive cell.
 

 Routine SETGRP: Setting up the symmetry group for a 
 simple tetragonal supercell.


 Subroutine GETGRP returns: Found  1 space group operations
 (whereof  1 operations were pure point group operations)
 out of a pool of 16 trial point group operations.


The static configuration has the point symmetry C_1 .


Analysis of symmetry for dynamics (positions and initial velocities):
=====================================================================
 Subroutine PRICEL returns:
 Original cell was already a primitive cell.
 

 Routine SETGRP: Setting up the symmetry group for a 
 simple tetragonal supercell.


 Subroutine GETGRP returns: Found  1 space group operations
 (whereof  1 operations were pure point group operations)
 out of a pool of 16 trial point group operations.


The dynamic configuration has the point symmetry C_1 .


 Subroutine INISYM returns: Found  1 space group operations
 (whereof  1 operations are pure point group operations),
 and found     1 'primitive' translations


----------------------------------------------------------------------------------------

                                     Primitive cell                                     

  volume of cell :    5839.3526

  direct lattice vectors                    reciprocal lattice vectors
    14.563044432  0.000000000  0.000000000     0.068666961  0.000000000  0.000000000
     0.000000000 14.563044432  0.000000000     0.000000000  0.068666961  0.000000000
     0.000000000  0.000000000 27.533432000     0.000000000  0.000000000  0.036319482

  length of vectors
    14.563044432 14.563044432 27.533432000     0.068666961  0.068666961  0.036319482

  position of ions in fractional coordinates (direct lattice)
     0.059989594  0.976687278  0.552824150
     0.885771413  0.846085186  0.485053732
     0.997696686  0.044103816  0.624292960
     0.260564661  0.914397133  0.518453627
     0.883053794  0.968988346  0.465650782
     0.346684019  0.079752545  0.558271120
     0.178780923  0.770576833  0.656450119
     0.826423482  0.851926907  0.578934694
     0.180052789  0.950939510  0.631000057
     0.951139766  0.719394189  0.567372525
     0.199042522  0.074042726  0.518822433
     0.211661864  0.783842928  0.517004108
     0.357572915  0.883099472  0.585397869
     0.937699135  0.877519271  0.613891527
     0.888858392  0.866234757  0.599699504
     0.091428487  0.822949597  0.575072060
     0.270209379  0.964657599  0.517598245
     0.017020689  0.921712719  0.486389709
     0.196307427  0.905134501  0.639184031
     0.730637110  0.807559315  0.500771986
     0.337507559  0.744206638  0.661908926
     0.273478274  0.163768509  0.665224282
     0.577729059  0.700851272  0.624213638
     0.265140104  0.687328429  0.558178940
     0.152597939  0.076913815  0.600963658
     0.080680041  0.773098815  0.576434131
     0.875299364  0.003378103  0.553734208
     0.376856660  0.395736969  0.486941272
     0.503993667  0.818019974  0.502120793
     0.519347205  0.810947454  0.365270102
     0.017165563  0.187810898  0.534181049
     0.416718275  0.262622260  0.595820318
     0.875819378  0.156069808  0.417755536
     0.864745977  0.371679774  0.482305127
     0.816459863  0.558819447  0.580412646
     0.884749097  0.420735361  0.564472906
     0.019566883  0.256646105  0.609562111
     0.473350276  0.653336379  0.490188261
     0.438200783  0.874354886  0.430152132
     0.016228729  0.569661679  0.495751812
     0.367180256  0.292881195  0.418411937
     0.613574147  0.388443251  0.541422653
     0.739090678  0.227027631  0.395404964
     0.027942044  0.669274106  0.372217247
     0.158220426  0.331861887  0.622024132
     0.604687561  0.418224148  0.458305249
     0.647356241  0.892727703  0.491104436
     0.231931350  0.539196947  0.433802766
     0.465292117  0.424485594  0.417572168
     0.458648896  0.880767648  0.577468222
     0.542676179  0.177432486  0.625569796
     0.095894743  0.476132223  0.642119573
     0.442036321  0.568185014  0.564137217
     0.682994974  0.611949339  0.403344605
     0.471913511  0.156176865  0.384950341
     0.743942865  0.377264038  0.423650373
     0.428406488  0.136508179  0.540948006
     0.668231344  0.539794729  0.557823935
     0.614985369  0.576432527  0.477631461
     0.799336059  0.041855682  0.584170844
     0.257093595  0.953804191  0.374492082
     0.810897615  0.704248263  0.405122468
     0.253670641  0.485050044  0.511252526
     0.360498849  0.639533592  0.422779628
     0.660154535  0.009377596  0.547075272
     0.225432953  0.561608135  0.647977845
     0.079094234  0.903187297  0.445170462
     0.898290088  0.918870922  0.351888378
     0.125679292  0.259291542  0.485677211
     0.828424604  0.762870879  0.482448204
     0.113495074  0.645990369  0.442513191
     0.391456186  0.022635492  0.406403004
     0.058994553  0.061753542  0.582460017
     0.646428450  0.240622848  0.566838434
     0.287606294  0.591845868  0.573256616
     0.289945498  0.256873320  0.645512655
     0.459333868  0.402313180  0.558190833
     0.365009154  0.145084322  0.461559749
     0.901167915  0.658009842  0.532998862
     0.247340910  0.704908549  0.677324905
     0.132216037  0.043425040  0.411857690
     0.547896077  0.658625199  0.368633624
     0.083376778  0.325808986  0.412559211
     0.618691573  0.134206336  0.424898116
     0.771224100  0.496493888  0.367443660
     0.303237079  0.798104155  0.412166430
     0.789503286  0.806512040  0.340187695
     0.798501840  0.198665947  0.571507648
     0.906996457  0.568827475  0.391602055
     0.564241762  0.602183389  0.612666532
     0.680992743  0.980294521  0.420712166
     0.522476849  0.026893935  0.587736500
     0.434843108  0.550666989  0.364041807
     0.656282867  0.877982530  0.358746806
     0.208435523  0.126334727  0.473008144
     0.590204395  0.137328944  0.509842826
     0.978820698  0.450674835  0.439444181
     0.231839628  0.384710673  0.398415915
     0.037669372  0.471614508  0.561686944
     0.842165075  0.001304553  0.419097643
     0.181461978  0.786057506  0.465850264
     0.028316183  0.174440878  0.387401694
     0.001072930  0.823510170  0.385659062
     0.157184356  0.373779392  0.540861228
     0.877812326  0.214038138  0.496984043
     0.871821253  0.303403718  0.622677408

  ion indices of the primitive-cell ions
   primitive index   ion index
                 1           1
                 2           2
                 3           3
                 4           4
                 5           5
                 6           6
                 7           7
                 8           8
                 9           9
                10          10
                11          11
                12          12
                13          13
                14          14
                15          15
                16          16
                17          17
                18          18
                19          19
                20          20
                21          21
                22          22
                23          23
                24          24
                25          25
                26          26
                27          27
                28          28
                29          29
                30          30
                31          31
                32          32
                33          33
                34          34
                35          35
                36          36
                37          37
                38          38
                39          39
                40          40
                41          41
                42          42
                43          43
                44          44
                45          45
                46          46
                47          47
                48          48
                49          49
                50          50
                51          51
                52          52
                53          53
                54          54
                55          55
                56          56
                57          57
                58          58
                59          59
                60          60
                61          61
                62          62
                63          63
                64          64
                65          65
                66          66
                67          67
                68          68
                69          69
                70          70
                71          71
                72          72
                73          73
                74          74
                75          75
                76          76
                77          77
                78          78
                79          79
                80          80
                81          81
                82          82
                83          83
                84          84
                85          85
                86          86
                87          87
                88          88
                89          89
                90          90
                91          91
                92          92
                93          93
                94          94
                95          95
                96          96
                97          97
                98          98
                99          99
               100         100
               101         101
               102         102
               103         103
               104         104
               105         105
               106         106

----------------------------------------------------------------------------------------


 -----------------------------------------------------------------------------
|                                                                             |
|           W    W    AA    RRRRR   N    N  II  N    N   GGGG   !!!           |
|           W    W   A  A   R    R  NN   N  II  NN   N  G    G  !!!           |
|           W    W  A    A  R    R  N N  N  II  N N  N  G       !!!           |
|           W WW W  AAAAAA  RRRRR   N  N N  II  N  N N  G  GGG   !            |
|           WW  WW  A    A  R   R   N   NN  II  N   NN  G    G                |
|           W    W  A    A  R    R  N    N  II  N    N   GGGG   !!!           |
|                                                                             |
|     The requested file  could not be found or opened for reading            |
|     k-point information. Automatic k-point generation is used as a          |
|     fallback, which may lead to unwanted results.                           |
|                                                                             |
 -----------------------------------------------------------------------------



Automatic generation of k-mesh.
 Grid dimensions derived from KSPACING:
 generate k-points for:    2    2    1

 Generating k-lattice:

  Cartesian coordinates                     Fractional coordinates (reciprocal lattice)
     0.034333480  0.000000000  0.000000000     0.500000000  0.000000000  0.000000000
     0.000000000  0.034333480  0.000000000     0.000000000  0.500000000  0.000000000
     0.000000000  0.000000000  0.036319482     0.000000000  0.000000000  1.000000000

  Length of vectors
     0.034333480  0.034333480  0.036319482

  Shift w.r.t. Gamma in fractional coordinates (k-lattice)
     0.000000000  0.000000000  0.000000000

 
 Subroutine IBZKPT returns following result:
 ===========================================
 
 Found      4 irreducible k-points:
 
 Following reciprocal coordinates:
            Coordinates               Weight
  0.000000  0.000000  0.000000      1.000000
  0.500000  0.000000  0.000000      1.000000
  0.000000  0.500000  0.000000      1.000000
  0.500000  0.500000  0.000000      1.000000
 
 Following cartesian coordinates:
            Coordinates               Weight
  0.000000  0.000000  0.000000      1.000000
  0.034333  0.000000  0.000000      1.000000
  0.000000  0.034333  0.000000      1.000000
  0.034333  0.034333  0.000000      1.000000
 


--------------------------------------------------------------------------------------------------------




 Dimension of arrays:
   k-points           NKPTS =      4   k-points in BZ     NKDIM =      4   number of bands    NBANDS=    232
   number of dos      NEDOS =   2000   number of ions     NIONS =    106
   non local maximal  LDIM  =      4   non local SUM 2l+1 LMDIM =      8
   total plane-waves  NPLWV = ******
   max r-space proj   IRMAX =      1   max aug-charges    IRDMAX= 413859
   dimension x,y,z NGX =   168 NGY =  168 NGZ =  320
   dimension x,y,z NGXF=   336 NGYF=  336 NGZF=  640
   support grid    NGXF=   672 NGYF=  672 NGZF= 1280
   ions per type =              27  79
   NGX,Y,Z   is equivalent  to a cutoff of  19.18, 19.18, 19.32 a.u.
   NGXF,Y,Z  is equivalent  to a cutoff of  38.36, 38.36, 38.64 a.u.

 SYSTEM =  a-Si SPC                                
 POSCAR =   H Si                                   

 Startparameter for this run:
   NWRITE =      2    write-flag & timer
   PREC   = accura    normal or accurate (medium, high low for compatibility)
   ISTART =      1    job   : 0-new  1-cont  2-samecut
   ICHARG =      1    charge: 1-file 2-atom 10-const
   ISPIN  =      1    spin polarized calculation?
   LNONCOLLINEAR =      F non collinear calculations
   LSORBIT =      F    spin-orbit coupling
   INIWAV =      1    electr: 0-lowe 1-rand  2-diag
   LASPH  =      T    aspherical Exc in radial PAW
 Electronic Relaxation 1
   ENCUT  = 1200.0 eV  88.20 Ry    9.39 a.u.  41.13 41.13 77.77*2*pi/ulx,y,z
   ENINI  = 1200.0     initial cutoff
   ENAUG  =  400.0 eV  augmentation charge cutoff
   NELM   =    150;   NELMIN=  2; NELMDL=  0     # of ELM steps 
   EDIFF  = 0.1E-05   stopping-criterion for ELM
   LREAL  =      F    real-space projection
   NLSPLINE    = F    spline interpolate recip. space projectors
   LCOMPAT=      F    compatible to vasp.4.4
   GGA_COMPAT  = T    GGA compatible to vasp.4.4-vasp.4.6
   LMAXPAW     = -100 max onsite density
   LMAXMIX     =    2 max onsite mixed and CHGCAR
   VOSKOWN=      0    Vosko Wilk Nusair interpolation
   ROPT   =    0.00000   0.00000
 Ionic relaxation
   EDIFFG = -.1E-01   stopping-criterion for IOM
   NSW    =      0    number of steps for IOM
   NBLOCK =      1;   KBLOCK =      1    inner block; outer block 
   IBRION =     -1    ionic relax: 0-MD 1-quasi-New 2-CG
   NFREE  =      0    steps in history (QN), initial steepest desc. (CG)
   ISIF   =      2    stress and relaxation
   IWAVPR =     10    prediction:  0-non 1-charg 2-wave 3-comb
   ISYM   =      1    0-nonsym 1-usesym 2-fastsym
   LCORR  =      T    Harris-Foulkes like correction to forces

   POTIM  = 0.5000    time-step for ionic-motion
   TEIN   =    0.0    initial temperature
   TEBEG  =    0.0;   TEEND  =   0.0 temperature during run
   SMASS  =  -3.00    Nose mass-parameter (am)
   estimated Nose-frequenzy (Omega)   =  0.10E-29 period in steps = 0.13E+47 mass=  -0.485E-26a.u.
   SCALEE = 1.0000    scale energy and forces
   NPACO  =    256;   APACO  = 10.0  distance and # of slots for P.C.
   PSTRESS=    0.0 pullay stress

  Mass of Ions in am
   POMASS =   1.00 28.09
  Ionic Valenz
   ZVAL   =   1.00  4.00
  Atomic Wigner-Seitz radii
   RWIGS  =  -1.00 -1.00
  virtual crystal weights 
   VCA    =   1.00  1.00
   NELECT =     343.0000    total number of electrons
   NUPDOWN=      -1.0000    fix difference up-down

 DOS related values:
   EMIN   =  10.00;   EMAX   =-10.00  energy-range for DOS
   EFERMI =   0.00;   METHOD = LEGACY      
   ISMEAR =     0;   SIGMA  =   0.10  broadening in eV -4-tet -1-fermi 0-gaus
   EFERMI_NEDOS =   21; number of points for ismear=-14 and -15

 Electronic relaxation 2 (details)
   IALGO  =     38    algorithm
   LDIAG  =      F    sub-space diagonalisation (order eigenvalues)
   LSUBROT=      F    optimize rotation matrix (better conditioning)
   TURBO    =      0    0=normal 1=particle mesh
   IRESTART =      0    0=no restart 2=restart with 2 vectors
   NREBOOT  =      0    no. of reboots
   NMIN     =      0    reboot dimension
   EREF     =   0.00    reference energy to select bands
   IMIX   =      4    mixing-type and parameters
     AMIX     =   0.40;   BMIX     =  1.00
     AMIX_MAG =   1.60;   BMIX_MAG =  1.00
     AMIN     =   0.10
     WC   =   100.;   INIMIX=   1;  MIXPRE=   1;  MAXMIX= -45

 Intra band minimization:
   WEIMIN = 0.0000     energy-eigenvalue tresh-hold
   EBREAK =  0.11E-08  absolut break condition
   DEPER  =   0.30     relativ break condition  

   TIME   =   0.40     timestep for ELM

  volume/ion in A,a.u.               =      55.09       371.75
  Fermi-wavevector in a.u.,A,eV,Ry     =   0.636382  1.202588  5.510117  0.404982
  Thomas-Fermi vector in A             =   1.701034

 Write flags
   LWAVE        =      F    write WAVECAR
   LDOWNSAMPLE  =      F    k-point downsampling of WAVECAR
   LCHARG       =      F    write CHGCAR
   LVTOT        =      F    write LOCPOT, total local potential
   LVHAR        =      F    write LOCPOT, Hartree potential only
   WRT_POTENTIAL= false  ! write potential to hdf5 file
   LELF         =      F    write electronic localiz. function (ELF)
   LORBIT       =     11    0 simple, 1 ext, 2 COOP (PROOUT), +10 PAW based schemes


 Python interface
   PLUGINS active      =      F    recompile with -DPLUGINS to activate

 Dipole corrections
   LMONO      =      F    monopole corrections only (constant potential shift)
   LDIPOL     =      F    correct potential (dipole corrections)
   IDIPOL     =      0    1-x, 2-y, 3-z, 4-all directions 
   EPSILON    =  1.0000000 bulk dielectric constant
   LVACPOTAV  =      F  vacuum potentials using an averaging scheme for the charge density
   VACPOTFLAT =  0.1000000 required flatness to determine vacuum potential

Coulomb truncation method
  LTRUNCATE          =      F  Coulomb kernel truncation to be used
  IDIMENSIONALITY    =      3  Dimensionality of cutoff (0 molecules / 2 surfaces)
  ISURFACE           =     -1  Direction of surface normal
  LCOARSEN           =      F  Coarsen the charge grid before padding, preferred


 Exchange correlation treatment:
   METAGGA = SCAN    functional components
   XC_C    = 1    coefficients multiplying the functional components
   LIBXC   =     F    Libxc                    
   VOSKOWN =     0    Vosko Wilk Nusair interpolation
   LHFCALC =     F    Hartree Fock is set to
   LHFONE  =     F    Hartree Fock one center treatment
   AEXX    =    0.0000 exact exchange contribution

 Parameters of functionals:
   SCAN:
     P1 =  0.000000E+00
     P2 =  0.000000E+00
     P3 =  0.000000E+00

 Accuracy and mixing parameters for tau-dependent meta-GGA functionals:
   LMAXTAU = 6
   LMIXTAU = T

 Van der Waals corrections
   IVDW    =     0    specifies the selected vdW correction

 Linear response parameters
   LEPSILON=     F    determine dielectric tensor
   LRPA    =     F    only Hartree local field effects (RPA)
   LNABLA  =     F    use nabla operator in PAW spheres
   LVEL    =     F    velocity operator in full k-point grid
   CSHIFT  =0.1000    complex shift for real part using Kramers Kronig
   OMEGAMAX=  -1.0    maximum frequency
   DEG_THRESHOLD= 0.2000000E-02 threshold for treating states as degnerate
   RTIME   =   -0.100 relaxation time in fs
  (WPLASMAI=    0.000 imaginary part of plasma frequency in eV, 0.658/RTIME)
   DFIELD  = 0.0000000 0.0000000 0.0000000 field for delta impulse in time

  Optional k-point grid parameters
   LKPOINTS_OPT  =     F    use optional k-point grid
   KPOINTS_OPT_MODE=     1    mode for optional k-point grid

 Orbital magnetization related:
   ORBITALMAG=     F  switch on orbital magnetization
   LCHIMAG   =     F  perturbation theory with respect to B field
   DQ        =  0.001000  dq finite difference perturbation B field
   LLRAUG    =     F  two centre corrections for induced B field
   LBONE     =     F  B-component reconstruction in AE one-centre
   LVGVCALC  =     T  calculate vGv susceptibility
   LVGVAPPL  =     F  apply vGv susceptibility instead of pGv for G=0

 Random number generation:
   RANDOM_GENERATOR = DEFAULT
   PCG_SEED         = not used


--------------------------------------------------------------------------------------------------------


 Static calculation
 charge density and potential will be updated during run
 non-spin polarized calculation
 Variant of blocked Davidson
 perform Loewdin sub-space diagonalisation
    ordering is kept fixed
    before iterative eigenvector-optimisation
 modified Broyden-mixing scheme, WC =      100.0
 initial mixing is a Kerker type mixing with AMIX =  0.4000 and BMIX =      1.0000
 Hartree-type preconditioning will be used
 using additional bands           60
 reciprocal scheme for non local part
 use partial core corrections
 calculate Harris-corrections to forces   (improved forces if not selfconsistent)
 use gradient corrections 
 use of overlap-Matrix (Vanderbilt PP)
 Gauss-broadening in eV      SIGMA  =   0.10


--------------------------------------------------------------------------------------------------------


  energy-cutoff  :     1200.00
  volume of cell :     5839.35
      direct lattice vectors                 reciprocal lattice vectors
    14.563044432  0.000000000  0.000000000     0.068666961  0.000000000  0.000000000
     0.000000000 14.563044432  0.000000000     0.000000000  0.068666961  0.000000000
     0.000000000  0.000000000 27.533432000     0.000000000  0.000000000  0.036319482

  length of vectors
    14.563044432 14.563044432 27.533432000     0.068666961  0.068666961  0.036319482



 old parameters found on file WAVECAR:
  energy-cutoff  :     1200.00
  volume of cell :     5839.35
      direct lattice vectors                 reciprocal lattice vectors
    14.563044432  0.000000000  0.000000000     0.068666961  0.000000000  0.000000000
     0.000000000 14.563044432  0.000000000     0.000000000  0.068666961  0.000000000
     0.000000000  0.000000000 27.533432000     0.000000000  0.000000000  0.036319482

  length of vectors


 k-points in units of 2pi/SCALE and weight: read from INCAR                         
   0.00000000  0.00000000  0.00000000       0.250
   0.03433348  0.00000000  0.00000000       0.250
   0.00000000  0.03433348  0.00000000       0.250
   0.03433348  0.03433348  0.00000000       0.250

 k-points in reciprocal lattice and weights: read from INCAR                         
   0.00000000  0.00000000  0.00000000       0.250
   0.50000000  0.00000000  0.00000000       0.250
   0.00000000  0.50000000  0.00000000       0.250
   0.50000000  0.50000000  0.00000000       0.250

 position of ions in fractional coordinates (direct lattice) 
   0.05998959  0.97668728  0.55282415
   0.88577141  0.84608519  0.48505373
   0.99769669  0.04410382  0.62429296
   0.26056466  0.91439713  0.51845363
   0.88305379  0.96898835  0.46565078
   0.34668402  0.07975254  0.55827112
   0.17878092  0.77057683  0.65645012
   0.82642348  0.85192691  0.57893469
   0.18005279  0.95093951  0.63100006
   0.95113977  0.71939419  0.56737252
   0.19904252  0.07404273  0.51882243
   0.21166186  0.78384293  0.51700411
   0.35757292  0.88309947  0.58539787
   0.93769913  0.87751927  0.61389153
   0.88885839  0.86623476  0.59969950
   0.09142849  0.82294960  0.57507206
   0.27020938  0.96465760  0.51759825
   0.01702069  0.92171272  0.48638971
   0.19630743  0.90513450  0.63918403
   0.73063711  0.80755932  0.50077199
   0.33750756  0.74420664  0.66190893
   0.27347827  0.16376851  0.66522428
   0.57772906  0.70085127  0.62421364
   0.26514010  0.68732843  0.55817894
   0.15259794  0.07691381  0.60096366
   0.08068004  0.77309881  0.57643413
   0.87529936  0.00337810  0.55373421
   0.37685666  0.39573697  0.48694127
   0.50399367  0.81801997  0.50212079
   0.51934720  0.81094745  0.36527010
   0.01716556  0.18781090  0.53418105
   0.41671828  0.26262226  0.59582032
   0.87581938  0.15606981  0.41775554
   0.86474598  0.37167977  0.48230513
   0.81645986  0.55881945  0.58041265
   0.88474910  0.42073536  0.56447291
   0.01956688  0.25664610  0.60956211
   0.47335028  0.65333638  0.49018826
   0.43820078  0.87435489  0.43015213
   0.01622873  0.56966168  0.49575181
   0.36718026  0.29288119  0.41841194
   0.61357415  0.38844325  0.54142265
   0.73909068  0.22702763  0.39540496
   0.02794204  0.66927411  0.37221725
   0.15822043  0.33186189  0.62202413
   0.60468756  0.41822415  0.45830525
   0.64735624  0.89272770  0.49110444
   0.23193135  0.53919695  0.43380277
   0.46529212  0.42448559  0.41757217
   0.45864890  0.88076765  0.57746822
   0.54267618  0.17743249  0.62556980
   0.09589474  0.47613222  0.64211957
   0.44203632  0.56818501  0.56413722
   0.68299497  0.61194934  0.40334460
   0.47191351  0.15617686  0.38495034
   0.74394287  0.37726404  0.42365037
   0.42840649  0.13650818  0.54094801
   0.66823134  0.53979473  0.55782394
   0.61498537  0.57643253  0.47763146
   0.79933606  0.04185568  0.58417084
   0.25709360  0.95380419  0.37449208
   0.81089762  0.70424826  0.40512247
   0.25367064  0.48505004  0.51125253
   0.36049885  0.63953359  0.42277963
   0.66015453  0.00937760  0.54707527
   0.22543295  0.56160814  0.64797784
   0.07909423  0.90318730  0.44517046
   0.89829009  0.91887092  0.35188838
   0.12567929  0.25929154  0.48567721
   0.82842460  0.76287088  0.48244820
   0.11349507  0.64599037  0.44251319
   0.39145619  0.02263549  0.40640300
   0.05899455  0.06175354  0.58246002
   0.64642845  0.24062285  0.56683843
   0.28760629  0.59184587  0.57325662
   0.28994550  0.25687332  0.64551266
   0.45933387  0.40231318  0.55819083
   0.36500915  0.14508432  0.46155975
   0.90116791  0.65800984  0.53299886
   0.24734091  0.70490855  0.67732491
   0.13221604  0.04342504  0.41185769
   0.54789608  0.65862520  0.36863362
   0.08337678  0.32580899  0.41255921
   0.61869157  0.13420634  0.42489812
   0.77122410  0.49649389  0.36744366
   0.30323708  0.79810415  0.41216643
   0.78950329  0.80651204  0.34018769
   0.79850184  0.19866595  0.57150765
   0.90699646  0.56882748  0.39160205
   0.56424176  0.60218339  0.61266653
   0.68099274  0.98029452  0.42071217
   0.52247685  0.02689393  0.58773650
   0.43484311  0.55066699  0.36404181
   0.65628287  0.87798253  0.35874681
   0.20843552  0.12633473  0.47300814
   0.59020440  0.13732894  0.50984283
   0.97882070  0.45067484  0.43944418
   0.23183963  0.38471067  0.39841591
   0.03766937  0.47161451  0.56168694
   0.84216508  0.00130455  0.41909764
   0.18146198  0.78605751  0.46585026
   0.02831618  0.17444088  0.38740169
   0.00107293  0.82351017  0.38565906
   0.15718436  0.37377939  0.54086123
   0.87781233  0.21403814  0.49698404
   0.87182125  0.30340372  0.62267741

 position of ions in cartesian coordinates  (Angst):
   0.87363113 14.22354023 15.22114613
  12.89952844 12.32157615 13.35519394
  14.52950117  0.64228584 17.18892776
   3.79461473 13.31640608 14.27480768
  12.85995164 14.11142034 12.82096414
   5.04877477  1.16143985 15.37111992
   2.60359452 11.22194466 18.07432471
  12.03524189 12.40664940 15.94005902
   2.62211676 13.84857433 17.37359716
  13.85149067 10.47656954 15.62171283
   2.89866509  1.07828751 14.28496217
   3.08244113 11.41513939 14.23489745
   5.20735025 12.86061685 16.11801241
  13.65575416 12.77935213 16.90254061
  12.94448426 12.61501526 16.51178552
   1.33147712 11.98465154 15.83370746
   3.93507119 14.04835148 14.25125609
   0.24787305 13.42294328 13.39197798
   2.85883378 13.18151395 17.59893005
  10.64030069 11.76052219 13.78797143
   4.91513758 10.83791434 18.22462441
   3.98267625  2.38496808 18.31590753
   8.41349395 10.20652822 17.18674376
   3.86124712 10.00959445 15.36858190
   2.22229056  1.12009930 16.54659200
   1.17494702 11.25867239 15.87120994
  12.74702353  0.04919546 15.24620316
   5.48818028  5.76313507 13.40716440
   7.33968216 11.91286123 13.82510872
   7.56327642 11.80986381 10.05713952
   0.24998286  2.73509845 14.70783759
   6.06868676  3.82457964 16.40497822
  12.75459651  2.27285155 11.50224365
  12.59333409  5.41278906 13.27951542
  11.89014126  8.13811244 15.98075213
  12.88464041  6.12718775 15.54187638
   0.28495339  3.73754863 16.78333692
   6.89342110  9.51456672 13.49656516
   6.38153747 12.73326906 11.84356448
   0.23633970  8.29600834 13.64974881
   5.34726239  4.26524185 11.52031661
   8.93550757  5.65691632 14.90722379
  10.76341039  3.30621348 10.88685568
   0.40692123  9.74666854 10.24841827
   2.30417109  4.83291941 17.12645914
   8.80609182  6.09061685 12.61871641
   9.42747770 13.00083320 13.52179059
   3.37762656  7.85234909 11.94407896
   6.77606977  6.18180257 11.49719490
   6.67932425 12.82665839 15.89968203
   7.90301731  2.58395718 17.22408344
   1.39651941  6.93393472 17.67975559
   6.43739458  8.27450361 15.53263369
   9.94648616  8.91184541 11.10546125
   6.87249743  2.27441062 10.59900403
  10.83407300  5.49411295 11.66454873
   6.23890272  1.98797467 14.89415515
   9.73148276  7.86105462 15.35880739
   8.95605925  8.39461250 13.15083335
  11.64076655  0.60954616 16.08422821
   3.74406545 13.89029281 10.31105227
  11.80913800 10.25599874 11.15441193
   3.69421681  7.06380534 14.07653667
   5.24996076  9.31355611 11.64057415
   9.61385982  0.13656634 15.06285981
   3.28299011  8.17872423 17.84105393
   1.15185285 13.15315673 12.25707064
  13.08183846 13.38155806  9.68869474
   1.83027312  3.77607424 13.37236046
  12.06438432 11.10972251 13.28345482
   1.65283381  9.40758644 12.18390686
   5.70079383  0.32964168 11.18966947
   0.85914029  0.89931957 16.03712328
   9.41396624  3.50420122 15.60700748
   4.18842324  8.61907767 15.78372205
   4.22248917  3.74085757 17.77317880
   6.68929953  5.85890471 15.36890933
   5.31564453  2.11286943 12.70832395
  13.12374838  9.58262656 14.67528793
   3.60203666 10.26561452 18.64907922
   1.92546802  0.63240079 11.33985571
   7.97903491  9.59158803 10.14974881
   1.21421972  4.74477074 11.35917097
   9.01003287  1.95445283 11.69890339
  11.23137083  7.23046255 10.11698504
   4.41605505 11.62282627 11.34835636
  11.49757144 11.74527068  9.36653476
  11.62861778  2.89318102 15.73556696
  13.20862970  8.28385980 10.78214854
   8.21707785  8.76962345 16.86881230
   9.91732757 14.27607267 11.58364981
   7.60885356  0.39165757 16.18240296
   6.33263950  8.01938783 10.02332035
   9.55747655 12.78609859  9.87753080
   3.03545579  1.83981824 13.02353758
   8.59517283  1.99992752 14.03772279
  14.25460932  6.56319765 12.09940647
   3.37629081  5.60255863 10.96975750
   0.54858074  6.86814303 15.46516929
  12.26448741  0.01899826 11.53919646
   2.64263885 11.44739039 12.82645656
   0.41236983  2.54039025 10.66649819
   0.01562512 11.99281520 10.61851757
   2.28908276  5.44336590 14.89176585
  12.78361990  3.11704692 13.68367636
  12.69637164  4.41848182 17.14444607



--------------------------------------------------------------------------------------------------------


 k-point     1 :   0.0000 0.0000 0.0000  plane waves:  551115
 k-point     2 :   0.5000 0.0000 0.0000  plane waves:  551178
 k-point     3 :   0.0000 0.5000 0.0000  plane waves:  551178
 k-point     4 :   0.5000 0.5000 0.0000  plane waves:  551036

 maximum and minimum number of plane-waves per node :     34524    34385

 maximum number of plane-waves:    551178
 maximum index in each direction: 
   IXMAX=   41   IYMAX=   41   IZMAX=   77
   IXMIN=  -41   IYMIN=  -41   IZMIN=  -77


 parallel 3D FFT for wavefunctions:
    minimum data exchange during FFTs selected (reduces bandwidth)
 parallel 3D FFT for charge:
    minimum data exchange during FFTs selected (reduces bandwidth)


 total amount of memory used by VASP MPI-rank0   363218. kBytes
=======================================================================

   base                                    :      30000. kBytes
   nonl-proj                               :      76202. kBytes
   fftplans                                :     108846. kBytes
   grid                                    :      83991. kBytes
   one-center                              :         21. kBytes
   wavefun                                 :      64158. kBytes

     INWAV:  cpu time     18.6709: real time     18.6831
 Broyden mixing: mesh for mixing (old mesh)
   NGX = 83   NGY = 83   NGZ =155
  (NGX  =336   NGY  =336   NGZ  =640)
  gives a total of ****** points

 initial charge density was supplied:
 number of electron     342.9999999 magnetization 
 keeping initial charge density in first step


--------------------------------------------------------------------------------------------------------


 Maximum index for augmentation-charges        11554 (set IRDMAX)


--------------------------------------------------------------------------------------------------------


 First call to EWALD:  gamma=   0.098
 Maximum number of real-space cells   3x   3x   2
 Maximum number of reciprocal cells   2x   2x   4

    FEWALD:  cpu time      0.0174: real time      0.0175


--------------------------------------- Ionic step        1  -------------------------------------------




--------------------------------------- Iteration      1(   1)  ---------------------------------------


    POTLOK:  cpu time      2.1486: real time      2.1500
    SETDIJ:  cpu time      1.7124: real time      1.7132
    EDDIAG:  cpu time     37.0216: real time     37.0418
     EDDAV:  cpu time    172.6780: real time    172.7793
       DOS:  cpu time      0.0065: real time      0.0066
    CHARGE:  cpu time     21.4945: real time     21.5167
    MIXING:  cpu time      0.0494: real time      0.0499
    --------------------------------------------
      LOOP:  cpu time    235.1111: real time    235.2575

 eigenvalue-minimisations  :  1888
 total energy-change (2. order) :-0.8883630E+03  (-0.1010488E+01)
 number of electron     342.9999999 magnetization 
 augmentation part      -17.3542109 magnetization 

 Broyden mixing:
  rms(total) = 0.11130E+01    rms(broyden)= 0.27816E+02
  rms(prec ) = 0.11531E+01
  weight for this iteration     100.00
  WARNING: grid for Broyden might be to small

 Free energy of the ion-electron system (eV)
  ---------------------------------------------------
  alpha Z        PSCENC =        42.91636924
  Ewald energy   TEWEN  =     47585.93452509
  -Hartree energ DENC   =    -55007.41103053
  -exchange      EXHF   =         0.00000000
  -V(xc)+E(xc)   XCENC  =      -304.95686118
  PAW double counting   =     31021.92773513   -30235.05148510
  entropy T*S    EENTRO =        -0.19694051
  eigenvalues    EBANDS =     -2470.99114751
  atomic energy  EATOM  =      8479.46580272
  Solvation  Ediel_sol  =         0.00000000
  ---------------------------------------------------
  free energy    TOTEN  =      -888.36303265 eV

  energy without entropy =     -888.16609215  energy(sigma->0) =     -888.26456240


--------------------------------------------------------------------------------------------------------




--------------------------------------- Iteration      1(   2)  ---------------------------------------


    POTLOK:  cpu time      2.1076: real time      2.1339
    SETDIJ:  cpu time      1.6925: real time      1.6937
    EDDIAG:  cpu time     37.1250: real time     37.1478
     EDDAV:  cpu time    172.5744: real time    172.6727
       DOS:  cpu time      0.0029: real time      0.0029
    CHARGE:  cpu time     21.4091: real time     21.4287
    MIXING:  cpu time      0.0418: real time      0.0423
    --------------------------------------------
      LOOP:  cpu time    234.9533: real time    235.1220

 eigenvalue-minimisations  :  1888
 total energy-change (2. order) : 0.6131798E+02  (-0.1045572E+01)
 number of electron     342.9999999 magnetization 
 augmentation part      -17.3520825 magnetization 

 Broyden mixing:
  rms(total) = 0.84607E+00    rms(broyden)= 0.15957E+02
  rms(prec ) = 0.89607E+00
  weight for this iteration     100.00
  WARNING: grid for Broyden might be to small

 eigenvalues of (default mixing * dielectric matrix)
  average eigenvalue GAMMA=   0.6356
  0.6356

 Free energy of the ion-electron system (eV)
  ---------------------------------------------------
  alpha Z        PSCENC =        42.91636924
  Ewald energy   TEWEN  =     47585.93452509
  -Hartree energ DENC   =    -54993.95072583
  -exchange      EXHF   =         0.00000000
  -V(xc)+E(xc)   XCENC  =      -297.53374750
  PAW double counting   =     36908.64290142   -36121.51230524
  entropy T*S    EENTRO =        -0.17717719
  eigenvalues    EBANDS =     -2430.83069740
  atomic energy  EATOM  =      8479.46580272
  Solvation  Ediel_sol  =         0.00000000
  ---------------------------------------------------
  free energy    TOTEN  =      -827.04505471 eV

  energy without entropy =     -826.86787752  energy(sigma->0) =     -826.95646612


--------------------------------------------------------------------------------------------------------




--------------------------------------- Iteration      1(   3)  ---------------------------------------


    POTLOK:  cpu time      2.1129: real time      2.1337
    SETDIJ:  cpu time      1.6875: real time      1.6886
    EDDIAG:  cpu time     37.1530: real time     37.1715
     EDDAV:  cpu time    173.4341: real time    173.5385
       DOS:  cpu time      0.0025: real time      0.0025
    CHARGE:  cpu time     21.4047: real time     21.4231
    MIXING:  cpu time      0.0400: real time      0.0401
    --------------------------------------------
      LOOP:  cpu time    235.8347: real time    235.9980

 eigenvalue-minimisations  :  1904
 total energy-change (2. order) :-0.2305956E+01  (-0.1031795E+01)
 number of electron     342.9999999 magnetization 
 augmentation part      -17.2306157 magnetization 

 Broyden mixing:
  rms(total) = 0.56500E+00    rms(broyden)= 0.62746E+01
  rms(prec ) = 0.61207E+00
  weight for this iteration     100.00
  WARNING: grid for Broyden might be to small

 eigenvalues of (default mixing * dielectric matrix)
  average eigenvalue GAMMA=   0.5581
  0.6445  0.4717

 Free energy of the ion-electron system (eV)
  ---------------------------------------------------
  alpha Z        PSCENC =        42.91636924
  Ewald energy   TEWEN  =     47585.93452509
  -Hartree energ DENC   =    -54995.60502613
  -exchange      EXHF   =         0.00000000
  -V(xc)+E(xc)   XCENC  =      -301.24769292
  PAW double counting   =     40807.25491235   -40020.25311933
  entropy T*S    EENTRO =        -0.20229189
  eigenvalues    EBANDS =     -2427.61448966
  atomic energy  EATOM  =      8479.46580272
  Solvation  Ediel_sol  =         0.00000000
  ---------------------------------------------------
  free energy    TOTEN  =      -829.35101054 eV

  energy without entropy =     -829.14871864  energy(sigma->0) =     -829.24986459


--------------------------------------------------------------------------------------------------------




--------------------------------------- Iteration      1(   4)  ---------------------------------------


    POTLOK:  cpu time      2.1083: real time      2.1360
    SETDIJ:  cpu time      1.6916: real time      1.6928
    EDDIAG:  cpu time     37.1383: real time     37.1592
     EDDAV:  cpu time    188.9798: real time    189.0941
       DOS:  cpu time      0.0028: real time      0.0028
    CHARGE:  cpu time     21.3936: real time     21.4127
    MIXING:  cpu time      0.0400: real time      0.0401
    --------------------------------------------
      LOOP:  cpu time    251.3546: real time    251.5376

 eigenvalue-minimisations  :  2208
 total energy-change (2. order) :-0.5179623E+00  (-0.3068344E+00)
 number of electron     342.9999999 magnetization 
 augmentation part      -17.2152224 magnetization 

 Broyden mixing:
  rms(total) = 0.36763E+00    rms(broyden)= 0.10186E+02
  rms(prec ) = 0.47579E+00
  weight for this iteration     100.00
  WARNING: grid for Broyden might be to small

 eigenvalues of (default mixing * dielectric matrix)
  average eigenvalue GAMMA=   0.6565
  1.0412  0.6330  0.2953

 Free energy of the ion-electron system (eV)
  ---------------------------------------------------
  alpha Z        PSCENC =        42.91636924
  Ewald energy   TEWEN  =     47585.93452509
  -Hartree energ DENC   =    -54999.96520015
  -exchange      EXHF   =         0.00000000
  -V(xc)+E(xc)   XCENC  =      -301.17819257
  PAW double counting   =     47734.29938039   -46947.37049714
  entropy T*S    EENTRO =        -0.15190254
  eigenvalues    EBANDS =     -2423.81925782
  atomic energy  EATOM  =      8479.46580272
  Solvation  Ediel_sol  =         0.00000000
  ---------------------------------------------------
  free energy    TOTEN  =      -829.86897279 eV

  energy without entropy =     -829.71707025  energy(sigma->0) =     -829.79302152


--------------------------------------------------------------------------------------------------------




--------------------------------------- Iteration      1(   5)  ---------------------------------------


    POTLOK:  cpu time      2.1019: real time      2.1270
    SETDIJ:  cpu time      1.6999: real time      1.7007
    EDDIAG:  cpu time     37.1360: real time     37.1560
     EDDAV:  cpu time    188.3202: real time    188.4400
       DOS:  cpu time      0.0056: real time      0.0056
    CHARGE:  cpu time     21.4009: real time     21.4218
    MIXING:  cpu time      0.0469: real time      0.0469
    --------------------------------------------
      LOOP:  cpu time    250.7114: real time    250.8981

 eigenvalue-minimisations  :  2192
 total energy-change (2. order) : 0.2464361E+00  (-0.1157917E+00)
 number of electron     342.9999999 magnetization 
 augmentation part      -17.2141570 magnetization 

 Broyden mixing:
  rms(total) = 0.27795E+00    rms(broyden)= 0.60756E+01
  rms(prec ) = 0.34231E+00
  weight for this iteration     100.00
  WARNING: grid for Broyden might be to small

 eigenvalues of (default mixing * dielectric matrix)
  average eigenvalue GAMMA=   0.8813
  1.8449  0.6851  0.6172  0.3780

 Free energy of the ion-electron system (eV)
  ---------------------------------------------------
  alpha Z        PSCENC =        42.91636924
  Ewald energy   TEWEN  =     47585.93452509
  -Hartree energ DENC   =    -55000.82818385
  -exchange      EXHF   =         0.00000000
  -V(xc)+E(xc)   XCENC  =      -301.81313119
  PAW double counting   =     48714.49990188   -47927.55476936
  entropy T*S    EENTRO =        -0.19824473
  eigenvalues    EBANDS =     -2422.04480649
  atomic energy  EATOM  =      8479.46580272
  Solvation  Ediel_sol  =         0.00000000
  ---------------------------------------------------
  free energy    TOTEN  =      -829.62253670 eV

  energy without entropy =     -829.42429197  energy(sigma->0) =     -829.52341433


--------------------------------------------------------------------------------------------------------




--------------------------------------- Iteration      1(   6)  ---------------------------------------


    POTLOK:  cpu time      2.1034: real time      2.1334
    SETDIJ:  cpu time      1.6925: real time      1.6938
    EDDIAG:  cpu time     37.1406: real time     37.1606
     EDDAV:  cpu time    182.9614: real time    183.0719
       DOS:  cpu time      0.0020: real time      0.0020
    CHARGE:  cpu time     21.3839: real time     21.4035
    MIXING:  cpu time      0.0411: real time      0.0411
    --------------------------------------------
      LOOP:  cpu time    245.3248: real time    245.5063

 eigenvalue-minimisations  :  2088
 total energy-change (2. order) : 0.1971371E+00  (-0.5839183E-01)
 number of electron     342.9999999 magnetization 
 augmentation part      -17.2476317 magnetization 

 Broyden mixing:
  rms(total) = 0.10210E+00    rms(broyden)= 0.31303E+01
  rms(prec ) = 0.13647E+00
  weight for this iteration     100.00
  WARNING: grid for Broyden might be to small

 eigenvalues of (default mixing * dielectric matrix)
  average eigenvalue GAMMA=   0.8373
  2.1896  0.6501  0.6100  0.3685  0.3685

 Free energy of the ion-electron system (eV)
  ---------------------------------------------------
  alpha Z        PSCENC =        42.91636924
  Ewald energy   TEWEN  =     47585.93452509
  -Hartree energ DENC   =    -54998.37518653
  -exchange      EXHF   =         0.00000000
  -V(xc)+E(xc)   XCENC  =      -301.88683687
  PAW double counting   =     48736.07909501   -47949.10506526
  entropy T*S    EENTRO =        -0.19883302
  eigenvalues    EBANDS =     -2424.25527002
  atomic energy  EATOM  =      8479.46580272
  Solvation  Ediel_sol  =         0.00000000
  ---------------------------------------------------
  free energy    TOTEN  =      -829.42539965 eV

  energy without entropy =     -829.22656663  energy(sigma->0) =     -829.32598314


--------------------------------------------------------------------------------------------------------




--------------------------------------- Iteration      1(   7)  ---------------------------------------


    POTLOK:  cpu time      2.1049: real time      2.1302
    SETDIJ:  cpu time      1.6936: real time      1.6946
    EDDIAG:  cpu time     37.1319: real time     37.1530
     EDDAV:  cpu time    174.5365: real time    174.6369
       DOS:  cpu time      0.0025: real time      0.0025
    CHARGE:  cpu time     21.3997: real time     21.4189
    MIXING:  cpu time      0.0416: real time      0.0416
    --------------------------------------------
      LOOP:  cpu time    236.9107: real time    237.0779

 eigenvalue-minimisations  :  1928
 total energy-change (2. order) :-0.7095157E-01  (-0.2231759E-01)
 number of electron     342.9999999 magnetization 
 augmentation part      -17.2581966 magnetization 

 Broyden mixing:
  rms(total) = 0.13687E+00    rms(broyden)= 0.34944E+00
  rms(prec ) = 0.15534E+00
  weight for this iteration     100.00
  WARNING: grid for Broyden might be to small

 eigenvalues of (default mixing * dielectric matrix)
  average eigenvalue GAMMA=   0.8643
  2.4571  0.5259  0.5259  0.7184  0.6162  0.3427

 Free energy of the ion-electron system (eV)
  ---------------------------------------------------
  alpha Z        PSCENC =        42.91636924
  Ewald energy   TEWEN  =     47585.93452509
  -Hartree energ DENC   =    -54999.25875279
  -exchange      EXHF   =         0.00000000
  -V(xc)+E(xc)   XCENC  =      -301.95130128
  PAW double counting   =     48851.07615357   -48064.09577860
  entropy T*S    EENTRO =        -0.19172131
  eigenvalues    EBANDS =     -2423.39164786
  atomic energy  EATOM  =      8479.46580272
  Solvation  Ediel_sol  =         0.00000000
  ---------------------------------------------------
  free energy    TOTEN  =      -829.49635122 eV

  energy without entropy =     -829.30462991  energy(sigma->0) =     -829.40049057


--------------------------------------------------------------------------------------------------------




--------------------------------------- Iteration      1(   8)  ---------------------------------------


    POTLOK:  cpu time      2.1174: real time      2.1374
    SETDIJ:  cpu time      1.6927: real time      1.6939
    EDDIAG:  cpu time     37.1101: real time     37.1293
     EDDAV:  cpu time    172.9960: real time    173.0989
       DOS:  cpu time      0.0019: real time      0.0019
    CHARGE:  cpu time     21.4020: real time     21.4205
    MIXING:  cpu time      0.0424: real time      0.0424
    --------------------------------------------
      LOOP:  cpu time    235.3625: real time    235.5244

 eigenvalue-minimisations  :  1896
 total energy-change (2. order) :-0.2998383E-02  (-0.7270120E-02)
 number of electron     342.9999999 magnetization 
 augmentation part      -17.2423909 magnetization 

 Broyden mixing:
  rms(total) = 0.32304E-01    rms(broyden)= 0.55868E+00
  rms(prec ) = 0.38010E-01
  weight for this iteration     100.00
  WARNING: grid for Broyden might be to small

 eigenvalues of (default mixing * dielectric matrix)
  average eigenvalue GAMMA=   0.8511
  2.5042  0.8833  0.6263  0.6263  0.6263  0.3455  0.3455

 Free energy of the ion-electron system (eV)
  ---------------------------------------------------
  alpha Z        PSCENC =        42.91636924
  Ewald energy   TEWEN  =     47585.93452509
  -Hartree energ DENC   =    -54999.07510537
  -exchange      EXHF   =         0.00000000
  -V(xc)+E(xc)   XCENC  =      -302.05774729
  PAW double counting   =     48900.38594468   -48113.40771386
  entropy T*S    EENTRO =        -0.19752016
  eigenvalues    EBANDS =     -2423.46390465
  atomic energy  EATOM  =      8479.46580272
  Solvation  Ediel_sol  =         0.00000000
  ---------------------------------------------------
  free energy    TOTEN  =      -829.49934960 eV

  energy without entropy =     -829.30182944  energy(sigma->0) =     -829.40058952


--------------------------------------------------------------------------------------------------------




--------------------------------------- Iteration      1(   9)  ---------------------------------------


    POTLOK:  cpu time      2.1235: real time      2.1461
    SETDIJ:  cpu time      1.6956: real time      1.6966
    EDDIAG:  cpu time     37.1490: real time     37.1715
     EDDAV:  cpu time    177.3058: real time    177.4185
       DOS:  cpu time      0.0026: real time      0.0026
    CHARGE:  cpu time     21.4118: real time     21.4305
    MIXING:  cpu time      0.0435: real time      0.0435
    --------------------------------------------
      LOOP:  cpu time    239.7319: real time    239.9094

 eigenvalue-minimisations  :  1976
 total energy-change (2. order) : 0.1036842E-01  (-0.2056860E-02)
 number of electron     342.9999999 magnetization 
 augmentation part      -17.2469424 magnetization 

 Broyden mixing:
  rms(total) = 0.34644E-01    rms(broyden)= 0.73449E-01
  rms(prec ) = 0.38002E-01
  weight for this iteration     100.00
  WARNING: grid for Broyden might be to small

 eigenvalues of (default mixing * dielectric matrix)
  average eigenvalue GAMMA=   0.8361
  2.5712  0.9544  0.6593  0.6593  0.6506  0.5480  0.3526  0.2934

 Free energy of the ion-electron system (eV)
  ---------------------------------------------------
  alpha Z        PSCENC =        42.91636924
  Ewald energy   TEWEN  =     47585.93452509
  -Hartree energ DENC   =    -54998.50533711
  -exchange      EXHF   =         0.00000000
  -V(xc)+E(xc)   XCENC  =      -302.01112708
  PAW double counting   =     48830.09711489   -48043.10951645
  entropy T*S    EENTRO =        -0.19610329
  eigenvalues    EBANDS =     -2424.08070919
  atomic energy  EATOM  =      8479.46580272
  Solvation  Ediel_sol  =         0.00000000
  ---------------------------------------------------
  free energy    TOTEN  =      -829.48898118 eV

  energy without entropy =     -829.29287790  energy(sigma->0) =     -829.39092954


--------------------------------------------------------------------------------------------------------




--------------------------------------- Iteration      1(  10)  ---------------------------------------


    POTLOK:  cpu time      2.1205: real time      2.1467
    SETDIJ:  cpu time      1.6978: real time      1.6987
    EDDIAG:  cpu time     37.1335: real time     37.1548
     EDDAV:  cpu time    176.6784: real time    176.7843
       DOS:  cpu time      0.0030: real time      0.0030
    CHARGE:  cpu time     21.3930: real time     21.4138
    MIXING:  cpu time      0.0445: real time      0.0445
    --------------------------------------------
      LOOP:  cpu time    239.0705: real time    239.2456

 eigenvalue-minimisations  :  1968
 total energy-change (2. order) :-0.4499990E-02  (-0.6066872E-03)
 number of electron     342.9999999 magnetization 
 augmentation part      -17.2462021 magnetization 

 Broyden mixing:
  rms(total) = 0.28800E-01    rms(broyden)= 0.87509E-01
  rms(prec ) = 0.32110E-01
  weight for this iteration     100.00
  WARNING: grid for Broyden might be to small

 eigenvalues of (default mixing * dielectric matrix)
  average eigenvalue GAMMA=   0.8041
  2.5626  0.8730  0.6866  0.6866  0.7740  0.6014  0.3729  0.3401  0.3401

 Free energy of the ion-electron system (eV)
  ---------------------------------------------------
  alpha Z        PSCENC =        42.91636924
  Ewald energy   TEWEN  =     47585.93452509
  -Hartree energ DENC   =    -54998.18423422
  -exchange      EXHF   =         0.00000000
  -V(xc)+E(xc)   XCENC  =      -301.92177177
  PAW double counting   =     48814.63511015   -48027.64044134
  entropy T*S    EENTRO =        -0.19499848
  eigenvalues    EBANDS =     -2424.50384256
  atomic energy  EATOM  =      8479.46580272
  Solvation  Ediel_sol  =         0.00000000
  ---------------------------------------------------
  free energy    TOTEN  =      -829.49348117 eV

  energy without entropy =     -829.29848269  energy(sigma->0) =     -829.39598193


--------------------------------------------------------------------------------------------------------




--------------------------------------- Iteration      1(  11)  ---------------------------------------


    POTLOK:  cpu time      2.1118: real time      2.1365
    SETDIJ:  cpu time      1.6916: real time      1.6924
    EDDIAG:  cpu time     37.1471: real time     37.1675
     EDDAV:  cpu time    174.6490: real time    174.7562
       DOS:  cpu time      0.0044: real time      0.0045
    CHARGE:  cpu time     21.4021: real time     21.4224
    MIXING:  cpu time      0.0446: real time      0.0447
    --------------------------------------------
      LOOP:  cpu time    237.0506: real time    237.2242

 eigenvalue-minimisations  :  1928
 total energy-change (2. order) :-0.1584458E-02  (-0.3878113E-03)
 number of electron     342.9999999 magnetization 
 augmentation part      -17.2430547 magnetization 

 Broyden mixing:
  rms(total) = 0.84936E-02    rms(broyden)= 0.13728E+00
  rms(prec ) = 0.10652E-01
  weight for this iteration     100.00
  WARNING: grid for Broyden might be to small

 eigenvalues of (default mixing * dielectric matrix)
  average eigenvalue GAMMA=   0.8214
  2.5529  0.9959  0.8871  0.8871  0.5898  0.5898  0.6259  0.3590  0.3590  0.3671

 Free energy of the ion-electron system (eV)
  ---------------------------------------------------
  alpha Z        PSCENC =        42.91636924
  Ewald energy   TEWEN  =     47585.93452509
  -Hartree energ DENC   =    -54998.24307376
  -exchange      EXHF   =         0.00000000
  -V(xc)+E(xc)   XCENC  =      -301.83295022
  PAW double counting   =     48827.69775580   -48040.69592581
  entropy T*S    EENTRO =        -0.19554987
  eigenvalues    EBANDS =     -2424.54201881
  atomic energy  EATOM  =      8479.46580272
  Solvation  Ediel_sol  =         0.00000000
  ---------------------------------------------------
  free energy    TOTEN  =      -829.49506563 eV

  energy without entropy =     -829.29951576  energy(sigma->0) =     -829.39729070


--------------------------------------------------------------------------------------------------------




--------------------------------------- Iteration      1(  12)  ---------------------------------------


    POTLOK:  cpu time      2.1036: real time      2.1333
    SETDIJ:  cpu time      1.6894: real time      1.6905
    EDDIAG:  cpu time     37.1370: real time     37.1534
     EDDAV:  cpu time    175.4084: real time    175.5092
       DOS:  cpu time      0.0028: real time      0.0028
    CHARGE:  cpu time     21.4082: real time     21.4278
    MIXING:  cpu time      0.0465: real time      0.0465
    --------------------------------------------
      LOOP:  cpu time    237.7959: real time    237.9634

 eigenvalue-minimisations  :  1944
 total energy-change (2. order) :-0.7524269E-03  (-0.2604547E-03)
 number of electron     342.9999999 magnetization 
 augmentation part      -17.2421684 magnetization 

 Broyden mixing:
  rms(total) = 0.10121E-01    rms(broyden)= 0.25205E-01
  rms(prec ) = 0.11920E-01
  weight for this iteration     100.00
  WARNING: grid for Broyden might be to small

 eigenvalues of (default mixing * dielectric matrix)
  average eigenvalue GAMMA=   0.8885
  2.5322  1.9340  1.0588  0.6925  0.6925  0.6313  0.5700  0.5700  0.3494  0.3494
  0.3934

 Free energy of the ion-electron system (eV)
  ---------------------------------------------------
  alpha Z        PSCENC =        42.91636924
  Ewald energy   TEWEN  =     47585.93452509
  -Hartree energ DENC   =    -54997.88916444
  -exchange      EXHF   =         0.00000000
  -V(xc)+E(xc)   XCENC  =      -301.80490943
  PAW double counting   =     48818.50312611   -48031.49637131
  entropy T*S    EENTRO =        -0.19559045
  eigenvalues    EBANDS =     -2424.92960559
  atomic energy  EATOM  =      8479.46580272
  Solvation  Ediel_sol  =         0.00000000
  ---------------------------------------------------
  free energy    TOTEN  =      -829.49581806 eV

  energy without entropy =     -829.30022761  energy(sigma->0) =     -829.39802284


--------------------------------------------------------------------------------------------------------




--------------------------------------- Iteration      1(  13)  ---------------------------------------


    POTLOK:  cpu time      2.1085: real time      2.1350
    SETDIJ:  cpu time      1.6958: real time      1.6968
    EDDIAG:  cpu time     37.1529: real time     37.1728
     EDDAV:  cpu time    175.3940: real time    175.5013
       DOS:  cpu time      0.0029: real time      0.0029
    CHARGE:  cpu time     21.4059: real time     21.4251
    MIXING:  cpu time      0.0462: real time      0.0462
    --------------------------------------------
      LOOP:  cpu time    237.8061: real time    237.9801

 eigenvalue-minimisations  :  1944
 total energy-change (2. order) :-0.2462734E-03  (-0.1127175E-03)
 number of electron     342.9999999 magnetization 
 augmentation part      -17.2430111 magnetization 

 Broyden mixing:
  rms(total) = 0.42260E-02    rms(broyden)= 0.21898E-01
  rms(prec ) = 0.50444E-02
  weight for this iteration     100.00
  WARNING: grid for Broyden might be to small

 eigenvalues of (default mixing * dielectric matrix)
  average eigenvalue GAMMA=   0.9260
  2.4561  2.4561  0.9661  0.9661  0.6091  0.6091  0.6668  0.6668  0.6123  0.3469
  0.3469  0.4100

 Free energy of the ion-electron system (eV)
  ---------------------------------------------------
  alpha Z        PSCENC =        42.91636924
  Ewald energy   TEWEN  =     47585.93452509
  -Hartree energ DENC   =    -54997.76876169
  -exchange      EXHF   =         0.00000000
  -V(xc)+E(xc)   XCENC  =      -301.80500940
  PAW double counting   =     48814.94388161   -48027.93575561
  entropy T*S    EENTRO =        -0.19568318
  eigenvalues    EBANDS =     -2425.05143310
  atomic energy  EATOM  =      8479.46580272
  Solvation  Ediel_sol  =         0.00000000
  ---------------------------------------------------
  free energy    TOTEN  =      -829.49606433 eV

  energy without entropy =     -829.30038115  energy(sigma->0) =     -829.39822274


--------------------------------------------------------------------------------------------------------




--------------------------------------- Iteration      1(  14)  ---------------------------------------


    POTLOK:  cpu time      2.1341: real time      2.1354
    SETDIJ:  cpu time      1.7023: real time      1.7033
    EDDIAG:  cpu time     37.1289: real time     37.1484
     EDDAV:  cpu time    176.7429: real time    176.8507
       DOS:  cpu time      0.0042: real time      0.0042
    CHARGE:  cpu time     21.4111: real time     21.4313
    MIXING:  cpu time      0.0485: real time      0.0485
    --------------------------------------------
      LOOP:  cpu time    239.1720: real time    239.3218

 eigenvalue-minimisations  :  1968
 total energy-change (2. order) :-0.8213405E-04  (-0.4671704E-04)
 number of electron     342.9999999 magnetization 
 augmentation part      -17.2437914 magnetization 

 Broyden mixing:
  rms(total) = 0.39117E-02    rms(broyden)= 0.88960E-02
  rms(prec ) = 0.44277E-02
  weight for this iteration     100.00
  WARNING: grid for Broyden might be to small

 eigenvalues of (default mixing * dielectric matrix)
  average eigenvalue GAMMA=   0.9002
  2.4835  2.4835  0.9376  0.9376  0.7392  0.7392  0.5753  0.5753  0.6248  0.3474
  0.3474  0.4762  0.4356

 Free energy of the ion-electron system (eV)
  ---------------------------------------------------
  alpha Z        PSCENC =        42.91636924
  Ewald energy   TEWEN  =     47585.93452509
  -Hartree energ DENC   =    -54997.58594299
  -exchange      EXHF   =         0.00000000
  -V(xc)+E(xc)   XCENC  =      -301.80787003
  PAW double counting   =     48811.58017770   -48024.57126944
  entropy T*S    EENTRO =        -0.19587126
  eigenvalues    EBANDS =     -2425.23206749
  atomic energy  EATOM  =      8479.46580272
  Solvation  Ediel_sol  =         0.00000000
  ---------------------------------------------------
  free energy    TOTEN  =      -829.49614647 eV

  energy without entropy =     -829.30027520  energy(sigma->0) =     -829.39821083


--------------------------------------------------------------------------------------------------------




[...]
   0.181E+01 0.668E+01 0.763E+02   -.389E+01 -.863E+01 -.733E+02   0.199E+01 0.206E+01 -.292E+01   -.432E-05 0.284E-04 -.115E-04
   0.917E+01 -.380E+02 -.131E+03   -.850E+01 0.389E+02 0.133E+03   -.965E+00 -.712E+00 -.157E+01   0.620E-05 -.125E-03 -.672E-04
   0.161E+01 -.342E+02 -.343E+03   -.134E+01 0.347E+02 0.339E+03   -.256E+00 -.494E+00 0.375E+01   0.407E-04 0.378E-05 0.189E-04
   0.805E+01 -.559E+01 0.220E+03   -.604E+01 0.440E+01 -.216E+03   -.174E+01 0.120E+01 -.325E+01   -.318E-04 0.651E-04 -.583E-04
   0.269E+01 0.447E+01 0.303E+03   -.320E+01 -.617E+01 -.302E+03   0.387E+00 0.989E+00 -.143E+01   -.678E-05 -.151E-04 -.239E-04
   0.102E+02 -.288E+01 0.255E+03   -.787E+01 0.197E+01 -.252E+03   -.238E+01 0.111E+01 -.237E+01   -.145E-05 -.458E-04 -.347E-04
   0.678E+01 -.104E+02 0.188E+03   -.557E+01 0.101E+02 -.186E+03   -.107E+01 0.310E-01 -.141E+01   -.116E-04 0.584E-05 -.123E-04
   -.137E+00 0.386E+02 0.333E+03   -.101E+00 -.373E+02 -.333E+03   0.331E+00 -.116E+01 -.532E+00   -.144E-04 -.224E-05 -.158E-04
   0.198E+02 0.210E+01 0.214E+03   -.188E+02 -.132E+01 -.209E+03   -.108E+01 -.874E+00 -.402E+01   0.156E-04 -.309E-04 -.435E-04
   -.376E+01 0.126E+02 0.350E+03   0.399E+01 -.118E+02 -.349E+03   -.192E-01 -.113E+01 -.142E+01   0.835E-05 -.221E-05 -.653E-04
   0.792E+01 0.211E+02 -.212E+03   -.790E+01 -.211E+02 0.211E+03   -.132E-01 -.481E-01 0.358E+00   -.322E-05 0.283E-04 -.131E-04
   -.194E+02 0.184E+02 0.256E+03   0.176E+02 -.196E+02 -.255E+03   0.184E+01 0.625E+00 -.890E+00   -.189E-04 -.111E-04 -.417E-04
   -.231E+02 -.282E+02 -.322E+03   0.229E+02 0.275E+02 0.321E+03   0.256E+00 0.313E+00 0.108E+01   -.137E-04 -.583E-04 0.455E-04
   0.989E+01 -.164E+02 0.166E+03   -.834E+01 0.157E+02 -.167E+03   -.145E+01 0.121E+01 0.106E+01   -.117E-04 0.122E-04 -.484E-04
   0.952E+01 0.498E+02 -.275E+03   -.868E+01 -.508E+02 0.272E+03   -.425E+00 0.430E+00 0.287E+01   0.217E-06 0.551E-04 -.192E-05
   0.221E+02 0.292E+02 0.341E+03   -.243E+02 -.273E+02 -.342E+03   0.180E+01 -.209E+01 0.408E+00   -.134E-04 -.200E-04 -.391E-04
   0.155E+02 -.322E+02 0.314E+03   -.152E+02 0.295E+02 -.310E+03   -.373E+00 0.214E+01 -.313E+01   -.525E-05 0.222E-05 -.447E-04
   -.512E+01 0.189E+02 0.512E+02   0.366E+01 -.195E+02 -.498E+02   0.127E+01 0.645E+00 -.177E+01   0.716E-06 0.405E-04 -.358E-04
   0.820E+00 0.331E+01 -.165E+02   0.570E+00 -.253E+01 0.177E+02   -.128E+01 -.700E+00 -.154E+01   -.176E-04 0.247E-04 0.995E-06
   -.122E+02 0.106E+02 0.169E+03   0.943E+01 -.961E+01 -.167E+03   0.258E+01 -.979E+00 -.247E+01   0.159E-05 -.343E-04 -.282E-04
   0.484E+01 0.791E+01 0.286E+03   -.589E+01 -.774E+01 -.288E+03   0.116E+01 -.101E+00 0.172E+01   -.234E-07 -.221E-04 -.246E-04
   0.128E+02 -.474E+02 -.176E+03   -.127E+02 0.461E+02 0.176E+03   0.143E-01 0.131E+01 0.498E+00   -.105E-04 -.556E-04 -.544E-04
   -.908E+01 -.917E+01 0.166E+03   0.102E+02 0.951E+01 -.164E+03   -.986E+00 -.326E+00 -.205E+01   0.151E-04 0.289E-04 -.838E-04
   0.451E+01 -.124E+02 0.306E+02   -.331E+01 0.128E+02 -.297E+02   -.108E+01 -.264E+00 -.823E+00   0.168E-04 -.109E-04 -.557E-04
   -.928E+01 0.300E+01 0.291E+03   0.720E+01 -.269E+01 -.295E+03   0.182E+01 -.382E+00 0.333E+01   0.459E-05 0.100E-04 -.619E-04
   -.319E+02 -.409E+01 0.250E+03   0.285E+02 0.550E+01 -.248E+03   0.281E+01 -.120E+01 -.172E+01   0.629E-07 0.142E-04 -.678E-04
   -.216E+02 0.125E+02 -.104E+03   0.204E+02 -.115E+02 0.103E+03   0.946E+00 -.110E+01 0.543E+00   0.186E-04 -.408E-04 -.346E-04
   0.133E+02 0.321E+02 0.232E+01   -.124E+02 -.307E+02 -.152E+01   -.107E+01 -.146E+01 -.668E+00   0.470E-05 0.186E-04 -.141E-04
   0.389E+02 -.499E+01 -.348E+03   -.402E+02 0.531E+01 0.348E+03   0.581E+00 -.177E+00 0.134E+00   -.163E-04 0.199E-05 0.424E-05
 -----------------------------------------------------------------------------------------------
   -.688E+01 0.124E+02 0.314E+02   -.121E-12 -.915E-13 0.455E-12   0.688E+01 -.124E+02 -.314E+02   0.201E-03 0.797E-04 -.246E-02


 POSITION                                       TOTAL-FORCE (eV/Angst)
 -----------------------------------------------------------------------------------
      0.87363     14.22354     15.22115         0.060049     -0.109323      0.127551
     12.89953     12.32158     13.35519         0.012844      0.080171     -0.054738
     14.52950      0.64229     17.18893        -0.146685      0.155736      0.130686
      3.79461     13.31641     14.27481         0.090892      0.047920      0.018671
     12.85995     14.11142     12.82096        -0.061467      0.060508     -0.044411
      5.04877      1.16144     15.37112         0.378997      0.282983      0.016779
      2.60359     11.22194     18.07432        -0.161174     -0.198979      0.564073
     12.03524     12.40665     15.94006        -0.516011      0.079131     -0.240217
      2.62212     13.84857     17.37360         0.070475     -0.003061      0.038304
     13.85149     10.47657     15.62171         0.113191     -0.120483     -0.158415
      2.89867      1.07829     14.28496         0.173522      0.078772      0.098127
      3.08244     11.41514     14.23490        -0.014643     -0.051956      0.081773
      5.20735     12.86062     16.11801        -0.011486     -0.058604     -0.116650
     13.65575     12.77935     16.90254         0.278186     -0.120520      0.091216
     12.94448     12.61502     16.51179         0.316548     -0.072445      0.157571
      1.33148     11.98465     15.83371         0.014894     -0.009032      0.030021
      3.93507     14.04835     14.25126         0.042494     -0.085386      0.008334
      0.24787     13.42294     13.39198        -0.200294     -0.077932      0.091984
      2.85883     13.18151     17.59893         0.019348     -0.028206      0.028174
     10.64030     11.76052     13.78797        -0.175397      0.143350     -0.184781
      4.91514     10.83791     18.22462         0.075888     -0.184866      0.078984
      3.98268      2.38497     18.31591        -0.022095     -0.138596      0.045382
      8.41349     10.20653     17.18674         0.048728      0.260808     -0.078200
      3.86125     10.00959     15.36858         0.065397     -0.085515     -0.161119
      2.22229      1.12010     16.54659         0.137650      0.212512      0.043413
      1.17495     11.25867     15.87121         0.051375      0.050267      0.030177
     12.74702      0.04920     15.24620        -0.048797      0.142763     -0.035563
      5.48818      5.76314     13.40716         0.100039      0.286487      0.021188
      7.33968     11.91286     13.82511         0.089035     -0.082757      0.307576
      7.56328     11.80986     10.05714        -0.045831      0.393153     -0.082427
      0.24998      2.73510     14.70784         0.082709     -0.120501      0.183939
      6.06869      3.82458     16.40498        -0.505402      0.498369      0.555882
     12.75460      2.27285     11.50224         0.213929     -0.201332     -0.056256
     12.59333      5.41279     13.27952        -0.068186     -0.005170      0.131293
     11.89014      8.13811     15.98075         0.045457      0.189440      0.116617
     12.88464      6.12719     15.54188         0.292027     -0.314342     -0.009740
      0.28495      3.73755     16.78334         0.136243      0.545686     -0.707451
      6.89342      9.51457     13.49657        -0.108985     -0.031627     -0.172365
      6.38154     12.73327     11.84356         0.033904      0.207416     -0.183612
      0.23634      8.29601     13.64975         0.293389     -0.113872     -0.031259
      5.34726      4.26524     11.52032         0.088967      0.032068     -0.080981
      8.93551      5.65692     14.90722        -0.056099      0.110123      0.115105
     10.76341      3.30621     10.88686        -0.201843     -0.064906      0.153517
      0.40692      9.74667     10.24842         0.014743      0.361113      0.030124
      2.30417      4.83292     17.12646         0.108925     -0.181437      0.402329
      8.80609      6.09062     12.61872         0.025391     -0.081561      0.075840
      9.42748     13.00083     13.52179        -0.229040     -0.322873     -0.036093
      3.37763      7.85235     11.94408         0.161356      0.000280      0.192231
      6.77607      6.18180     11.49719         0.144028     -0.001423      0.015493
      6.67932     12.82666     15.89968         0.270188      0.192826      0.292164
      7.90302      2.58396     17.22408        -0.001804     -0.196737      0.146680
      1.39652      6.93393     17.67976        -0.174559      0.032125      0.172053
      6.43739      8.27450     15.53263        -0.240235     -0.241388      0.359996
      9.94649      8.91185     11.10546         0.083841      0.294102     -0.109983
      6.87250      2.27441     10.59900        -0.278381      0.138268     -0.197770
     10.83407      5.49411     11.66455         0.008930      0.154315      0.095435
      6.23890      1.98797     14.89416        -0.317938     -0.040975     -0.396072
      9.73148      7.86105     15.35881        -0.039817     -0.157083      0.112402
      8.95606      8.39461     13.15083         0.009609      0.119140     -0.405933
     11.64077      0.60955     16.08423        -0.234307     -0.484003     -0.419565
      3.74407     13.89029     10.31105         0.294033      0.190368      0.063292
     11.80914     10.25600     11.15441        -0.778537      0.118488     -0.452548
      3.69422      7.06381     14.07654         0.071845     -0.024964      0.158095
      5.24996      9.31356     11.64057        -0.055475      0.252655     -0.219370
      9.61386      0.13657     15.06286         0.467117     -0.039184      0.256734
      3.28299      8.17872     17.84105        -0.091741      0.147597      0.045755
      1.15185     13.15316     12.25707         0.127303     -0.050661      0.028014
     13.08184     13.38156      9.68869         0.080490     -0.212482      0.105007
      1.83027      3.77607     13.37236         0.195419     -0.125385      0.278969
     12.06438     11.10972     13.28345         0.280006      0.192871      0.578754
      1.65283      9.40759     12.18391        -0.116458      0.123355     -0.095368
      5.70079      0.32964     11.18967        -0.062935     -0.355809     -0.186982
      0.85914      0.89932     16.03712        -0.111520     -0.457842     -0.661108
      9.41397      3.50420     15.60701        -0.062718     -0.147928      0.187659
      4.18842      8.61908     15.78372         0.045657      0.365556     -0.090206
      4.22249      3.74086     17.77318         0.200011      0.151255     -0.130928
      6.68930      5.85890     15.36891         0.088305      0.009793     -0.160219
      5.31564      2.11287     12.70832         0.021325      0.236183     -0.134653
     13.12375      9.58263     14.67529        -0.323877      0.224724      0.323689
      3.60204     10.26561     18.64908         0.015627      0.028443     -0.644040
      1.92547      0.63240     11.33986         0.211477      0.058405      0.145273
      7.97903      9.59159     10.14975        -0.114987     -0.650331      0.316946
      1.21422      4.74477     11.35917        -0.113601      0.242000     -0.015026
      9.01003      1.95445     11.69890         0.084350     -0.239489      0.118772
     11.23137      7.23046     10.11699         0.142695      0.145396      0.067262
      4.41606     11.62283     11.34836        -0.121324     -0.098021      0.044588
     11.49757     11.74527      9.36653         0.187070     -0.188564     -0.253882
     11.62862      2.89318     15.73557        -0.012545      0.021712      0.114394
     13.20863      8.28386     10.78215         0.154592     -0.462232     -0.356058
      8.21708      8.76962     16.86881         0.059851     -0.264168      0.040062
      9.91733     14.27607     11.58365         0.028270      0.503483     -0.228792
      7.60885      0.39166     16.18240         0.451734     -0.550884     -0.135922
      6.33264      8.01939     10.02332        -0.209534     -0.187680     -0.314795
      9.55748     12.78610      9.87753        -0.108508     -0.517756      0.333493
      3.03546      1.83982     13.02354        -0.136868      0.136127     -0.426320
      8.59517      1.99993     14.03772         0.053218     -0.021363     -0.281491
     14.25461      6.56320     12.09941        -0.132633      0.037727      0.085659
      3.37629      5.60256     10.96976         0.137758      0.039088      0.079119
      0.54858      6.86814     15.46517         0.106939      0.066548     -0.077413
     12.26449      0.01900     11.53920         0.135969     -0.006344     -0.053530
      2.64264     11.44739     12.82646         0.073166      0.122097      0.026678
      0.41237      2.54039     10.66650        -0.177917     -0.081223     -0.021132
      0.01563     11.99282     10.61852        -0.450661      0.174233     -0.124692
      2.28908      5.44337     14.89177        -0.225007     -0.088719     -0.054250
     12.78362      3.11705     13.68368        -0.139029     -0.048282      0.104303
     12.69637      4.41848     17.14445        -0.461060      0.068266      0.418724
 -----------------------------------------------------------------------------------
    total drift:                               -0.002577      0.005089      0.001945


--------------------------------------------------------------------------------------------------------



  FREE ENERGIE OF THE ION-ELECTRON SYSTEM (eV)
  ---------------------------------------------------
  free  energy   TOTEN  =      -829.49683421 eV

  energy  without entropy=     -829.30089367  energy(sigma->0) =     -829.39886394



--------------------------------------------------------------------------------------------------------


    POTLOK:  cpu time      3.7864: real time      3.7888


--------------------------------------------------------------------------------------------------------


     LOOP+:  cpu time   6552.6678: real time   6557.4288
    4ORBIT:  cpu time      0.0000: real time      0.0000



 total charge

# of ion       s       p       d       tot
------------------------------------------
    1        0.575   0.016   0.000   0.590
    2        0.569   0.018   0.000   0.588
    3        0.573   0.016   0.000   0.589
    4        0.612   0.033   0.000   0.646
    5        0.565   0.017   0.000   0.582
    6        0.550   0.015   0.000   0.565
    7        0.553   0.016   0.000   0.568
    8        0.445   0.008   0.000   0.453
    9        0.615   0.033   0.000   0.648
   10        0.563   0.016   0.000   0.579
   11        0.574   0.017   0.000   0.591
   12        0.572   0.017   0.000   0.589
   13        0.564   0.016   0.000   0.580
   14        0.561   0.020   0.000   0.582
   15        0.568   0.038   0.000   0.606
   16        0.612   0.033   0.000   0.645
   17        0.613   0.033   0.000   0.647
   18        0.569   0.017   0.000   0.586
   19        0.613   0.033   0.000   0.646
   20        0.553   0.015   0.000   0.568
   21        0.562   0.015   0.000   0.577
   22        0.566   0.016   0.000   0.582
   23        0.558   0.016   0.000   0.575
   24        0.567   0.016   0.000   0.584
   25        0.582   0.016   0.000   0.598
   26        0.614   0.033   0.000   0.646
   27        0.563   0.016   0.000   0.578
   28        0.774   0.928   0.000   1.703
   29        0.750   0.901   0.000   1.651
   30        0.772   0.939   0.000   1.712
   31        0.754   0.988   0.000   1.743
   32        0.748   0.933   0.000   1.682
   33        0.748   0.954   0.000   1.702
   34        0.759   0.932   0.000   1.692
   35        0.795   0.917   0.000   1.711
   36        0.764   0.924   0.000   1.689
   37        0.806   0.867   0.000   1.673
   38        0.769   0.856   0.000   1.624
   39        0.762   0.927   0.000   1.690
   40        0.762   0.935   0.000   1.696
   41        0.750   0.856   0.000   1.606
   42        0.754   0.963   0.000   1.717
   43        0.789   0.872   0.000   1.661
   44        0.793   0.871   0.000   1.664
   45        0.756   0.941   0.000   1.697
   46        0.760   0.947   0.000   1.707
   47        0.776   0.865   0.000   1.641
   48        0.762   0.914   0.000   1.676
   49        0.765   0.907   0.000   1.673
   50        0.775   0.892   0.000   1.667
   51        0.823   0.802   0.000   1.626
   52        0.809   0.850   0.000   1.659
   53        0.756   0.933   0.000   1.689
   54        0.758   0.971   0.000   1.730
   55        0.845   0.763   0.000   1.608
   56        0.756   0.939   0.000   1.695
   57        0.736   0.920   0.000   1.656
   58        0.756   0.934   0.000   1.690
   59        0.769   0.919   0.000   1.688
   60        0.785   0.894   0.000   1.679
   61        0.824   0.757   0.000   1.581
   62        0.770   0.898   0.000   1.669
   63        0.764   0.970   0.000   1.734
   64        0.759   0.867   0.000   1.626
   65        0.757   0.970   0.000   1.727
   66        0.773   0.924   0.000   1.697
   67        0.742   0.986   0.000   1.728
   68        0.789   0.909   0.000   1.698
   69        0.756   0.971   0.000   1.728
   70        0.763   0.936   0.000   1.699
   71        0.753   0.955   0.000   1.708
   72        0.755   0.923   0.000   1.678
   73        0.733   1.019   0.000   1.753
   74        0.756   0.962   0.000   1.718
   75        0.749   0.980   0.000   1.729
   76        0.768   0.925   0.000   1.693
   77        0.750   0.953   0.000   1.703
   78        0.769   0.929   0.000   1.698
   79        0.748   0.981   0.000   1.729
   80        0.761   0.941   0.000   1.701
   81        0.747   0.894   0.000   1.641
   82        0.792   0.886   0.000   1.678
   83        0.757   0.889   0.000   1.646
   84        0.752   0.904   0.000   1.657
   85        0.811   0.849   0.000   1.659
   86        0.758   0.898   0.000   1.655
   87        0.789   0.892   0.000   1.681
   88        0.760   0.946   0.000   1.707
   89        0.765   0.887   0.000   1.652
   90        0.789   0.912   0.000   1.701
   91        0.752   0.928   0.000   1.680
   92        0.778   0.884   0.000   1.662
   93        0.810   0.859   0.000   1.668
   94        0.779   0.927   0.000   1.706
   95        0.754   0.973   0.000   1.728
   96        0.793   0.873   0.000   1.666
   97        0.755   0.897   0.000   1.653
   98        0.794   0.803   0.000   1.597
   99        0.769   0.937   0.000   1.706
  100        0.749   0.971   0.000   1.719
  101        0.747   0.993   0.000   1.740
  102        0.803   0.783   0.000   1.586
  103        0.782   0.906   0.000   1.688
  104        0.766   0.959   0.000   1.724
  105        0.770   0.926   0.000   1.696
  106        0.809   0.873   0.000   1.682
--------------------------------------------------
tot         76.241  72.715   0.000 148.956


 total amount of memory used by VASP MPI-rank0   363218. kBytes
=======================================================================

   base                                    :      30000. kBytes
   nonl-proj                               :      76202. kBytes
   fftplans                                :     108846. kBytes
   grid                                    :      83991. kBytes
   one-center                              :         21. kBytes
   wavefun                                 :      64158. kBytes

  
  
 General timing and accounting informations for this job:
 ========================================================
  
                  Total CPU time used (sec):     6700.667
                            User time (sec):     5956.418
                          System time (sec):      744.249
                         Elapsed time (sec):     6705.409
  
                   Maximum memory used (kb):      634372.
                   Average memory used (kb):          N/A
  
                          Minor page faults:      8946943
                          Major page faults:         1171
                 Voluntary context switches:         3672
