LAMMPS data file via write_data, version 2 Apr 2025, timestep = 6110000, units = metal

1000 atoms
2 atom types

-0.30536410339160724 26.75086718098329 xlo xhi
-0.30536410339160724 26.75086718098329 ylo yhi
-0.30536410339160724 26.75086718098329 zlo zhi

Atom Type Labels

1 H
2 Si

Masses

1 1.00784
2 28.0855

Atoms # atomic

681 2 1.328895955519479 1.9155902990419542 3.6428426610482045 0 0 0
397 2 2.5353989109469177 0.6233479481860942 5.180946010962722 1 1 1
738 2 1.8006898689907858 0.4182022990009785 1.8998931700595105 1 0 0
758 2 4.0377914612329375 3.5443823379392194 2.2866335107745748 1 1 1
373 2 2.3508401963490853 4.086994827730809 3.8317949176287263 0 0 0
737 2 3.9103674469180127 1.227484894123889 1.8143808440910902 0 0 0
716 2 -0.07180417197154912 3.1385323036259405 0.22830369198493528 1 0 1
371 2 4.521202067526415 1.054131881122716 4.030688747803279 1 1 0
577 2 6.504339212237252 3.3968089206799483 2.5635172128605 0 1 0
169 2 7.440502251518715 1.7367796459354055 1.0761446555219039 0 1 0
730 2 7.935110997644639 1.2808892663296636 5.320348157990471 0 0 0
132 2 7.04670613480338 3.310443577210943 4.836757706182997 1 0 0
53 2 4.986776222673681 2.8613832425023538 5.735919994325255 0 0 0
637 2 5.439619592640802 0.9020624081591906 0.11218615776840951 0 1 0
181 2 8.811399063683764 0.049981859876002954 1.9023503802660384 0 0 0
196 2 12.503747063618208 0.9202102892995192 0.41316899903114734 0 0 0
805 2 10.907520789487407 2.616863323554727 3.600485791784991 0 0 0
702 2 11.318006181968284 2.8143436878535133 1.2848076733353537 0 0 0
843 2 9.889960733356025 0.5459754993151659 3.987111280084382 0 1 0
203 2 9.185765321901727 2.9803576271723182 0.09882807376248887 0 0 1
810 2 12.700440798651645 2.657682332730413 5.023795534224299 0 0 1
581 2 12.051348103765696 12.023727500589512 5.417471066132494 -1 0 1
674 2 -0.13214151980065852 7.202716445103757 4.292730181828562 1 0 1
797 2 1.1795867896341354 5.228491246598257 0.7243337871873732 0 1 0
814 2 1.5708743455545335 6.048590649315439 3.0147897317834693 0 0 0
546 2 3.4636169753996557 4.658712600666301 0.4139780986398732 1 1 1
322 2 3.4829549233141988 7.378151831127682 2.9450897104731317 0 1 0
513 2 3.862443194595296 4.734135666780953 5.3549615987982175 0 0 0
944 2 1.7344135834582644 8.369141692075388 0.31322899562419315 1 0 1
85 2 0.6772403298314094 8.348367950375183 6.254736800774551 1 0 0
175 2 4.311135073014827 8.639398826201614 6.214802413185786 0 0 0
830 2 11.581739578332105 8.957423227210356 2.19870245449625 0 0 0
303 2 0.9036187589966755 0.8725495857969727 -0.10742318904292555 1 1 0
508 2 4.517324026662241 6.677965707792014 0.9705810506100934 0 1 0
930 2 6.642753614615698 5.612477917831116 1.6489460753006324 0 0 0
388 2 4.88018292570236 6.851640637439672 4.716067668828618 1 0 1
77 2 7.026969728228684 6.525476737451766 3.828516384827469 0 0 0
625 2 8.170261439744992 5.1887482106095275 5.402158568441412 0 0 0
744 2 10.247708346175001 4.825732402124805 4.3581481958394654 0 0 0
6 1 10.255516082059723 5.744093693113267 3.179806073794367 -1 1 0
472 2 12.10966287031823 4.916184611350782 5.833657909848425 0 0 0
106 2 11.517451751299527 7.078660386767377 0.7140480435492309 0 0 0
932 2 12.410381030888765 4.919533049117156 1.1698992330627649 0 1 1
677 2 12.906168810839699 8.598463849327745 4.063472462548604 0 0 0
107 2 0.2262652421955762 13.098232812825572 2.9863167477700108 1 0 0
13 1 1.2253116509647772 10.702799673455361 2.1276951980339587 0 0 0
354 2 1.393467741531021 10.521361410498317 5.540071399023528 1 0 0
537 2 2.482400937285146 10.205816333285563 1.390603212980223 1 0 1
527 2 2.997315116285461 12.166881877464878 0.3363496639145408 0 0 1
390 2 3.532093936016525 10.648123259257583 5.1773691342650245 0 0 0
899 2 3.76967917787895 9.65779958133723 3.177681230757356 1 0 1
197 2 7.739485381013241 8.650347184968261 3.812985291563926 0 0 0
788 2 4.743096006158294 12.54199910440397 5.181417387467461 0 0 0
770 2 6.628151274177019 12.003997695541543 4.064508462949887 0 0 0
663 2 6.017439763741497 10.00841065339025 2.8328292462665745 0 0 0
579 2 6.226714741463189 10.148703292284495 0.4678462124779633 1 0 1
526 2 8.29208590096819 11.653358191544678 5.593789282323178 0 0 0
424 2 8.070159448666574 9.447120047239919 5.946418661514124 0 0 0
835 2 8.601316300391709 10.226379050201757 0.4481846132577725 0 0 0
145 2 9.466214970394274 9.728941148940548 2.6334790920800772 0 0 0
55 2 12.593174407276726 10.93854542596219 1.188429533167922 0 0 0
333 2 10.124850321444676 11.46401104265487 4.202788886162653 0 1 0
82 2 12.217241990548645 9.692183754283215 6.052552016606362 0 0 0
951 2 11.067669157482763 12.835515715628803 0.782626925256336 0 0 1
61 2 13.161013867937767 0.7713236928668821 6.278786294188749 0 1 0
163 2 8.182833095220772 5.045724779770409 -0.06656399316412151 0 0 0
96 2 2.174319510640253 1.5831516941542014 7.34383276382702 1 0 0
376 2 1.1810800587178614 3.36497396895009 10.178572481176676 0 1 0
891 2 1.446448296498453 3.738628201346696 7.874432530873287 0 0 0
985 2 3.2763185455650707 2.592566652262058 11.065440647549757 1 1 0
536 2 2.9116176504943456 0.5380583241261777 11.988914351400338 0 0 0
926 2 0.7043663900119792 0.29545970576989056 12.535702961476268 0 1 0
291 2 4.558728000183591 1.4222946356513402 7.64168206008074 1 1 0
62 2 4.831560624299296 3.0115190266501055 9.42295058430576 0 1 0
948 2 6.585723205033413 1.1363681692630196 10.919395796740268 0 1 0
992 2 6.995831955826165 3.161262130324983 10.27102687643705 0 0 0
434 2 7.605276658610113 0.18028662235977777 9.185709747060642 0 1 0
611 2 8.713175283408356 3.3519839342945548 8.596697155080724 0 0 0
937 2 8.633956331685624 1.3511343267195206 7.581291257043884 1 0 0
968 2 9.628910305786128 0.43085501109800706 12.862299089026719 0 0 0
710 2 11.392327678150409 1.0242719852551383 9.99483594466926 0 0 0
263 2 10.536340132935013 3.148968656063942 10.122005347243052 0 0 0
905 2 10.045784970102307 2.6631060130681745 12.444574554657914 1 0 0
234 2 11.174577337775483 0.6161368521092043 7.658784851851018 0 0 0
504 2 2.821217886318571 5.5117970904003695 7.240898361656626 0 0 0
670 2 1.3990038511711909 5.377379919246692 11.26798467332906 0 0 1
184 2 2.587998014579965 7.925196714247505 7.43494154915807 0 0 0
113 2 3.686451211158273 6.028557026144826 10.942460327492078 0 0 0
811 2 3.6694029662721377 8.333588541535867 11.402362553370935 0 0 0
319 2 4.460991124734574 5.446482821798135 8.819055494788888 0 0 0
516 2 4.931386556650831 5.299514216487133 12.766080586450602 0 0 0
996 2 6.893430148711796 4.973099285053077 11.623263893944838 0 0 0
553 2 6.560327590937868 6.714977171152315 8.497394695657617 1 0 0
801 2 7.431329738324331 7.039822094847742 10.685081058478868 0 1 0
187 2 8.361475949913043 5.5774152792310545 7.643557227715918 1 0 0
225 2 12.363949378121742 4.227005714140987 9.66782022239621 0 0 1
115 2 12.819259197430688 8.021476156804633 12.847193310077033 0 0 0
420 2 10.09113928449148 7.0137585720205555 8.118080641991643 0 0 1
86 2 11.032232457337155 6.48512958708927 12.242659069271975 0 0 0
601 2 9.715152507486787 7.528194459001394 10.486909542204183 0 1 0
318 2 12.167284552956929 5.792309891265002 7.963418974698083 1 0 0
324 2 12.760131945330809 4.987239308245001 11.958984223619453 0 0 0
242 2 1.5435510843204139 12.927004659744219 11.01053341960132 0 1 1
791 2 8.345055083229697 4.012993608003538 13.165729695589155 0 0 0
583 2 2.355438887705693 8.967493093154555 9.619272118152095 0 0 0
599 2 2.063067569118834 11.276224292010989 9.448540075721837 0 0 0
525 2 0.920344298778343 11.872274950369782 7.493352457680268 1 0 0
534 2 6.258694881011463 8.898350967035027 7.330059832793546 1 0 0
666 2 7.365072637077468 9.547353158273154 13.176505113587051 0 0 0
853 2 4.370628550953728 12.179189498330507 8.992209075569187 0 0 0
877 2 6.016688610792769 8.817001373431424 11.324558726993805 0 1 0
473 2 7.97184824819683 11.767585481398653 9.004965943529182 0 0 0
708 2 6.130310367151457 10.389596449259095 9.239787018738884 0 0 0
679 2 8.63209289207143 12.525766195095386 11.111128517684348 0 0 0
160 2 10.14248592565155 8.967990913891132 6.993549829672402 0 0 1
633 2 10.637055147513419 9.739172640171974 10.759626267794047 0 0 0
998 2 10.894620205233467 12.499033537513117 7.386895205248487 0 0 0
57 2 10.036543580882832 10.515772792682942 8.748574372432845 0 0 0
298 2 9.1974304011374 10.740215078247264 12.310975654150583 0 -1 0
746 2 12.906025268852657 9.881933623816124 11.318590042999094 0 1 0
157 2 7.524466926921692 0.6406155223596463 12.959080533340886 0 1 0
813 2 0.030400560889642658 8.986847302387766 10.069117279951728 1 0 0
91 2 8.71844266374421 13.180728312455637 7.268299781807054 0 0 0
227 2 0.9292905140509995 1.4595148486507021 16.15183953552385 1 1 0
123 2 1.9815775166632124 2.8980838767850527 17.637231444773708 0 0 0
455 2 3.9383935966799024 3.605209525180177 16.630304420864974 0 0 0
331 2 4.029746230963655 0.3966262524406803 14.13535361554379 1 1 0
475 2 0.4371763543164525 2.141499391107801 13.7852360612058 1 0 0
436 2 13.000922947316573 8.782494149660849 14.961316961447045 0 0 0
523 2 8.366873236816913 3.5692662393852292 19.92827103712018 0 0 0
144 2 9.966297016675142 -0.17164061855127746 15.09684203341654 0 0 0
925 2 1.3521334723899636 4.218930984264976 13.271337167177336 0 0 0
709 2 8.798838644857153 13.130723067545842 15.15863550040822 0 0 0
608 2 4.813363158329119 2.308296661766206 15.014465371962812 0 0 0
393 2 7.167659051222126 2.399249800913371 14.47337268230126 0 1 0
117 2 7.36929122682261 0.7823552010470503 17.749122226538624 0 1 0
639 2 6.454465404642483 2.2622464359819836 19.365741387742588 0 0 0
289 2 5.043325368064835 3.9294404062983093 18.675115847231204 0 0 0
44 1 7.285044181512634 3.629075446953694 15.923545985727209 1 0 -2
656 2 9.197788550656274 8.953530919124034 16.118171025434645 0 0 0
248 2 6.687151232819397 13.08292604323234 14.247564979275133 0 0 0
628 2 8.643162396755313 1.5447143559746936 15.98653310328671 0 0 -1
586 2 10.330890779592597 3.0479699135665865 16.4598448479211 0 1 0
357 2 10.375175683559666 2.873932762327026 18.96390239535134 0 0 0
697 2 12.48377972563349 2.4623412665417495 15.935141396748637 0 1 0
975 2 12.374585716676927 0.14089000344020658 15.657080717665584 0 0 -1
562 2 12.295901505142407 2.9951587057888394 13.462868577289244 0 1 0
630 2 11.476696227672864 10.948599790816319 17.87098434017275 0 0 0
274 2 11.076799876844094 10.144951972407455 15.675666030981947 0 0 0
718 2 2.796730201989967 8.356317247028674 13.608010854916506 0 0 0
962 2 0.5089744273682697 4.788222815433681 17.859966996778702 0 1 0
517 2 1.2696358796679814 6.230937053965086 16.366469529299632 0 0 0
820 2 3.5094890849565235 5.890860354699771 16.469157346388833 1 0 0
676 2 -0.028001713258242966 5.7247466816072485 14.416874019363664 1 0 0
964 2 0.8849943303749479 8.589668396195533 16.640837313871614 1 0 0
168 2 9.624824665082787 12.051291520586357 18.81849038706798 0 0 0
993 2 4.047262744415207 7.566713024285403 18.017040212509368 0 0 0
104 2 3.5902158227659235 3.563375814596727 13.245728005376206 1 0 1
955 2 11.071112297292728 9.229988943621684 19.386847272230433 0 1 -1
66 2 4.373569010983881 6.694475112979843 14.55334717907076 0 0 0
278 2 7.597399711398056 4.985250346741216 16.534220375038483 0 0 0
622 2 7.0653639478616 5.133295143658981 18.74386950763647 0 0 0
155 2 6.49843138675883 6.900289777163038 15.731334770598693 0 0 0
635 2 7.90224134626072 7.2618308818521315 19.21789996642227 1 0 0
337 2 8.184065990919382 7.815291258351353 14.476599969381047 0 0 0
695 2 6.391134914353765 8.249337453522521 17.81853320953288 1 0 0
687 2 12.034960366063455 4.653241298238932 18.832717542731388 0 1 0
52 2 9.870543710070535 5.215811193007279 15.850557947777439 0 0 0
587 2 9.8866644369133 7.8410281411430365 18.15121579131121 0 0 0
58 2 11.440768955957399 6.222939429293203 17.259195648008987 0 1 0
727 2 9.362298591142629 5.936214266859659 13.747554000754501 0 0 0
22 1 0.04876484925368457 10.889329775340318 14.362600470148553 0 0 0
564 2 -0.03884033953365357 8.95718772653686 18.841276422480576 1 0 0
138 2 2.9204071697791534 12.360232600544856 14.486715870284126 0 0 0
761 2 3.182251855532503 9.49384888230237 16.899246523887964 1 0 0
589 2 3.1370847245922096 10.790558345574476 18.916436640815622 0 0 0
161 2 0.6419371685299585 12.517981413433644 15.030767189769026 0 0 0
447 2 0.189369954109957 12.57772509031178 17.286505418438697 1 0 0
122 2 3.757621804479151 10.296393807237177 14.75590740922812 1 0 1
209 2 2.3502218702561644 12.849900822309195 18.12544335517709 1 0 0
653 2 0.38235570737168234 7.747898748305959 13.484514386709197 1 0 0
35 1 6.273623144144696 11.060118384812737 19.49674574463263 0 0 -1
632 2 7.94638872095142 12.555306218025116 17.3417479318617 0 0 0
244 2 6.009401254889443 10.79805827848107 14.646507778557627 1 0 0
845 2 7.153309912366702 10.331962983174245 16.683759805309077 0 1 0
198 2 10.251560346955015 11.801613979619571 14.047155486607748 0 0 0
543 2 1.5997288786280033 5.696607148946303 19.713033338578413 0 0 0
754 2 10.769849334208752 0.7016031886579286 19.87052089293623 0 0 0
38 1 8.851616614655631 11.053644243606595 19.761610716047535 2 1 -1
379 2 2.3972066606376 1.2077599437071835 24.982877134893087 0 0 0
497 2 1.2947502934039177 2.8863964837875464 23.61144764699026 1 1 0
288 2 0.12149563970751137 2.245538839251783 21.4101680556199 1 0 0
945 2 3.284292630723518 4.143687435854524 20.279472546912498 1 0 0
154 2 3.4379402732160274 0.37277164307947575 20.072051688569218 1 1 0
277 2 10.406630606844129 9.302668973436354 24.122120008408945 0 0 0
226 2 4.529862093986567 1.9241618594980743 25.262807447365184 1 0 0
139 2 5.8477782107167915 1.641623991256391 23.392412224810315 0 1 0
264 2 5.6885078373316516 0.8675638694328658 21.012608821682853 1 0 0
326 2 7.764316993428972 0.6653316101659527 24.265983386254703 0 0 -1
459 2 6.625096169421113 4.026891136972776 22.983058559364864 0 0 -1
500 2 8.634549893745195 4.179873984830506 22.03741396439826 0 0 0
545 2 9.543311721402802 1.878638217887831 25.10956199850767 0 0 0
915 2 10.409312943528775 2.885456638158061 23.273272631397564 0 1 0
574 2 10.802590371337782 0.7436375280018244 22.224473253749043 0 0 -1
305 2 11.023697152990362 0.2683004684452591 25.86563684373162 0 0 -1
771 2 9.041715913486787 12.336913548136915 26.520121010048157 0 0 -1
741 2 2.8546736700933284 4.726893727550699 23.748254076968554 1 1 0
799 2 0.22131765056165154 7.270632996832749 23.146635670835217 0 0 0
884 2 2.4250361178345967 7.119849527993237 23.74264876293607 1 0 0
491 2 5.2768073870376915 12.155260404332182 26.61982056162647 0 0 -1
624 2 2.8300528267225267 8.677757341955045 25.420692912722103 1 0 -1
41 1 11.746860002675836 11.8409190443297 24.896186425648064 0 -1 -2
185 2 4.395150928334111 4.2322433680177065 25.494255965894116 0 0 -1
703 2 4.291261131201823 7.365631651015884 22.0819242368439 0 0 0
883 2 4.532267828428285 4.998271320088689 21.99893945829108 0 0 -1
158 2 6.595758040996224 5.197694746272382 25.105068378365395 0 0 0
806 2 6.710096940567689 7.433816957281068 24.82827154723244 0 0 0
691 2 8.310982715644856 7.821367053543527 21.421614925089838 0 0 0
201 2 5.077741937673517 8.356497227968786 26.420774101492505 0 0 0
56 2 6.49253160620378 8.408235341852963 22.77219566233507 1 0 -1
979 2 12.225039886183044 4.293393349573169 24.284813441984937 0 1 -1
798 2 12.780608834134934 7.998115630566343 20.239913961994613 0 0 0
573 2 9.91494786639593 6.164536988289156 22.057074338367826 0 0 0
745 2 10.776567593856829 6.278798789294659 24.215296899341364 0 0 -1
401 2 11.950869249924413 5.909171689331485 20.83420089981184 0 0 0
963 2 12.274227670269442 7.929057599167971 23.92194789645527 0 0 0
162 2 9.76092114720645 6.719047996898321 26.26379440677858 0 0 0
290 2 10.325659380681202 11.078762728638655 22.702544693871552 0 0 0
228 2 12.949562505390507 7.950660474005927 26.070194675656747 0 0 -1
972 2 1.4044330355442773 12.01642209648026 25.785821539927667 0 0 0
879 2 2.652384233822818 10.66510071738647 24.195452347917183 0 0 0
301 2 1.246012465926526 10.846651190922454 22.337673084458444 1 0 -1
386 2 0.6650636924130358 13.115737590596181 21.442874462701443 0 0 -1
521 2 12.712358015065218 13.01810954781038 24.897893596759676 0 0 -1
45 1 4.866827167958997 9.963270500034175 21.007153796161763 1 1 1
366 2 4.874461897818454 11.744434324872405 24.42038421525315 1 0 0
40 1 6.403058710518994 11.37796855708584 21.893190447595867 -1 1 0
939 2 6.639944659946971 10.70551990263661 23.28511420130991 0 0 -1
548 2 8.646785584679098 11.997921357184852 24.09090788834133 0 0 0
172 2 8.795667028734846 8.634743539824735 25.757756193550296 0 0 0
126 2 9.343054644054577 9.847912536438884 20.89195984354908 0 0 0
458 2 11.710749956217104 12.635266631848882 21.69787356360614 0 0 0
900 2 1.779026030980066 9.526365616153512 20.2672211662238 0 0 0
724 2 -0.18665396460205036 5.912399704146692 21.19973634947728 1 1 0
159 2 3.0368828948105873 7.586972269192657 20.189058393963986 0 0 0
236 2 4.941537995077861 11.135918426680583 20.229125647373905 0 0 0
99 2 4.301481558877684 13.200757161024148 20.975926043283273 1 0 0
7 1 0.9825310152753579 5.879409574307614 26.339239632714534 1 -1 -1
782 2 1.9813342002267955 2.1681235761062374 19.98688613732943 1 0 -1
910 2 2.375293164665634 15.589934632001528 0.7642145552304631 1 0 0
519 2 2.706418737420639 15.991105537136932 4.4017859262034875 0 0 1
544 2 0.7888803306703593 15.478898730637823 5.69406331916237 1 0 0
412 2 2.349803830607645 13.502447798853764 2.0943725240834916 0 0 1
995 2 3.8743129649350907 14.136247295099242 3.6311897053529063 1 0 1
90 2 2.549205329219578 17.330918795231725 2.5633359806221074 1 0 0
28 1 0.3043093223611061 17.022375331839555 2.825870910262787 1 0 1
200 2 12.838776628261492 22.63632374050626 3.994717762155421 0 0 0
429 2 4.309432108785492 17.037952598677936 5.915937040398835 1 0 1
493 2 5.7074259683508375 14.93817195319451 2.2064506154343135 0 1 1
254 2 7.501240763207688 13.907169912189646 3.1461532391356375 0 0 1
980 2 8.04221903157869 15.738184847102794 4.495881414353005 0 -1 0
699 2 6.317895161214629 17.225474971192885 1.9476359624413475 0 0 1
912 2 5.846428964942289 14.269429083509392 0.06754989928741717 0 0 0
205 2 7.374408549335954 17.50018220858606 -0.21032782468655886 0 -1 1
826 2 9.355209714327259 16.295663679111325 0.12825793414047887 0 0 1
73 2 10.26173555597853 15.484775409193198 3.8056945397343576 0 0 0
153 2 11.811954166674981 15.694824758875466 5.484077293945205 0 0 0
302 2 10.552531183807563 17.141176783168945 2.1389003561239415 0 0 0
247 2 13.025705839003644 17.642334047568283 1.9903091836519322 0 -1 1
251 2 9.749307116314595 13.351582866644652 2.6280616641353656 0 0 1
451 2 8.758729170320098 24.08493179455619 3.518147290927197 0 -1 0
861 2 1.759469297828244 19.307267735713758 6.037639104463783 0 0 0
285 2 2.169306561002063 19.337333508158345 3.7678912095893455 1 0 0
692 2 1.014757783208622 20.94286893624135 2.5361263374394416 1 0 0
531 2 4.360517739620072 20.31983481107086 0.15472717309538103 0 -1 0
148 2 2.6585987379794025 22.014566316661252 0.7711098302625261 0 0 0
368 2 0.1460725620708268 22.256062726361122 4.501359415006563 1 -1 1
224 2 9.109456700671007 22.822933950362685 1.541777285609534 0 -1 0
293 2 7.644011957216111 18.026909220808594 3.8868425213295366 0 0 0
498 2 4.449010784364798 20.182232498092084 3.8116894437611775 0 0 1
221 2 4.601437983390754 18.74667332733365 1.9447918406666753 0 0 1
812 2 5.598512860339929 18.681669831841525 5.100083595649129 0 -1 0
923 2 6.3492723989654305 22.00542786352161 3.634236510969472 0 0 0
700 2 9.800458431745442 20.48179134925899 1.6242408170110212 1 0 0
906 2 12.044497497097298 20.794967552656477 0.7373273426309468 0 0 0
406 2 9.650195193804631 18.913386976484524 3.3195086290976317 0 0 1
555 2 11.25086480748043 19.320261754270106 5.092390946501759 0 0 0
774 2 10.932124775757243 21.59973301758327 5.401787940871707 0 0 0
675 2 3.927395948699262 24.187044761453034 6.1003966265475915 0 0 0
307 2 1.6947350794762923 25.100724470614797 2.3346971030912615 1 0 0
715 2 0.7034700562708074 24.45018268086479 4.320082185243582 1 -1 1
396 2 3.458905618264021 23.71954929330497 2.2042122799995942 0 0 0
749 2 2.1290688560405684 25.533808419654765 5.761153401627615 0 -1 0
943 2 4.208384287156438 22.71135781441883 4.218086716863156 0 0 0
382 2 6.059968053108475 25.149710125765296 6.34168351750103 0 -1 0
595 2 8.342547301052523 22.250479499318843 5.100303952484538 0 0 0
859 2 6.877710701586185 22.619393893935115 1.303014149923988 0 -1 0
683 2 7.219252123217378 25.53560075834927 2.7331426352138104 0 0 0
241 2 5.63442267449457 24.47835003637676 1.274512580514177 0 0 0
454 2 8.41295691195814 19.551875897068523 -0.11707586057413885 1 -1 0
591 2 12.688951045293487 24.970377712652873 3.5130491150757632 0 0 0
81 2 9.473928021485234 25.96821890832955 -0.11080016417091282 0 0 1
189 2 10.529807089642695 25.379662721003236 4.48394092607801 0 -1 0
140 2 -0.0931908712523001 17.550978492760265 6.445697426191618 0 0 0
173 2 6.395396279594405 26.65340498468176 4.558437348412278 0 -1 1
50 1 11.597806159327641 14.600021961422701 6.398616937369873 0 -1 0
395 2 0.6882237905687284 14.618190787406112 9.430360962387375 0 0 0
269 2 1.709044003996247 14.14600295805039 7.331135662453709 1 0 1
124 2 0.9334099807163132 16.865168737429304 10.10517246619927 0 -1 0
216 2 3.181656746212999 13.30461535978704 12.32595597159582 0 1 0
860 2 1.6046780822757016 17.016849886421834 12.43723434375695 0 0 0
610 2 3.0178431234612453 17.427231038986232 9.203558404976157 1 0 0
147 2 4.187786246202078 13.642510438265552 7.152697914409435 1 0 1
370 2 4.8355341569836146 13.784312249411235 10.686158176469016 0 0 0
865 2 4.862126105513702 15.94973154203883 9.623814339985335 0 0 0
557 2 7.81843859300313 15.77718276093184 11.910701591811344 0 0 0
433 2 5.496860563123558 15.55867791405165 7.297160269403331 0 0 0
338 2 6.428194638298355 17.33079490230368 10.57037725853578 0 0 0
757 2 6.7641943900801165 13.703515683922861 12.02330239338586 0 0 0
287 2 7.832509108481354 15.28849698390598 6.766356423808158 0 0 1
827 2 9.18406773656088 16.987878392468147 7.961587177487997 0 0 0
983 2 10.531712432884355 13.88308203305224 10.747896729606111 0 0 0
636 2 9.68874991636227 16.041392653152485 10.45366369604501 0 0 0
894 2 12.24149625828977 13.621213640750199 8.903402299770516 0 0 0
871 2 12.61386002345757 16.612099498043026 12.869564220238189 0 0 0
530 2 11.279788108136698 17.658816820741446 6.812477903286635 0 0 1
585 2 10.936480055996148 17.696068847731535 11.595023756310049 0 0 0
698 2 -0.08361080769669069 18.846938755857785 10.313315762547797 1 0 0
237 2 2.8563300203035458 18.791792920305767 11.32123658809636 0 -1 0
751 2 1.69497442319958 20.548786855794383 10.54285158883229 1 0 0
693 2 3.5711878775674712 18.73257172415108 7.45797922479566 1 0 0
815 2 1.9691777850233692 21.922529908142376 8.596683388397508 1 0 0
863 2 0.8101580089594678 26.740760441301607 7.332923394290141 0 0 0
766 2 6.075381850445776 20.573105879948628 12.073100997769885 0 -1 0
694 2 5.117584627467115 18.5474160641868 11.835101864572394 0 0 0
243 2 5.785042891035886 19.463163850131167 7.272143800004714 0 -1 0
922 2 7.532647529406825 18.512284067466666 8.700072614738994 0 0 0
495 2 5.862659370927556 21.753721986862967 7.959632505438247 0 0 0
399 2 6.6379225290545 21.82494873842723 10.224629688339808 0 0 0
851 2 8.359385354732638 20.312928228905424 12.228504367146986 1 0 0
489 2 8.642732274524977 20.501029439644537 9.822739752683471 0 0 0
706 2 10.003248110168496 22.339782189280946 9.128068927001781 0 0 0
315 2 12.881662642643143 17.968191552532566 8.504346971270682 0 0 0
48 1 10.607238578084765 19.698837482383997 9.459755945731851 -1 -1 -1
790 2 11.790744673883179 19.30519486607068 10.135216714854595 0 0 0
667 2 12.635243500299161 21.281337212918054 11.32529730149469 0 0 0
64 2 11.931624451201943 22.16295156670961 7.355692420937635 0 0 0
655 2 9.621954654216962 22.11073002725779 13.029029444095114 0 0 0
70 2 0.8144174001381324 22.44988766955873 11.54384995874172 0 0 0
400 2 0.329583358262841 23.444043572004563 9.510245820398428 1 0 0
466 2 3.014857538531916 25.632295347163517 10.889638030462601 0 -1 0
783 2 0.9510168091853364 25.75810542020104 9.613275985109375 1 -1 0
392 2 2.2509769654506586 24.097468499986885 12.514123227186339 1 -1 0
83 2 3.9149319927371327 23.050994957129962 8.180602160618562 0 -1 1
311 2 10.947098691208641 22.630815337705048 11.160514293079633 0 0 0
913 2 4.737195263097971 24.832856765008366 9.650921675114738 0 0 0
59 2 6.774749662759066 24.153515003724554 10.769773213802832 0 -1 0
841 2 8.676824284326758 25.4034104193778 9.975080644766278 0 0 0
640 2 7.343524960448793 23.25467654780797 6.902113136955372 0 -1 0
206 2 5.732285370872483 26.461364643473082 8.13238718748853 0 -1 0
954 2 10.558168855506572 26.19015993622956 11.301081934044198 0 0 1
649 2 10.590547484508548 25.576281347845686 6.824193675393501 0 0 0
690 2 9.136223168132162 24.18214744855978 8.09303631206412 0 -1 0
355 2 12.508129417111116 24.41110978992958 7.199871720792529 0 0 0
335 2 12.235902134756957 24.764813475833915 11.36575618351918 0 0 0
183 2 0.6185788169238599 21.233235749333133 6.597193670487876 0 0 0
511 2 11.646646073892388 13.249484271936455 12.937136231577544 0 0 0
623 2 6.017275174113521 24.234286614535456 13.016256240261884 0 -1 0
135 2 2.2545368497755387 15.281151729891544 15.640617553548879 0 0 0
901 2 2.499685334213373 16.95367664596541 17.171362407660308 1 0 0
34 1 0.856233423100959 14.539512639186295 15.598572057345349 2 0 0
931 2 3.7300980576088936 13.591369164427434 16.280679576493306 1 0 0
707 2 2.647895093809649 16.147114037895452 19.319012421190138 0 0 0
902 2 3.12486497024167 15.540156743463914 13.43943333827832 0 0 0
785 2 6.192588398432906 16.83073061829105 15.151903557163294 0 0 0
283 2 7.781243754449823 16.733040865029054 18.30540305976949 0 0 0
231 2 5.676509181366883 14.569514111037668 15.730604603234834 0 0 0
284 2 6.683357367023353 14.54034233752124 17.92587166563779 0 0 0
597 2 8.160022264522649 16.679512825008803 13.91583703380361 0 0 0
453 2 4.435015007254677 17.464960745193423 13.77728799209033 0 0 0
462 2 11.43232359390126 15.487501811437154 18.84140957585876 0 0 0
760 2 9.911363544683258 16.525285642057597 17.473342325253974 0 0 0
361 2 9.662794917112196 15.384022065543043 15.295126077576386 0 0 0
735 2 11.800137353005612 15.04082346625428 14.375144689272176 0 -1 0
410 2 12.768575996216297 26.59924195221886 19.61412529468108 0 -1 0
614 2 0.3475264361373156 17.77552256258374 17.2355586148358 0 0 0
377 2 1.6596208847551226 20.85616109808786 18.69453679601206 1 0 0
358 2 1.2814859355657653 20.229703850382602 14.842669736971065 0 -1 0
668 2 3.5310311087499833 19.342704825343233 14.902263904682622 0 0 0
405 2 0.2589148077472476 19.134096528961635 19.045637976286617 0 0 0
885 2 1.2356441812359766 21.988608536354466 16.523473352889436 0 0 0
32 1 0.9674994473964764 20.79097944851537 13.470638024952956 0 -1 0
450 2 4.055413679231716 20.702116097438577 18.42285892647355 0 0 0
742 2 4.016735831465859 18.85392220211784 17.084362662058066 0 0 0
188 2 6.352356118709872 18.068026109410223 17.031571405986476 0 0 0
743 2 4.900458812610353 21.078761481755922 14.03555076251606 0 0 -1
559 2 7.920676057870576 19.762162053828902 16.582321246074738 0 0 0
514 2 6.704571318603448 21.601735516805018 15.590356837194474 1 0 0
54 2 8.873269893607041 20.521014335788497 18.708395674794144 1 0 0
571 2 11.335245099115543 18.493568425403236 16.850122702140656 0 0 0
825 2 11.08027560581905 19.282882546795214 19.006287164635513 0 0 0
296 2 9.944481278304705 19.538653462784023 15.38329807046769 0 0 0
89 2 11.021448768644854 21.469995706571357 14.66126564500415 0 0 0
888 2 12.907376517578637 20.647855100920776 13.565208574359165 0 -1 0
538 2 9.337253072631253 18.597093019795988 13.285736797190525 0 0 0
999 2 12.550212157231776 20.73643758026726 19.93106283053762 0 0 0
938 2 2.588590114592919 25.292586438521443 17.109257136088065 1 0 0
419 2 3.0655815776282456 23.32128674727449 16.04853803873768 0 0 0
129 2 1.0395086176557462 25.56080166346769 13.832193417538994 1 0 0
867 2 0.29444906724711783 25.2431152242296 17.79122487570306 0 0 0
374 2 3.961011138964648 23.230519308204986 14.031475929816313 0 0 0
763 2 3.8216531363529267 25.27298070314465 18.97068961551735 0 0 -1
136 2 6.190030798595938 26.193561278993037 16.521576981964955 0 -1 0
535 2 5.010697718491434 22.421089927899306 17.072350159169325 0 0 0
612 2 7.8430527492479705 23.15188061898252 14.106465935583989 0 0 0
646 2 6.068992345870106 24.327968420500003 18.146948182975116 0 -1 0
78 2 6.097600743640569 26.280119867728953 14.19541088128322 0 -1 0
650 2 8.586462851881926 24.570838490434458 17.751560492396976 0 0 0
360 2 12.76064430940723 23.72100276494218 17.317668781428658 0 -1 -1
772 2 9.139623298080007 24.643233955642017 15.54932211631475 0 -1 0
918 2 8.846975724377252 26.578661444763565 18.948871211968193 0 0 0
1 1 12.142010060775126 24.482116193367656 14.706680700702329 1 0 1
928 2 11.825128724319555 22.897153276878328 19.45463438994355 0 0 0
781 2 11.241485608100207 23.598391844291843 15.544527453824804 0 -1 0
76 2 9.602713730413075 22.817638214986104 19.042193205546468 0 0 0
643 2 2.285767332872722 26.71711634013318 15.404543470215089 0 -1 0
30 1 4.785464509171232 26.647013415864002 16.873899776832978 1 0 -1
876 2 3.002582549383135 14.778375955724682 24.376060509632794 0 0 0
448 2 0.8619811666889057 14.056661835464375 24.78913670653473 1 0 0
615 2 2.7457528604641377 16.653195764244533 23.036739920059873 1 0 -1
664 2 0.4855773675908994 17.170139460915596 22.290332951541597 1 0 0
191 2 3.911198802553618 16.987247749664373 21.025211903279228 0 0 0
510 2 0.3833771730268388 15.578866317657527 26.544052921971108 0 0 -1
794 2 4.186706828009264 15.52514462756766 26.273840710971005 1 0 0
541 2 6.040317967729378 14.210148451094597 20.107506360119928 0 0 0
600 2 0.6118973737587053 17.076393576084868 20.026911714205077 0 0 0
652 2 4.631494539645096 13.643383626031632 23.218191394565586 0 0 0
270 2 6.078712827830023 16.23514883121218 21.229859387165252 0 0 0
551 2 6.289209560525521 15.155972917123414 23.355064431238095 0 0 0