 vasp.6.5.0 16Dec24 (build Jan 20 2025 08:32:48) complex                         
 executed on        HPECrayEX_GCC date 2025.07.22  04:53:20
 running  128 mpi-ranks, with    1 threads/rank, on    1 nodes
 distrk:  each k-point on  128 cores,    1 groups
 distr:  one band on NCORE=  16 cores,    8 groups


--------------------------------------------------------------------------------------------------------


 INCAR:
   SYSTEM = a-Si SPC
   NCORE = 16
   ISTART = 1
   ICHARG = 1
   ISPIN = 1
   ISYM = 1
   EDIFF = 1E-6
   NELM = 150
   EDIFFG = -0.01
   NSW = 0
   ISIF = 2
   IBRION = -1
   PREC = Accurate
   ENCUT = 1200
   KSPACING = 0.23
   KGAMMA = .TRUE.
   METAGGA = SCAN
   LASPH = .TRUE.
   LDIAG = .FALSE.
   LMIXTAU = .TRUE.
   ADDGRID = .TRUE.
   ALGO = Normal
   ISMEAR = 0
   SIGMA = 0.1
   LORBIT = 11
   NEDOS = 2000
   LWAVE = .FALSE.
   LCHARG = .FALSE.

 POTCAR:    PAW_PBE H 15Jun2001                   
 POTCAR:    PAW_PBE Si 05Jan2001                  
 POTCAR:    PAW_PBE H 15Jun2001                   
   SHA256 =  030f79b5d3ab3cf0e668861823c8fb652ff669f3e15e46930bd03bfd63a607b6 H/POTCAR              
   COPYR  = (c) Copyright 15Jun2001 Georg Kresse                                                    
   COPYR  = This file is part of the software VASP. Any use, copying, and all other rights are regul
   COPYR  = If you do not have a valid VASP license, you may not use, copy or distribute this file. 
   VRHFIN =H: ultrasoft test                                                                        
   LEXCH  = PE                                                                                      
   EATOM  =    12.4884 eV,    0.9179 Ry                                                             
                                                                                                    
   TITEL  = PAW_PBE H 15Jun2001                                                                     
   LULTRA =        F    use ultrasoft PP ?                                                          
   IUNSCR =        0    unscreen: 0-lin 1-nonlin 2-no                                               
   RPACOR =    0.000    partial core radius                                                         
   POMASS =    1.000; ZVAL   =    1.000    mass and valenz                                          
   RCORE  =    1.100    outmost cutoff radius                                                       
   RWIGS  =    0.700; RWIGS  =    0.370    wigner-seitz radius (au A)                               
   ENMAX  =  250.000; ENMIN  =  200.000 eV                                                          
   RCLOC  =    0.701    cutoff for local pot                                                        
   LCOR   =        T    correct aug charges                                                         
   LPAW   =        T    paw PP                                                                      
   EAUG   =  400.000                                                                                
   RMAX   =    1.123    core radius for proj-oper                                                   
   RAUG   =    1.200    factor for augmentation sphere                                              
   RDEP   =    1.112    radius for radial grids                                                     
   RDEPT  =    0.926    core radius for aug-charge                                                  
                                                                                                    
   Atomic configuration                                                                             
    2 entries                                                                                       
     n  l   j            E        occ.                                                              
     1  0  0.50        -6.4927   1.0000                                                             
     2  1  0.50        -3.4015   0.0000                                                             
   Description                                                                                      
     l       E           TYP  RCUT    TYP  RCUT                                                     
     0     -6.4927494     23  1.100                                                                 
     0      6.8029130     23  1.100                                                                 
     1     -4.0817478     23  1.100                                                                 
  local pseudopotential read in
  atomic valenz-charges read in
  non local Contribution for L=           0  read in
    real space projection operators read in
  non local Contribution for L=           0  read in
    real space projection operators read in
  non local Contribution for L=           1  read in
    real space projection operators read in
    PAW grid and wavefunctions read in

   number of l-projection  operators is LMAX  =           3
   number of lm-projection operators is LMMAX =           5

 POTCAR:    PAW_PBE Si 05Jan2001                  
   SHA256 =  79d9987ad8750f624c4d6acb2a16d13abf6a777132adc04dc6c8399be72b42bb Si/POTCAR             
   COPYR  = (c) Copyright 05Jan2001 Georg Kresse                                                    
   COPYR  = This file is part of the software VASP. Any use, copying, and all other rights are regul
   COPYR  = If you do not have a valid VASP license, you may not use, copy or distribute this file. 
   VRHFIN =Si: s2p2                                                                                 
   LEXCH  = PE                                                                                      
   EATOM  =   103.0669 eV,    7.5752 Ry                                                             
                                                                                                    
   TITEL  = PAW_PBE Si 05Jan2001                                                                    
   LULTRA =        F    use ultrasoft PP ?                                                          
   IUNSCR =        1    unscreen: 0-lin 1-nonlin 2-no                                               
   RPACOR =    1.500    partial core radius                                                         
   POMASS =   28.085; ZVAL   =    4.000    mass and valenz                                          
   RCORE  =    1.900    outmost cutoff radius                                                       
   RWIGS  =    2.480; RWIGS  =    1.312    wigner-seitz radius (au A)                               
   ENMAX  =  245.345; ENMIN  =  184.009 eV                                                          
   ICORE  =        2    local potential                                                             
   LCOR   =        T    correct aug charges                                                         
   LPAW   =        T    paw PP                                                                      
   EAUG   =  322.069                                                                                
   DEXC   =    0.000                                                                                
   RMAX   =    1.950    core radius for proj-oper                                                   
   RAUG   =    1.300    factor for augmentation sphere                                              
   RDEP   =    1.993    radius for radial grids                                                     
   RDEPT  =    1.837    core radius for aug-charge                                                  
                                                                                                    
   Atomic configuration                                                                             
    6 entries                                                                                       
     n  l   j            E        occ.                                                              
     1  0  0.50     -1785.8828   2.0000                                                             
     2  0  0.50      -139.4969   2.0000                                                             
     2  1  1.50       -95.5546   6.0000                                                             
     3  0  0.50       -10.8127   2.0000                                                             
     3  1  0.50        -4.0811   2.0000                                                             
     3  2  1.50        -4.0817   0.0000                                                             
   Description                                                                                      
     l       E           TYP  RCUT    TYP  RCUT                                                     
     0    -10.8127223     23  1.900                                                                 
     0     -7.6451159     23  1.900                                                                 
     1     -4.0811372     23  1.900                                                                 
     1      2.4879257     23  1.900                                                                 
     2     -4.0817478      7  1.900                                                                 
  local pseudopotential read in
  partial core-charges read in
  partial kinetic energy density read in
  atomic valenz-charges read in
  non local Contribution for L=           0  read in
    real space projection operators read in
  non local Contribution for L=           0  read in
    real space projection operators read in
  non local Contribution for L=           1  read in
    real space projection operators read in
  non local Contribution for L=           1  read in
    real space projection operators read in
    PAW grid and wavefunctions read in

   number of l-projection  operators is LMAX  =           4
   number of lm-projection operators is LMMAX =           8

 -----------------------------------------------------------------------------
|                                                                             |
|               ----> ADVICE to this user running VASP <----                  |
|                                                                             |
|     You have a (more or less) 'large supercell' and for larger cells it     |
|     might be more efficient to use real-space projection operators.         |
|     Therefore, try LREAL= Auto in the INCAR file.                           |
|     Mind: For very accurate calculation, you might also keep the            |
|     reciprocal projection scheme (i.e. LREAL=.FALSE.).                      |
|                                                                             |
 -----------------------------------------------------------------------------

 -----------------------------------------------------------------------------
|                                                                             |
|               ----> ADVICE to this user running VASP <----                  |
|                                                                             |
|     You enforced a specific xc type in the INCAR file but a different       |
|     type was found in the POTCAR file.                                      |
|     I HOPE YOU KNOW WHAT YOU ARE DOING!                                     |
|                                                                             |
 -----------------------------------------------------------------------------

  PAW_PBE H 15Jun2001                   :
 energy of atom  1       EATOM=  -12.4884
 kinetic energy error for atom=    0.0000 (will be added to EATOM!!)
  PAW_PBE Si 05Jan2001                  :
 energy of atom  2       EATOM= -103.0669
 kinetic energy error for atom=    0.0001 (will be added to EATOM!!)


 POSCAR:  H Si
  positions in cartesian coordinates
  No initial velocities read in


 exchange-correlation table for SCAN
   RHO(1)=    0.500       N(1)  =     2000
   RHO(2)=  100.500       N(2)  =     4000



--------------------------------------------------------------------------------------------------------


 ion  position               nearest neighbor table
   1  0.864  0.942  0.408-  62 1.45
   2  0.007  0.723  0.610-   7 0.74
   3  0.023  0.576  0.564-  67 1.56
   4  0.190  0.885  0.554-  27 1.53
   5  0.932  0.736  0.399-
   6  0.332  0.685  0.498-  35 1.50
   7  0.038  0.746  0.593-   2 0.74
   8  0.175  0.771  0.621-  11 0.75
   9  0.146  0.666  0.550-  63 1.43
  10  0.869  0.691  0.538-  34 1.49
  11  0.226  0.766  0.623-   8 0.75
  12  0.293  0.597  0.562-  54 1.46
  13  0.863  0.694  0.622-
  14  0.804  0.568  0.617-  43 1.44
  15  0.677  0.849  0.526-  80 2.27  64 2.28  37 2.30  68 2.35
  16  0.175  0.587  0.444-  70 2.24  76 2.27  63 2.40
  17  0.916  0.418  0.571-  47 2.30  67 2.36  49 2.40
  18  0.008  0.794  0.489-  34 2.25  63 2.36  69 2.39  61 2.41
  19  0.636  0.100  0.556-  59 2.29  68 2.32  23 2.35
  20  0.407  0.834  0.558-  26 2.33  30 2.36  35 2.42
  21  0.801  0.279  0.382-  51 2.37  45 2.38
  22  0.450  0.452  0.555-  29 2.27  75 2.30  54 2.30  33 2.49
  23  0.717  0.211  0.510-  71 2.30  19 2.35  45 2.44  39 2.47
  24  0.085  0.021  0.406-  38 2.33  69 2.41
  25  0.189  0.404  0.575-  29 2.24  78 2.28  67 2.37
  26  0.489  0.698  0.547-  46 2.29  54 2.30  20 2.33  41 2.33
  27  0.123  0.966  0.548-   4 1.53  44 2.31  38 2.31  61 2.34
  28  0.417  0.304  0.429-  79 2.29  58 2.31  52 2.35  57 2.37
  29  0.312  0.409  0.525-  25 2.24  22 2.27  70 2.29  58 2.40
  30  0.437  0.971  0.513-  59 2.26  37 2.33  20 2.36  36 2.37
  31  0.165  0.801  0.378-  69 2.33  77 2.41
  32  0.771  0.266  0.625-  47 2.28  71 2.28
  33  0.519  0.312  0.594-  71 2.26  50 2.37  22 2.49
  34  0.880  0.709  0.483-  10 1.49  64 2.19  73 2.24  18 2.25
  35  0.284  0.775  0.506-   6 1.50  63 2.24  77 2.34  20 2.42
  36  0.314  0.993  0.456-  77 2.23  60 2.25  30 2.37  38 2.39
  37  0.564  0.906  0.474-  15 2.30  30 2.33  42 2.33  48 2.35
  38  0.166  0.052  0.479-  27 2.31  65 2.32  24 2.33  36 2.39
  39  0.886  0.199  0.503-  47 2.17  81 2.32  51 2.37  23 2.47
  40  0.427  0.573  0.413-  46 2.26  72 2.30  70 2.49
  41  0.610  0.652  0.598-  80 2.23  43 2.33  26 2.33
  42  0.556  0.808  0.405-  82 2.18  37 2.33
  43  0.712  0.534  0.618-  14 1.44  66 2.32  41 2.33
  44  0.173  0.035  0.621-  27 2.31  83 2.43
  45  0.662  0.263  0.428-  57 2.28  55 2.35  21 2.38  23 2.44
  46  0.523  0.628  0.472-  40 2.26  75 2.29  26 2.29  82 2.30
  47  0.901  0.262  0.577-  39 2.17  74 2.27  32 2.28  17 2.30
  48  0.653  0.011  0.428-  55 2.27  62 2.33  37 2.35
  49  0.834  0.449  0.495-  73 2.22  66 2.31  17 2.40  51 2.49
  50  0.406  0.199  0.576-  59 2.19  58 2.28  83 2.33  33 2.37
  51  0.904  0.322  0.446-  53 2.30  39 2.37  21 2.37  49 2.49
  52  0.438  0.178  0.376-  55 2.26  28 2.35  60 2.38
  53  0.034  0.386  0.411-  76 2.23  51 2.30  56 2.32
  54  0.388  0.591  0.579-  12 1.46  26 2.30  22 2.30
  55  0.584  0.136  0.394-  52 2.26  48 2.27  45 2.35
  56  0.170  0.302  0.414-  79 2.24  53 2.32  65 2.36
  57  0.559  0.381  0.435-  75 2.26  45 2.28  72 2.29  28 2.37
  58  0.348  0.254  0.502-  50 2.28  28 2.31  29 2.40  65 2.45
  59  0.485  0.070  0.573-  50 2.19  30 2.26  19 2.29
  60  0.349  0.041  0.379-  36 2.25  52 2.38
  61  0.969  0.921  0.544-  27 2.34  18 2.41  81 2.42
  62  0.814  0.018  0.430-   1 1.45  81 2.24  48 2.33
  63  0.145  0.710  0.502-   9 1.43  35 2.24  18 2.36  16 2.40
  64  0.754  0.781  0.462-  34 2.19  82 2.23  15 2.28
  65  0.188  0.210  0.486-  38 2.32  56 2.36  78 2.42  58 2.45
  66  0.700  0.456  0.542-  71 2.19  49 2.31  43 2.32  75 2.32
  67  0.057  0.481  0.544-   3 1.56  76 2.33  17 2.36  25 2.37
  68  0.747  0.986  0.555-  19 2.32  15 2.35  81 2.41
  69  0.029  0.865  0.409-  31 2.33  18 2.39  24 2.41
  70  0.295  0.492  0.452-  16 2.24  79 2.27  29 2.29  40 2.49
  71  0.667  0.317  0.568-  66 2.19  33 2.26  32 2.28  23 2.30
  72  0.544  0.492  0.375-  57 2.29  40 2.30
  73  0.890  0.567  0.452-  49 2.22  34 2.24  76 2.34
  74  0.027  0.238  0.624-  47 2.27  78 2.40
  75  0.565  0.484  0.498-  57 2.26  46 2.29  22 2.30  66 2.32
  76  0.040  0.512  0.459-  53 2.23  16 2.27  67 2.33  73 2.34
  77  0.294  0.850  0.428-  36 2.23  35 2.34  31 2.41
  78  0.162  0.250  0.573-  25 2.28  83 2.33  74 2.40  65 2.42
  79  0.297  0.380  0.393-  56 2.24  70 2.27  28 2.29
  80  0.679  0.789  0.605-  41 2.23  15 2.27
  81  0.875  0.040  0.506-  62 2.24  39 2.32  68 2.41  61 2.42
  82  0.642  0.694  0.429-  42 2.18  64 2.23  46 2.30
  83  0.271  0.170  0.620-  78 2.33  50 2.33  44 2.43

  LATTYP: Found a simple tetragonal cell.
 ALAT       =    14.5492154081
 C/A-ratio  =     1.8326801585
  
  Lattice vectors:
  
 A1 = (  14.5492154081,   0.0000000000,   0.0000000000)
 A2 = (   0.0000000000,  14.5492154081,   0.0000000000)
 A3 = (   0.0000000000,   0.0000000000,  26.6640584000)


Analysis of symmetry for initial positions (statically):
=====================================================================
 Subroutine PRICEL returns:
 Original cell was already a primitive cell.
 

 Routine SETGRP: Setting up the symmetry group for a 
 simple tetragonal supercell.


 Subroutine GETGRP returns: Found  1 space group operations
 (whereof  1 operations were pure point group operations)
 out of a pool of 16 trial point group operations.


The static configuration has the point symmetry C_1 .


Analysis of symmetry for dynamics (positions and initial velocities):
=====================================================================
 Subroutine PRICEL returns:
 Original cell was already a primitive cell.
 

 Routine SETGRP: Setting up the symmetry group for a 
 simple tetragonal supercell.


 Subroutine GETGRP returns: Found  1 space group operations
 (whereof  1 operations were pure point group operations)
 out of a pool of 16 trial point group operations.


The dynamic configuration has the point symmetry C_1 .


 Subroutine INISYM returns: Found  1 space group operations
 (whereof  1 operations are pure point group operations),
 and found     1 'primitive' translations


----------------------------------------------------------------------------------------

                                     Primitive cell                                     

  volume of cell :    5644.2391

  direct lattice vectors                    reciprocal lattice vectors
    14.549215408  0.000000000  0.000000000     0.068732229  0.000000000  0.000000000
     0.000000000 14.549215408  0.000000000     0.000000000  0.068732229  0.000000000
     0.000000000  0.000000000 26.664058400     0.000000000  0.000000000  0.037503668

  length of vectors
    14.549215408 14.549215408 26.664058400     0.068732229  0.068732229  0.037503668

  position of ions in fractional coordinates (direct lattice)
     0.863957241  0.941940827  0.407882710
     0.006662325  0.722513187  0.610275006
     0.023407035  0.575978825  0.563641820
     0.189937390  0.885449809  0.553724350
     0.931740965  0.735888479  0.399267817
     0.331779403  0.684759262  0.497809381
     0.038381520  0.746012736  0.592942686
     0.175160648  0.771113746  0.621470601
     0.146168707  0.666466866  0.549765088
     0.868562300  0.691398108  0.538312217
     0.226389527  0.765567056  0.623483048
     0.292670077  0.597340802  0.561817641
     0.863352397  0.694174890  0.621982901
     0.804318286  0.568205898  0.616700134
     0.677054379  0.849372262  0.526176030
     0.174807364  0.587393874  0.443933486
     0.915657623  0.418389571  0.571490212
     0.007808050  0.794379606  0.489427311
     0.635582039  0.100178598  0.556142961
     0.406635673  0.833770046  0.558142657
     0.800723590  0.279025355  0.381677997
     0.450435286  0.452213389  0.555048229
     0.716835905  0.211262939  0.509853309
     0.085434160  0.020726891  0.405697559
     0.188714644  0.404149628  0.574771408
     0.488812613  0.698017021  0.546756543
     0.123459578  0.966450740  0.548167431
     0.416732437  0.303604000  0.429267677
     0.311620240  0.409195261  0.524516493
     0.437197459  0.970629660  0.513386154
     0.164751839  0.801404040  0.377922871
     0.770900676  0.265539405  0.624963318
     0.518932450  0.312093118  0.593758766
     0.879944357  0.708615531  0.483487855
     0.283961704  0.774646583  0.505736531
     0.313981192  0.993160084  0.456477713
     0.564409817  0.905835788  0.473987051
     0.166307937  0.051986308  0.479096550
     0.885752231  0.198738552  0.503392552
     0.427106880  0.573090697  0.412656552
     0.609865876  0.652161628  0.598468476
     0.556159200  0.808139798  0.404855189
     0.711797833  0.533537361  0.617911878
     0.173053318  0.034861674  0.621305960
     0.661948410  0.262781180  0.428141817
     0.522857748  0.627517687  0.472310262
     0.900502167  0.261662907  0.576928619
     0.653446233  0.011132009  0.427962924
     0.833639455  0.449213914  0.495267757
     0.406477589  0.198549538  0.575900269
     0.904351172  0.321734188  0.446182956
     0.437952138  0.177584834  0.375519051
     0.033780653  0.385895036  0.411294269
     0.388167323  0.591257312  0.578761799
     0.583849353  0.135964033  0.394004065
     0.169721180  0.302154438  0.413832667
     0.559412296  0.380942191  0.434999737
     0.348179600  0.253749078  0.502380703
     0.484622009  0.070060135  0.573231883
     0.348994077  0.040774914  0.378676653
     0.969289381  0.921231807  0.543595734
     0.813604010  0.017830515  0.429958869
     0.144653161  0.710265104  0.501759267
     0.753793225  0.780969948  0.461864365
     0.188324245  0.209666976  0.486060232
     0.700422649  0.456138686  0.541972575
     0.056585594  0.481060305  0.543749124
     0.746665693  0.985730130  0.554634564
     0.029290789  0.864809520  0.409493305
     0.294625509  0.492219670  0.451932268
     0.666706054  0.317401308  0.567550827
     0.544025900  0.492280841  0.375036682
     0.889828052  0.566592065  0.451685494
     0.027346904  0.237616250  0.624484021
     0.565032531  0.483783476  0.498287928
     0.040353860  0.512303914  0.458595170
     0.293540227  0.850451358  0.428315834
     0.161922821  0.249617584  0.573067617
     0.296738338  0.380419139  0.392672122
     0.679086103  0.788722943  0.604509567
     0.875394284  0.039833282  0.506080815
     0.642493065  0.693851848  0.429389564
     0.271075099  0.170023601  0.620216103

  ion indices of the primitive-cell ions
   primitive index   ion index
                 1           1
                 2           2
                 3           3
                 4           4
                 5           5
                 6           6
                 7           7
                 8           8
                 9           9
                10          10
                11          11
                12          12
                13          13
                14          14
                15          15
                16          16
                17          17
                18          18
                19          19
                20          20
                21          21
                22          22
                23          23
                24          24
                25          25
                26          26
                27          27
                28          28
                29          29
                30          30
                31          31
                32          32
                33          33
                34          34
                35          35
                36          36
                37          37
                38          38
                39          39
                40          40
                41          41
                42          42
                43          43
                44          44
                45          45
                46          46
                47          47
                48          48
                49          49
                50          50
                51          51
                52          52
                53          53
                54          54
                55          55
                56          56
                57          57
                58          58
                59          59
                60          60
                61          61
                62          62
                63          63
                64          64
                65          65
                66          66
                67          67
                68          68
                69          69
                70          70
                71          71
                72          72
                73          73
                74          74
                75          75
                76          76
                77          77
                78          78
                79          79
                80          80
                81          81
                82          82
                83          83

----------------------------------------------------------------------------------------


 -----------------------------------------------------------------------------
|                                                                             |
|           W    W    AA    RRRRR   N    N  II  N    N   GGGG   !!!           |
|           W    W   A  A   R    R  NN   N  II  NN   N  G    G  !!!           |
|           W    W  A    A  R    R  N N  N  II  N N  N  G       !!!           |
|           W WW W  AAAAAA  RRRRR   N  N N  II  N  N N  G  GGG   !            |
|           WW  WW  A    A  R   R   N   NN  II  N   NN  G    G                |
|           W    W  A    A  R    R  N    N  II  N    N   GGGG   !!!           |
|                                                                             |
|     The requested file  could not be found or opened for reading            |
|     k-point information. Automatic k-point generation is used as a          |
|     fallback, which may lead to unwanted results.                           |
|                                                                             |
 -----------------------------------------------------------------------------



Automatic generation of k-mesh.
 Grid dimensions derived from KSPACING:
 generate k-points for:    2    2    2

 Generating k-lattice:

  Cartesian coordinates                     Fractional coordinates (reciprocal lattice)
     0.034366114  0.000000000  0.000000000     0.500000000  0.000000000  0.000000000
     0.000000000  0.034366114  0.000000000     0.000000000  0.500000000  0.000000000
     0.000000000  0.000000000  0.018751834     0.000000000  0.000000000  0.500000000

  Length of vectors
     0.034366114  0.034366114  0.018751834

  Shift w.r.t. Gamma in fractional coordinates (k-lattice)
     0.000000000  0.000000000  0.000000000

 
 Subroutine IBZKPT returns following result:
 ===========================================
 
 Found      8 irreducible k-points:
 
 Following reciprocal coordinates:
            Coordinates               Weight
  0.000000  0.000000  0.000000      1.000000
  0.500000  0.000000  0.000000      1.000000
  0.000000  0.500000  0.000000      1.000000
  0.500000  0.500000  0.000000      1.000000
  0.000000  0.000000  0.500000      1.000000
  0.500000  0.000000  0.500000      1.000000
  0.000000  0.500000  0.500000      1.000000
  0.500000  0.500000  0.500000      1.000000
 
 Following cartesian coordinates:
            Coordinates               Weight
  0.000000  0.000000  0.000000      1.000000
  0.034366  0.000000  0.000000      1.000000
  0.000000  0.034366  0.000000      1.000000
  0.034366  0.034366  0.000000      1.000000
  0.000000  0.000000  0.018752      1.000000
  0.034366  0.000000  0.018752      1.000000
  0.000000  0.034366  0.018752      1.000000
  0.034366  0.034366  0.018752      1.000000
 


--------------------------------------------------------------------------------------------------------




 Dimension of arrays:
   k-points           NKPTS =      8   k-points in BZ     NKDIM =      8   number of bands    NBANDS=    192
   number of dos      NEDOS =   2000   number of ions     NIONS =     83
   non local maximal  LDIM  =      4   non local SUM 2l+1 LMDIM =      8
   total plane-waves  NPLWV = ******
   max r-space proj   IRMAX =      1   max aug-charges    IRDMAX= 428159
   dimension x,y,z NGX =   168 NGY =  168 NGZ =  320
   dimension x,y,z NGXF=   336 NGYF=  336 NGZF=  640
   support grid    NGXF=   672 NGYF=  672 NGZF= 1280
   ions per type =              14  69
   NGX,Y,Z   is equivalent  to a cutoff of  19.20, 19.20, 19.95 a.u.
   NGXF,Y,Z  is equivalent  to a cutoff of  38.39, 38.39, 39.90 a.u.

 SYSTEM =  a-Si SPC                                
 POSCAR =   H Si                                   

 Startparameter for this run:
   NWRITE =      2    write-flag & timer
   PREC   = accura    normal or accurate (medium, high low for compatibility)
   ISTART =      1    job   : 0-new  1-cont  2-samecut
   ICHARG =      1    charge: 1-file 2-atom 10-const
   ISPIN  =      1    spin polarized calculation?
   LNONCOLLINEAR =      F non collinear calculations
   LSORBIT =      F    spin-orbit coupling
   INIWAV =      1    electr: 0-lowe 1-rand  2-diag
   LASPH  =      T    aspherical Exc in radial PAW
 Electronic Relaxation 1
   ENCUT  = 1200.0 eV  88.20 Ry    9.39 a.u.  41.09 41.09 75.31*2*pi/ulx,y,z
   ENINI  = 1200.0     initial cutoff
   ENAUG  =  400.0 eV  augmentation charge cutoff
   NELM   =    150;   NELMIN=  2; NELMDL=  0     # of ELM steps 
   EDIFF  = 0.1E-05   stopping-criterion for ELM
   LREAL  =      F    real-space projection
   NLSPLINE    = F    spline interpolate recip. space projectors
   LCOMPAT=      F    compatible to vasp.4.4
   GGA_COMPAT  = T    GGA compatible to vasp.4.4-vasp.4.6
   LMAXPAW     = -100 max onsite density
   LMAXMIX     =    2 max onsite mixed and CHGCAR
   VOSKOWN=      0    Vosko Wilk Nusair interpolation
   ROPT   =    0.00000   0.00000
 Ionic relaxation
   EDIFFG = -.1E-01   stopping-criterion for IOM
   NSW    =      0    number of steps for IOM
   NBLOCK =      1;   KBLOCK =      1    inner block; outer block 
   IBRION =     -1    ionic relax: 0-MD 1-quasi-New 2-CG
   NFREE  =      0    steps in history (QN), initial steepest desc. (CG)
   ISIF   =      2    stress and relaxation
   IWAVPR =     10    prediction:  0-non 1-charg 2-wave 3-comb
   ISYM   =      1    0-nonsym 1-usesym 2-fastsym
   LCORR  =      T    Harris-Foulkes like correction to forces

   POTIM  = 0.5000    time-step for ionic-motion
   TEIN   =    0.0    initial temperature
   TEBEG  =    0.0;   TEEND  =   0.0 temperature during run
   SMASS  =  -3.00    Nose mass-parameter (am)
   estimated Nose-frequenzy (Omega)   =  0.10E-29 period in steps = 0.13E+47 mass=  -0.484E-26a.u.
   SCALEE = 1.0000    scale energy and forces
   NPACO  =    256;   APACO  = 10.0  distance and # of slots for P.C.
   PSTRESS=    0.0 pullay stress

  Mass of Ions in am
   POMASS =   1.00 28.09
  Ionic Valenz
   ZVAL   =   1.00  4.00
  Atomic Wigner-Seitz radii
   RWIGS  =  -1.00 -1.00
  virtual crystal weights 
   VCA    =   1.00  1.00
   NELECT =     290.0000    total number of electrons
   NUPDOWN=      -1.0000    fix difference up-down

 DOS related values:
   EMIN   =  10.00;   EMAX   =-10.00  energy-range for DOS
   EFERMI =   0.00;   METHOD = LEGACY      
   ISMEAR =     0;   SIGMA  =   0.10  broadening in eV -4-tet -1-fermi 0-gaus
   EFERMI_NEDOS =   21; number of points for ismear=-14 and -15

 Electronic relaxation 2 (details)
   IALGO  =     38    algorithm
   LDIAG  =      F    sub-space diagonalisation (order eigenvalues)
   LSUBROT=      F    optimize rotation matrix (better conditioning)
   TURBO    =      0    0=normal 1=particle mesh
   IRESTART =      0    0=no restart 2=restart with 2 vectors
   NREBOOT  =      0    no. of reboots
   NMIN     =      0    reboot dimension
   EREF     =   0.00    reference energy to select bands
   IMIX   =      4    mixing-type and parameters
     AMIX     =   0.40;   BMIX     =  1.00
     AMIX_MAG =   1.60;   BMIX_MAG =  1.00
     AMIN     =   0.10
     WC   =   100.;   INIMIX=   1;  MIXPRE=   1;  MAXMIX= -45

 Intra band minimization:
   WEIMIN = 0.0000     energy-eigenvalue tresh-hold
   EBREAK =  0.13E-08  absolut break condition
   DEPER  =   0.30     relativ break condition  

   TIME   =   0.40     timestep for ELM

  volume/ion in A,a.u.               =      68.00       458.91
  Fermi-wavevector in a.u.,A,eV,Ry     =   0.608610  1.150106  5.039680  0.370406
  Thomas-Fermi vector in A             =   1.663502

 Write flags
   LWAVE        =      F    write WAVECAR
   LDOWNSAMPLE  =      F    k-point downsampling of WAVECAR
   LCHARG       =      F    write CHGCAR
   LVTOT        =      F    write LOCPOT, total local potential
   LVHAR        =      F    write LOCPOT, Hartree potential only
   WRT_POTENTIAL= false  ! write potential to hdf5 file
   LELF         =      F    write electronic localiz. function (ELF)
   LORBIT       =     11    0 simple, 1 ext, 2 COOP (PROOUT), +10 PAW based schemes


 Python interface
   PLUGINS active      =      F    recompile with -DPLUGINS to activate

 Dipole corrections
   LMONO      =      F    monopole corrections only (constant potential shift)
   LDIPOL     =      F    correct potential (dipole corrections)
   IDIPOL     =      0    1-x, 2-y, 3-z, 4-all directions 
   EPSILON    =  1.0000000 bulk dielectric constant
   LVACPOTAV  =      F  vacuum potentials using an averaging scheme for the charge density
   VACPOTFLAT =  0.1000000 required flatness to determine vacuum potential

Coulomb truncation method
  LTRUNCATE          =      F  Coulomb kernel truncation to be used
  IDIMENSIONALITY    =      3  Dimensionality of cutoff (0 molecules / 2 surfaces)
  ISURFACE           =     -1  Direction of surface normal
  LCOARSEN           =      F  Coarsen the charge grid before padding, preferred


 Exchange correlation treatment:
   METAGGA = SCAN    functional components
   XC_C    = 1    coefficients multiplying the functional components
   LIBXC   =     F    Libxc                    
   VOSKOWN =     0    Vosko Wilk Nusair interpolation
   LHFCALC =     F    Hartree Fock is set to
   LHFONE  =     F    Hartree Fock one center treatment
   AEXX    =    0.0000 exact exchange contribution

 Parameters of functionals:
   SCAN:
     P1 =  0.000000E+00
     P2 =  0.000000E+00
     P3 =  0.000000E+00

 Accuracy and mixing parameters for tau-dependent meta-GGA functionals:
   LMAXTAU = 6
   LMIXTAU = T

 Van der Waals corrections
   IVDW    =     0    specifies the selected vdW correction

 Linear response parameters
   LEPSILON=     F    determine dielectric tensor
   LRPA    =     F    only Hartree local field effects (RPA)
   LNABLA  =     F    use nabla operator in PAW spheres
   LVEL    =     F    velocity operator in full k-point grid
   CSHIFT  =0.1000    complex shift for real part using Kramers Kronig
   OMEGAMAX=  -1.0    maximum frequency
   DEG_THRESHOLD= 0.2000000E-02 threshold for treating states as degnerate
   RTIME   =   -0.100 relaxation time in fs
  (WPLASMAI=    0.000 imaginary part of plasma frequency in eV, 0.658/RTIME)
   DFIELD  = 0.0000000 0.0000000 0.0000000 field for delta impulse in time

  Optional k-point grid parameters
   LKPOINTS_OPT  =     F    use optional k-point grid
   KPOINTS_OPT_MODE=     1    mode for optional k-point grid

 Orbital magnetization related:
   ORBITALMAG=     F  switch on orbital magnetization
   LCHIMAG   =     F  perturbation theory with respect to B field
   DQ        =  0.001000  dq finite difference perturbation B field
   LLRAUG    =     F  two centre corrections for induced B field
   LBONE     =     F  B-component reconstruction in AE one-centre
   LVGVCALC  =     T  calculate vGv susceptibility
   LVGVAPPL  =     F  apply vGv susceptibility instead of pGv for G=0

 Random number generation:
   RANDOM_GENERATOR = DEFAULT
   PCG_SEED         = not used


--------------------------------------------------------------------------------------------------------


 Static calculation
 charge density and potential will be updated during run
 non-spin polarized calculation
 Variant of blocked Davidson
 perform Loewdin sub-space diagonalisation
    ordering is kept fixed
    before iterative eigenvector-optimisation
 modified Broyden-mixing scheme, WC =      100.0
 initial mixing is a Kerker type mixing with AMIX =  0.4000 and BMIX =      1.0000
 Hartree-type preconditioning will be used
 using additional bands           47
 reciprocal scheme for non local part
 use partial core corrections
 calculate Harris-corrections to forces   (improved forces if not selfconsistent)
 use gradient corrections 
 use of overlap-Matrix (Vanderbilt PP)
 Gauss-broadening in eV      SIGMA  =   0.10


--------------------------------------------------------------------------------------------------------


  energy-cutoff  :     1200.00
  volume of cell :     5644.24
      direct lattice vectors                 reciprocal lattice vectors
    14.549215408  0.000000000  0.000000000     0.068732229  0.000000000  0.000000000
     0.000000000 14.549215408  0.000000000     0.000000000  0.068732229  0.000000000
     0.000000000  0.000000000 26.664058400     0.000000000  0.000000000  0.037503668

  length of vectors
    14.549215408 14.549215408 26.664058400     0.068732229  0.068732229  0.037503668



 old parameters found on file WAVECAR:
  energy-cutoff  :     1200.00
  volume of cell :     5644.24
      direct lattice vectors                 reciprocal lattice vectors
    14.549215408  0.000000000  0.000000000     0.068732229  0.000000000  0.000000000
     0.000000000 14.549215408  0.000000000     0.000000000  0.068732229  0.000000000
     0.000000000  0.000000000 26.664058400     0.000000000  0.000000000  0.037503668

  length of vectors


 k-points in units of 2pi/SCALE and weight: read from INCAR                         
   0.00000000  0.00000000  0.00000000       0.125
   0.03436611  0.00000000  0.00000000       0.125
   0.00000000  0.03436611  0.00000000       0.125
   0.03436611  0.03436611  0.00000000       0.125
   0.00000000  0.00000000  0.01875183       0.125
   0.03436611  0.00000000  0.01875183       0.125
   0.00000000  0.03436611  0.01875183       0.125
   0.03436611  0.03436611  0.01875183       0.125

 k-points in reciprocal lattice and weights: read from INCAR                         
   0.00000000  0.00000000  0.00000000       0.125
   0.50000000  0.00000000  0.00000000       0.125
   0.00000000  0.50000000  0.00000000       0.125
   0.50000000  0.50000000  0.00000000       0.125
   0.00000000  0.00000000  0.50000000       0.125
   0.50000000  0.00000000  0.50000000       0.125
   0.00000000  0.50000000  0.50000000       0.125
   0.50000000  0.50000000  0.50000000       0.125

 position of ions in fractional coordinates (direct lattice) 
   0.86395724  0.94194083  0.40788271
   0.00666232  0.72251319  0.61027501
   0.02340704  0.57597883  0.56364182
   0.18993739  0.88544981  0.55372435
   0.93174096  0.73588848  0.39926782
   0.33177940  0.68475926  0.49780938
   0.03838152  0.74601274  0.59294269
   0.17516065  0.77111375  0.62147060
   0.14616871  0.66646687  0.54976509
   0.86856230  0.69139811  0.53831222
   0.22638953  0.76556706  0.62348305
   0.29267008  0.59734080  0.56181764
   0.86335240  0.69417489  0.62198290
   0.80431829  0.56820590  0.61670013
   0.67705438  0.84937226  0.52617603
   0.17480736  0.58739387  0.44393349
   0.91565762  0.41838957  0.57149021
   0.00780805  0.79437961  0.48942731
   0.63558204  0.10017860  0.55614296
   0.40663567  0.83377005  0.55814266
   0.80072359  0.27902536  0.38167800
   0.45043529  0.45221339  0.55504823
   0.71683591  0.21126294  0.50985331
   0.08543416  0.02072689  0.40569756
   0.18871464  0.40414963  0.57477141
   0.48881261  0.69801702  0.54675654
   0.12345958  0.96645074  0.54816743
   0.41673244  0.30360400  0.42926768
   0.31162024  0.40919526  0.52451649
   0.43719746  0.97062966  0.51338615
   0.16475184  0.80140404  0.37792287
   0.77090068  0.26553940  0.62496332
   0.51893245  0.31209312  0.59375877
   0.87994436  0.70861553  0.48348785
   0.28396170  0.77464658  0.50573653
   0.31398119  0.99316008  0.45647771
   0.56440982  0.90583579  0.47398705
   0.16630794  0.05198631  0.47909655
   0.88575223  0.19873855  0.50339255
   0.42710688  0.57309070  0.41265655
   0.60986588  0.65216163  0.59846848
   0.55615920  0.80813980  0.40485519
   0.71179783  0.53353736  0.61791188
   0.17305332  0.03486167  0.62130596
   0.66194841  0.26278118  0.42814182
   0.52285775  0.62751769  0.47231026
   0.90050217  0.26166291  0.57692862
   0.65344623  0.01113201  0.42796292
   0.83363945  0.44921391  0.49526776
   0.40647759  0.19854954  0.57590027
   0.90435117  0.32173419  0.44618296
   0.43795214  0.17758483  0.37551905
   0.03378065  0.38589504  0.41129427
   0.38816732  0.59125731  0.57876180
   0.58384935  0.13596403  0.39400407
   0.16972118  0.30215444  0.41383267
   0.55941230  0.38094219  0.43499974
   0.34817960  0.25374908  0.50238070
   0.48462201  0.07006014  0.57323188
   0.34899408  0.04077491  0.37867665
   0.96928938  0.92123181  0.54359573
   0.81360401  0.01783051  0.42995887
   0.14465316  0.71026510  0.50175927
   0.75379322  0.78096995  0.46186436
   0.18832424  0.20966698  0.48606023
   0.70042265  0.45613869  0.54197258
   0.05658559  0.48106030  0.54374912
   0.74666569  0.98573013  0.55463456
   0.02929079  0.86480952  0.40949331
   0.29462551  0.49221967  0.45193227
   0.66670605  0.31740131  0.56755083
   0.54402590  0.49228084  0.37503668
   0.88982805  0.56659206  0.45168549
   0.02734690  0.23761625  0.62448402
   0.56503253  0.48378348  0.49828793
   0.04035386  0.51230391  0.45859517
   0.29354023  0.85045136  0.42831583
   0.16192282  0.24961758  0.57306762
   0.29673834  0.38041914  0.39267212
   0.67908610  0.78872294  0.60450957
   0.87539428  0.03983328  0.50608081
   0.64249306  0.69385185  0.42938956
   0.27107510  0.17002360  0.62021610

 position of ions in cartesian coordinates  (Angst):
  12.56990000 13.70450000 10.87580840
   0.09693160 10.51200000 16.27240840
   0.34055400  8.38004000 15.02897840
   2.76344000 12.88260000 14.76453840
  13.55610000 10.70660000 10.64610040
   4.82713000  9.96271000 13.27361840
   0.55842100 10.85390000 15.81025840
   2.54845000 11.21910000 16.57092840
   2.12664000  9.69657000 14.65896840
  12.63690000 10.05930000 14.35358840
   3.29379000 11.13840000 16.62458840
   4.25812000  8.69084000 14.98033840
  12.56110000 10.09970000 16.58458840
  11.70220000  8.26695000 16.44372840
   9.85061000 12.35770000 14.02998840
   2.54331000  8.54612000 11.83706840
  13.32210000  6.08724000 15.23824840
   0.11360100 11.55760000 13.05011840
   9.24722000  1.45752000 14.82902840
   5.91623000 12.13070000 14.88234840
  11.64990000  4.05960000 10.17708440
   6.55348000  6.57935000 14.79983840
  10.42940000  3.07371000 13.59475840
   1.24300000  0.30156000 10.81754340
   2.74565000  5.88006000 15.32573840
   7.11184000 10.15560000 14.57874840
   1.79624000 14.06110000 14.61636840
   6.06313000  4.41720000 11.44601840
   4.53383000  5.95347000 13.98573840
   6.36088000 14.12190000 13.68895840
   2.39701000 11.65980000 10.07695750
  11.21600000  3.86339000 16.66405840
   7.55006000  4.54071000 15.83201840
  12.80250000 10.30980000 12.89174840
   4.13142000 11.27050000 13.48498840
   4.56818000 14.44970000 12.17154840
   8.21172000 13.17920000 12.63841840
   2.41965000  0.75636000 12.77465840
  12.88700000  2.89149000 13.42248840
   6.21407000  8.33802000 11.00309840
   8.87307000  9.48844000 15.95759840
   8.09168000 11.75780000 10.79508240
  10.35610000  7.76255000 16.47603840
   2.51779000  0.50721000 16.56653840
   9.63083000  3.82326000 11.41599840
   7.60717000  9.12989000 12.59370840
  13.10160000  3.80699000 15.38325840
   9.50713000  0.16196200 11.41122840
  12.12880000  6.53571000 13.20584840
   5.91393000  2.88874000 15.35583840
  13.15760000  4.68098000 11.89704840
   6.37186000  2.58372000 10.01286190
   0.49148200  5.61447000 10.96677440
   5.64753000  8.60233000 15.43213840
   8.49455000  1.97817000 10.50574740
   2.46931000  4.39611000 11.03445840
   8.13901000  5.54241000 11.59885840
   5.06574000  3.69185000 13.39550840
   7.05087000  1.01932000 15.28468840
   5.07759000  0.59324300 10.09705640
  14.10240000 13.40320000 14.49446840
  11.83730000  0.25942000 11.46444840
   2.10459000 10.33380000 13.37893840
  10.96710000 11.36250000 12.31517840
   2.73997000  3.05049000 12.96033840
  10.19060000  6.63646000 14.45118840
   0.82327600  6.99905000 14.49855840
  10.86340000 14.34160000 14.78880840
   0.42615800 12.58230000 10.91875340
   4.28657000  7.16141000 12.05034840
   9.70005000  4.61794000 15.13320840
   7.91515000  7.16230000 10.00000000
  12.94630000  8.24347000 12.04376840
   0.39787600  3.45713000 16.65127840
   8.22078000  7.03867000 13.28637840
   0.58711700  7.45362000 12.22800840
   4.27078000 12.37340000 11.42063840
   2.35585000  3.63174000 15.28030840
   4.31731000  5.53480000 10.47023240
   9.88017000 11.47530000 16.11867840
  12.73630000  0.57954300 13.49416840
   9.34777000 10.09500000 11.44926840
   3.94393000  2.47371000 16.53747840



--------------------------------------------------------------------------------------------------------


 k-point     1 :   0.0000 0.0000 0.0000  plane waves:  532591
 k-point     2 :   0.5000 0.0000 0.0000  plane waves:  532994
 k-point     3 :   0.0000 0.5000 0.0000  plane waves:  532994
 k-point     4 :   0.5000 0.5000 0.0000  plane waves:  532764
 k-point     5 :   0.0000 0.0000 0.5000  plane waves:  532646
 k-point     6 :   0.5000 0.0000 0.5000  plane waves:  532716
 k-point     7 :   0.0000 0.5000 0.5000  plane waves:  532716
 k-point     8 :   0.5000 0.5000 0.5000  plane waves:  532688

 maximum and minimum number of plane-waves per node :     33396    33217

 maximum number of plane-waves:    532994
 maximum index in each direction: 
   IXMAX=   41   IYMAX=   41   IZMAX=   75
   IXMIN=  -41   IYMIN=  -41   IZMIN=  -75


 parallel 3D FFT for wavefunctions:
    minimum data exchange during FFTs selected (reduces bandwidth)
 parallel 3D FFT for charge:
    minimum data exchange during FFTs selected (reduces bandwidth)


 total amount of memory used by VASP MPI-rank0   403574. kBytes
=======================================================================

   base                                    :      30000. kBytes
   nonl-proj                               :      78312. kBytes
   fftplans                                :     108821. kBytes
   grid                                    :      83991. kBytes
   one-center                              :         18. kBytes
   wavefun                                 :     102432. kBytes

     INWAV:  cpu time     31.2209: real time     31.2400
 Broyden mixing: mesh for mixing (old mesh)
   NGX = 83   NGY = 83   NGZ =151
  (NGX  =336   NGY  =336   NGZ  =640)
  gives a total of ****** points

 initial charge density was supplied:
 number of electron     289.9999999 magnetization 
 keeping initial charge density in first step


--------------------------------------------------------------------------------------------------------


 Maximum index for augmentation-charges        11822 (set IRDMAX)


--------------------------------------------------------------------------------------------------------


 First call to EWALD:  gamma=   0.100
 Maximum number of real-space cells   3x   3x   2
 Maximum number of reciprocal cells   2x   2x   4

    FEWALD:  cpu time      0.0127: real time      0.0127


--------------------------------------- Ionic step        1  -------------------------------------------




--------------------------------------- Iteration      1(   1)  ---------------------------------------


    POTLOK:  cpu time      2.1746: real time      2.1761
    SETDIJ:  cpu time      1.5747: real time      1.5762
    EDDIAG:  cpu time     63.2617: real time     63.3008
     EDDAV:  cpu time    280.3388: real time    280.5028
       DOS:  cpu time      0.0064: real time      0.0066
    CHARGE:  cpu time     35.6329: real time     35.6650
    MIXING:  cpu time      0.0497: real time      0.0509
    --------------------------------------------
      LOOP:  cpu time    383.0389: real time    383.2785

 eigenvalue-minimisations  :  3072
 total energy-change (2. order) :-0.7214090E+03  (-0.8328175E+00)
 number of electron     289.9999999 magnetization 
 augmentation part      -15.7073202 magnetization 

 Broyden mixing:
  rms(total) = 0.10029E+01    rms(broyden)= 0.25381E+02
  rms(prec ) = 0.10368E+01
  weight for this iteration     100.00
  WARNING: grid for Broyden might be to small

 Free energy of the ion-electron system (eV)
  ---------------------------------------------------
  alpha Z        PSCENC =        31.58807593
  Ewald energy   TEWEN  =     36944.48641213
  -Hartree energ DENC   =    -43197.09263853
  -exchange      EXHF   =         0.00000000
  -V(xc)+E(xc)   XCENC  =      -303.76370606
  PAW double counting   =     26052.27783571   -25364.77787301
  entropy T*S    EENTRO =        -0.20062595
  eigenvalues    EBANDS =     -2170.37521861
  atomic energy  EATOM  =      7286.44873780
  Solvation  Ediel_sol  =         0.00000000
  ---------------------------------------------------
  free energy    TOTEN  =      -721.40900059 eV

  energy without entropy =     -721.20837464  energy(sigma->0) =     -721.30868761


--------------------------------------------------------------------------------------------------------




--------------------------------------- Iteration      1(   2)  ---------------------------------------


    POTLOK:  cpu time      2.1346: real time      2.1500
    SETDIJ:  cpu time      1.5847: real time      1.5857
    EDDIAG:  cpu time     63.4483: real time     63.4859
     EDDAV:  cpu time    281.3800: real time    281.5308
       DOS:  cpu time      0.0038: real time      0.0038
    CHARGE:  cpu time     35.5293: real time     35.5586
    MIXING:  cpu time      0.0428: real time      0.0433
    --------------------------------------------
      LOOP:  cpu time    384.1234: real time    384.3580

 eigenvalue-minimisations  :  3088
 total energy-change (2. order) : 0.5183434E+02  (-0.7960145E+00)
 number of electron     289.9999999 magnetization 
 augmentation part      -15.6814616 magnetization 

 Broyden mixing:
  rms(total) = 0.69154E+00    rms(broyden)= 0.14552E+02
  rms(prec ) = 0.71205E+00
  weight for this iteration     100.00
  WARNING: grid for Broyden might be to small

 eigenvalues of (default mixing * dielectric matrix)
  average eigenvalue GAMMA=   0.6357
  0.6357

 Free energy of the ion-electron system (eV)
  ---------------------------------------------------
  alpha Z        PSCENC =        31.58807593
  Ewald energy   TEWEN  =     36944.48641213
  -Hartree energ DENC   =    -43185.86052101
  -exchange      EXHF   =         0.00000000
  -V(xc)+E(xc)   XCENC  =      -296.83221893
  PAW double counting   =     30930.29873006   -30242.61524856
  entropy T*S    EENTRO =        -0.18998646
  eigenvalues    EBANDS =     -2136.89864627
  atomic energy  EATOM  =      7286.44873780
  Solvation  Ediel_sol  =         0.00000000
  ---------------------------------------------------
  free energy    TOTEN  =      -669.57466531 eV

  energy without entropy =     -669.38467885  energy(sigma->0) =     -669.47967208


--------------------------------------------------------------------------------------------------------




--------------------------------------- Iteration      1(   3)  ---------------------------------------


    POTLOK:  cpu time      2.1319: real time      2.1513
    SETDIJ:  cpu time      1.5841: real time      1.5850
    EDDIAG:  cpu time     63.3866: real time     63.4241
     EDDAV:  cpu time    280.6254: real time    280.7891
       DOS:  cpu time      0.0029: real time      0.0029
    CHARGE:  cpu time     35.4668: real time     35.5000
    MIXING:  cpu time      0.0409: real time      0.0409
    --------------------------------------------
      LOOP:  cpu time    383.2385: real time    383.4933

 eigenvalue-minimisations  :  3072
 total energy-change (2. order) :-0.2269424E+01  (-0.6610684E+00)
 number of electron     289.9999999 magnetization 
 augmentation part      -15.6066682 magnetization 

 Broyden mixing:
  rms(total) = 0.38548E+00    rms(broyden)= 0.16731E+02
  rms(prec ) = 0.45095E+00
  weight for this iteration     100.00
  WARNING: grid for Broyden might be to small

 eigenvalues of (default mixing * dielectric matrix)
  average eigenvalue GAMMA=   0.7653
  0.9015  0.6290

 Free energy of the ion-electron system (eV)
  ---------------------------------------------------
  alpha Z        PSCENC =        31.58807593
  Ewald energy   TEWEN  =     36944.48641213
  -Hartree energ DENC   =    -43187.45180871
  -exchange      EXHF   =         0.00000000
  -V(xc)+E(xc)   XCENC  =      -299.27686249
  PAW double counting   =     35966.38612521   -35278.84521799
  entropy T*S    EENTRO =        -0.18165287
  eigenvalues    EBANDS =     -2134.99789865
  atomic energy  EATOM  =      7286.44873780
  Solvation  Ediel_sol  =         0.00000000
  ---------------------------------------------------
  free energy    TOTEN  =      -671.84408963 eV

  energy without entropy =     -671.66243677  energy(sigma->0) =     -671.75326320


--------------------------------------------------------------------------------------------------------




--------------------------------------- Iteration      1(   4)  ---------------------------------------


    POTLOK:  cpu time      2.1331: real time      2.1526
    SETDIJ:  cpu time      1.6315: real time      1.6330
    EDDIAG:  cpu time     63.3909: real time     63.4282
     EDDAV:  cpu time    302.5384: real time    302.7051
       DOS:  cpu time      0.0028: real time      0.0028
    CHARGE:  cpu time     35.4911: real time     35.5230
    MIXING:  cpu time      0.0412: real time      0.0413
    --------------------------------------------
      LOOP:  cpu time    405.2292: real time    405.4859

 eigenvalue-minimisations  :  3504
 total energy-change (2. order) : 0.1837802E+00  (-0.1052191E+00)
 number of electron     289.9999999 magnetization 
 augmentation part      -15.6128377 magnetization 

 Broyden mixing:
  rms(total) = 0.13528E+00    rms(broyden)= 0.43106E+01
  rms(prec ) = 0.22094E+00
  weight for this iteration     100.00
  WARNING: grid for Broyden might be to small

 eigenvalues of (default mixing * dielectric matrix)
  average eigenvalue GAMMA=   0.8125
  1.3070  0.6326  0.4979

 Free energy of the ion-electron system (eV)
  ---------------------------------------------------
  alpha Z        PSCENC =        31.58807593
  Ewald energy   TEWEN  =     36944.48641213
  -Hartree energ DENC   =    -43186.37616405
  -exchange      EXHF   =         0.00000000
  -V(xc)+E(xc)   XCENC  =      -299.64239663
  PAW double counting   =     40634.06837692   -39946.58693883
  entropy T*S    EENTRO =        -0.18980030
  eigenvalues    EBANDS =     -2135.45661245
  atomic energy  EATOM  =      7286.44873780
  Solvation  Ediel_sol  =         0.00000000
  ---------------------------------------------------
  free energy    TOTEN  =      -671.66030947 eV

  energy without entropy =     -671.47050916  energy(sigma->0) =     -671.56540931


--------------------------------------------------------------------------------------------------------




--------------------------------------- Iteration      1(   5)  ---------------------------------------


    POTLOK:  cpu time      2.1311: real time      2.1525
    SETDIJ:  cpu time      1.5809: real time      1.5820
    EDDIAG:  cpu time     63.4256: real time     63.4640
     EDDAV:  cpu time    298.5625: real time    298.7297
       DOS:  cpu time      0.0034: real time      0.0034
    CHARGE:  cpu time     35.5010: real time     35.5312
    MIXING:  cpu time      0.0588: real time      0.0596
    --------------------------------------------
      LOOP:  cpu time    401.2641: real time    401.5233

 eigenvalue-minimisations  :  3424
 total energy-change (2. order) : 0.1865917E-01  (-0.4072842E-01)
 number of electron     289.9999999 magnetization 
 augmentation part      -15.6118964 magnetization 

 Broyden mixing:
  rms(total) = 0.79418E-01    rms(broyden)= 0.76041E+00
  rms(prec ) = 0.11672E+00
  weight for this iteration     100.00
  WARNING: grid for Broyden might be to small

 eigenvalues of (default mixing * dielectric matrix)
  average eigenvalue GAMMA=   0.9728
  2.1422  0.7617  0.6278  0.3594

 Free energy of the ion-electron system (eV)
  ---------------------------------------------------
  alpha Z        PSCENC =        31.58807593
  Ewald energy   TEWEN  =     36944.48641213
  -Hartree energ DENC   =    -43186.92390968
  -exchange      EXHF   =         0.00000000
  -V(xc)+E(xc)   XCENC  =      -300.34967533
  PAW double counting   =     40932.26251678   -40244.77134039
  entropy T*S    EENTRO =        -0.19507898
  eigenvalues    EBANDS =     -2134.18738857
  atomic energy  EATOM  =      7286.44873780
  Solvation  Ediel_sol  =         0.00000000
  ---------------------------------------------------
  free energy    TOTEN  =      -671.64165030 eV

  energy without entropy =     -671.44657132  energy(sigma->0) =     -671.54411081


--------------------------------------------------------------------------------------------------------




--------------------------------------- Iteration      1(   6)  ---------------------------------------


    POTLOK:  cpu time      2.1423: real time      2.1569
    SETDIJ:  cpu time      1.5802: real time      1.5826
    EDDIAG:  cpu time     63.4068: real time     63.4452
     EDDAV:  cpu time    294.5614: real time    294.7261
       DOS:  cpu time      0.0122: real time      0.0129
    CHARGE:  cpu time     35.4884: real time     35.5198
    MIXING:  cpu time      0.0429: real time      0.0429
    --------------------------------------------
      LOOP:  cpu time    397.2332: real time    397.4855

 eigenvalue-minimisations  :  3344
 total energy-change (2. order) : 0.1030648E-01  (-0.1564617E-01)
 number of electron     289.9999999 magnetization 
 augmentation part      -15.6220247 magnetization 

 Broyden mixing:
  rms(total) = 0.74553E-01    rms(broyden)= 0.46296E+00
  rms(prec ) = 0.86563E-01
  weight for this iteration     100.00
  WARNING: grid for Broyden might be to small

 eigenvalues of (default mixing * dielectric matrix)
  average eigenvalue GAMMA=   0.9589
  2.4133  0.8687  0.6206  0.5196  0.3724

 Free energy of the ion-electron system (eV)
  ---------------------------------------------------
  alpha Z        PSCENC =        31.58807593
  Ewald energy   TEWEN  =     36944.48641213
  -Hartree energ DENC   =    -43186.46524084
  -exchange      EXHF   =         0.00000000
  -V(xc)+E(xc)   XCENC  =      -300.52794341
  PAW double counting   =     40730.70189545   -40043.19086905
  entropy T*S    EENTRO =        -0.19629833
  eigenvalues    EBANDS =     -2134.47611349
  atomic energy  EATOM  =      7286.44873780
  Solvation  Ediel_sol  =         0.00000000
  ---------------------------------------------------
  free energy    TOTEN  =      -671.63134382 eV

  energy without entropy =     -671.43504549  energy(sigma->0) =     -671.53319465


--------------------------------------------------------------------------------------------------------




--------------------------------------- Iteration      1(   7)  ---------------------------------------


    POTLOK:  cpu time      2.1357: real time      2.1525
    SETDIJ:  cpu time      1.5709: real time      1.5718
    EDDIAG:  cpu time     63.3584: real time     63.3946
     EDDAV:  cpu time    287.2200: real time    287.3806
       DOS:  cpu time      0.0029: real time      0.0029
    CHARGE:  cpu time     35.5079: real time     35.5404
    MIXING:  cpu time      0.0428: real time      0.0428
    --------------------------------------------
      LOOP:  cpu time    389.8386: real time    390.0855

 eigenvalue-minimisations  :  3200
 total energy-change (2. order) : 0.4493411E-02  (-0.3607630E-02)
 number of electron     289.9999999 magnetization 
 augmentation part      -15.6171449 magnetization 

 Broyden mixing:
  rms(total) = 0.26234E-01    rms(broyden)= 0.28443E+00
  rms(prec ) = 0.29392E-01
  weight for this iteration     100.00
  WARNING: grid for Broyden might be to small

 eigenvalues of (default mixing * dielectric matrix)
  average eigenvalue GAMMA=   0.9484
  2.5553  1.0375  0.6158  0.6158  0.5039  0.3624

 Free energy of the ion-electron system (eV)
  ---------------------------------------------------
  alpha Z        PSCENC =        31.58807593
  Ewald energy   TEWEN  =     36944.48641213
  -Hartree energ DENC   =    -43186.53563622
  -exchange      EXHF   =         0.00000000
  -V(xc)+E(xc)   XCENC  =      -300.59734675
  PAW double counting   =     40792.00448095   -40104.49505164
  entropy T*S    EENTRO =        -0.19549321
  eigenvalues    EBANDS =     -2134.33102940
  atomic energy  EATOM  =      7286.44873780
  Solvation  Ediel_sol  =         0.00000000
  ---------------------------------------------------
  free energy    TOTEN  =      -671.62685040 eV

  energy without entropy =     -671.43135719  energy(sigma->0) =     -671.52910380


--------------------------------------------------------------------------------------------------------




--------------------------------------- Iteration      1(   8)  ---------------------------------------


    POTLOK:  cpu time      2.1309: real time      2.1497
    SETDIJ:  cpu time      1.5756: real time      1.5767
    EDDIAG:  cpu time     63.4348: real time     63.4736
     EDDAV:  cpu time    300.9961: real time    301.1653
       DOS:  cpu time      0.0057: real time      0.0057
    CHARGE:  cpu time     35.4955: real time     35.5269
    MIXING:  cpu time      0.0440: real time      0.0440
    --------------------------------------------
      LOOP:  cpu time    403.6828: real time    403.9420

 eigenvalue-minimisations  :  3472
 total energy-change (2. order) : 0.2431432E-02  (-0.8278747E-03)
 number of electron     289.9999999 magnetization 
 augmentation part      -15.6164678 magnetization 

 Broyden mixing:
  rms(total) = 0.19869E-01    rms(broyden)= 0.74336E-01
  rms(prec ) = 0.22119E-01
  weight for this iteration     100.00
  WARNING: grid for Broyden might be to small

 eigenvalues of (default mixing * dielectric matrix)
  average eigenvalue GAMMA=   0.9008
  2.5665  1.0277  0.6463  0.5680  0.5680  0.3711  0.5578

 Free energy of the ion-electron system (eV)
  ---------------------------------------------------
  alpha Z        PSCENC =        31.58807593
  Ewald energy   TEWEN  =     36944.48641213
  -Hartree energ DENC   =    -43185.70713373
  -exchange      EXHF   =         0.00000000
  -V(xc)+E(xc)   XCENC  =      -300.51554087
  PAW double counting   =     40750.70013861   -40063.18145298
  entropy T*S    EENTRO =        -0.19515690
  eigenvalues    EBANDS =     -2135.24849898
  atomic energy  EATOM  =      7286.44873780
  Solvation  Ediel_sol  =         0.00000000
  ---------------------------------------------------
  free energy    TOTEN  =      -671.62441897 eV

  energy without entropy =     -671.42926207  energy(sigma->0) =     -671.52684052


--------------------------------------------------------------------------------------------------------




--------------------------------------- Iteration      1(   9)  ---------------------------------------


    POTLOK:  cpu time      2.1267: real time      2.1478
    SETDIJ:  cpu time      1.5718: real time      1.5725
    EDDIAG:  cpu time     63.3917: real time     63.4285
     EDDAV:  cpu time    286.9235: real time    287.0827
       DOS:  cpu time      0.0046: real time      0.0046
    CHARGE:  cpu time     35.5099: real time     35.5409
    MIXING:  cpu time      0.0446: real time      0.0446
    --------------------------------------------
      LOOP:  cpu time    389.5731: real time    389.8217

 eigenvalue-minimisations  :  3200
 total energy-change (2. order) :-0.3277166E-03  (-0.4173279E-03)
 number of electron     289.9999999 magnetization 
 augmentation part      -15.6143445 magnetization 

 Broyden mixing:
  rms(total) = 0.59845E-02    rms(broyden)= 0.74773E-01
  rms(prec ) = 0.69621E-02
  weight for this iteration     100.00
  WARNING: grid for Broyden might be to small

 eigenvalues of (default mixing * dielectric matrix)
  average eigenvalue GAMMA=   0.9394
  2.5831  1.3944  0.8573  0.6523  0.6232  0.5201  0.5201  0.3646

 Free energy of the ion-electron system (eV)
  ---------------------------------------------------
  alpha Z        PSCENC =        31.58807593
  Ewald energy   TEWEN  =     36944.48641213
  -Hartree energ DENC   =    -43185.39721615
  -exchange      EXHF   =         0.00000000
  -V(xc)+E(xc)   XCENC  =      -300.41292164
  PAW double counting   =     40769.23782141   -40081.71268716
  entropy T*S    EENTRO =        -0.19518021
  eigenvalues    EBANDS =     -2135.66778880
  atomic energy  EATOM  =      7286.44873780
  Solvation  Ediel_sol  =         0.00000000
  ---------------------------------------------------
  free energy    TOTEN  =      -671.62474669 eV

  energy without entropy =     -671.42956648  energy(sigma->0) =     -671.52715658


--------------------------------------------------------------------------------------------------------




--------------------------------------- Iteration      1(  10)  ---------------------------------------


    POTLOK:  cpu time      2.1347: real time      2.1513
    SETDIJ:  cpu time      1.5758: real time      1.5764
    EDDIAG:  cpu time     63.4014: real time     63.4346
     EDDAV:  cpu time    291.2557: real time    291.4195
       DOS:  cpu time      0.0031: real time      0.0031
    CHARGE:  cpu time     35.5080: real time     35.5400
    MIXING:  cpu time      0.0676: real time      0.0696
    --------------------------------------------
      LOOP:  cpu time    393.9460: real time    394.1943

 eigenvalue-minimisations  :  3280
 total energy-change (2. order) : 0.1544819E-03  (-0.1251582E-03)
 number of electron     289.9999999 magnetization 
 augmentation part      -15.6145621 magnetization 

 Broyden mixing:
  rms(total) = 0.43987E-02    rms(broyden)= 0.77354E-01
  rms(prec ) = 0.54557E-02
  weight for this iteration     100.00
  WARNING: grid for Broyden might be to small

 eigenvalues of (default mixing * dielectric matrix)
  average eigenvalue GAMMA=   0.9359
  2.5803  1.4170  0.9350  0.7605  0.7605  0.3617  0.6229  0.4925  0.4925

 Free energy of the ion-electron system (eV)
  ---------------------------------------------------
  alpha Z        PSCENC =        31.58807593
  Ewald energy   TEWEN  =     36944.48641213
  -Hartree energ DENC   =    -43185.15326553
  -exchange      EXHF   =         0.00000000
  -V(xc)+E(xc)   XCENC  =      -300.39617132
  PAW double counting   =     40768.21281034   -40080.68289280
  entropy T*S    EENTRO =        -0.19509194
  eigenvalues    EBANDS =     -2135.93320682
  atomic energy  EATOM  =      7286.44873780
  Solvation  Ediel_sol  =         0.00000000
  ---------------------------------------------------
  free energy    TOTEN  =      -671.62459221 eV

  energy without entropy =     -671.42950027  energy(sigma->0) =     -671.52704624


--------------------------------------------------------------------------------------------------------




--------------------------------------- Iteration      1(  11)  ---------------------------------------


    POTLOK:  cpu time      2.1379: real time      2.1499
    SETDIJ:  cpu time      1.5957: real time      1.5973
    EDDIAG:  cpu time     63.3382: real time     63.3741
     EDDAV:  cpu time    290.8628: real time    291.0303
       DOS:  cpu time      0.0111: real time      0.0112
    CHARGE:  cpu time     35.5481: real time     35.5804
    MIXING:  cpu time      0.0478: real time      0.0478
    --------------------------------------------
      LOOP:  cpu time    393.5415: real time    393.7910

 eigenvalue-minimisations  :  3272
 total energy-change (2. order) :-0.3599564E-04  (-0.4190403E-04)
 number of electron     289.9999999 magnetization 
 augmentation part      -15.6140783 magnetization 

 Broyden mixing:
  rms(total) = 0.19205E-02    rms(broyden)= 0.13063E-01
  rms(prec ) = 0.23197E-02
  weight for this iteration     100.00
  WARNING: grid for Broyden might be to small

 eigenvalues of (default mixing * dielectric matrix)
  average eigenvalue GAMMA=   0.9887
  2.5619  2.2352  0.9837  0.8533  0.7516  0.6333  0.3603  0.5061  0.5061  0.4956

 Free energy of the ion-electron system (eV)
  ---------------------------------------------------
  alpha Z        PSCENC =        31.58807593
  Ewald energy   TEWEN  =     36944.48641213
  -Hartree energ DENC   =    -43184.91339058
  -exchange      EXHF   =         0.00000000
  -V(xc)+E(xc)   XCENC  =      -300.38509786
  PAW double counting   =     40777.58415580   -40090.05266353
  entropy T*S    EENTRO =        -0.19511197
  eigenvalues    EBANDS =     -2136.18574592
  atomic energy  EATOM  =      7286.44873780
  Solvation  Ediel_sol  =         0.00000000
  ---------------------------------------------------
  free energy    TOTEN  =      -671.62462820 eV

  energy without entropy =     -671.42951623  energy(sigma->0) =     -671.52707222


--------------------------------------------------------------------------------------------------------




--------------------------------------- Iteration      1(  12)  ---------------------------------------


    POTLOK:  cpu time      2.1558: real time      2.1762
    SETDIJ:  cpu time      1.5800: real time      1.5804
    EDDIAG:  cpu time     63.3447: real time     63.3828
     EDDAV:  cpu time    288.5809: real time    288.7439
       DOS:  cpu time      0.0078: real time      0.0079
    CHARGE:  cpu time     35.5429: real time     35.5737
    MIXING:  cpu time      0.0463: real time      0.0464
    --------------------------------------------
      LOOP:  cpu time    391.2584: real time    391.5112

 eigenvalue-minimisations  :  3224
 total energy-change (2. order) :-0.7449185E-04  (-0.2993833E-04)
 number of electron     289.9999999 magnetization 
 augmentation part      -15.6143248 magnetization 

 Broyden mixing:
  rms(total) = 0.90786E-03    rms(broyden)= 0.89871E-02
  rms(prec ) = 0.12104E-02
  weight for this iteration     100.00
  WARNING: grid for Broyden might be to small

 eigenvalues of (default mixing * dielectric matrix)
  average eigenvalue GAMMA=   1.0259
  2.6392  2.6392  1.1421  0.8348  0.8348  0.7171  0.3606  0.6261  0.4966  0.4966
  0.4982

 Free energy of the ion-electron system (eV)
  ---------------------------------------------------
  alpha Z        PSCENC =        31.58807593
  Ewald energy   TEWEN  =     36944.48641213
  -Hartree energ DENC   =    -43184.65518385
  -exchange      EXHF   =         0.00000000
  -V(xc)+E(xc)   XCENC  =      -300.39536745
  PAW double counting   =     40773.89101632   -40086.35844813
  entropy T*S    EENTRO =        -0.19517559
  eigenvalues    EBANDS =     -2136.43476987
  atomic energy  EATOM  =      7286.44873780
  Solvation  Ediel_sol  =         0.00000000
  ---------------------------------------------------
  free energy    TOTEN  =      -671.62470269 eV

  energy without entropy =     -671.42952711  energy(sigma->0) =     -671.52711490


--------------------------------------------------------------------------------------------------------




--------------------------------------- Iteration      1(  13)  ---------------------------------------


    POTLOK:  cpu time      2.1294: real time      2.1512
    SETDIJ:  cpu time      1.5829: real time      1.5840
    EDDIAG:  cpu time     63.4164: real time     63.4537
     EDDAV:  cpu time    287.3549: real time    287.5157
       DOS:  cpu time      0.0038: real time      0.0038
    CHARGE:  cpu time     35.4907: real time     35.5231
    MIXING:  cpu time      0.0474: real time      0.0474
    --------------------------------------------
      LOOP:  cpu time    390.0255: real time    390.2789

 eigenvalue-minimisations  :  3200
 total energy-change (2. order) :-0.1647020E-03  (-0.2902605E-04)
 number of electron     289.9999999 magnetization 
 augmentation part      -15.6144977 magnetization 

 Broyden mixing:
  rms(total) = 0.81361E-03    rms(broyden)= 0.69153E-02
  rms(prec ) = 0.10517E-02
  weight for this iteration     100.00
  WARNING: grid for Broyden might be to small

 eigenvalues of (default mixing * dielectric matrix)
  average eigenvalue GAMMA=   1.0474
  2.7165  2.7165  1.3136  0.9757  0.9757  0.6898  0.6898  0.3607  0.6153  0.4934
  0.4934  0.5279

 Free energy of the ion-electron system (eV)
  ---------------------------------------------------
  alpha Z        PSCENC =        31.58807593
  Ewald energy   TEWEN  =     36944.48641213
  -Hartree energ DENC   =    -43184.31787450
  -exchange      EXHF   =         0.00000000
  -V(xc)+E(xc)   XCENC  =      -300.40177175
  PAW double counting   =     40770.96560740   -40083.43231905
  entropy T*S    EENTRO =        -0.19515399
  eigenvalues    EBANDS =     -2136.76658136
  atomic energy  EATOM  =      7286.44873780
  Solvation  Ediel_sol  =         0.00000000
  ---------------------------------------------------
  free energy    TOTEN  =      -671.62486740 eV

  energy without entropy =     -671.42971340  energy(sigma->0) =     -671.52729040


--------------------------------------------------------------------------------------------------------




--------------------------------------- Iteration      1(  14)  ---------------------------------------


    POTLOK:  cpu time      2.1500: real time      2.1523
    SETDIJ:  cpu time      1.5784: real time      1.5792
    EDDIAG:  cpu time     63.3920: real time     63.4318
     EDDAV:  cpu time    287.4066: real time    287.5675
       DOS:  cpu time      0.0045: real time      0.0045
    CHARGE:  cpu time     35.4952: real time     35.5279
    MIXING:  cpu time      0.0479: real time      0.0479
    --------------------------------------------
      LOOP:  cpu time    390.0746: real time    390.3111

 eigenvalue-minimisations  :  3200
 total energy-change (2. order) :-0.1539417E-03  (-0.1571928E-04)
 number of electron     289.9999999 magnetization 
 augmentation part      -15.6144953 magnetization 

 Broyden mixing:
  rms(total) = 0.33896E-03    rms(broyden)= 0.34245E-02
  rms(prec ) = 0.55694E-03
  weight for this iteration     100.00
  WARNING: grid for Broyden might be to small

 eigenvalues of (default mixing * dielectric matrix)
  average eigenvalue GAMMA=   1.0797
  2.8077  2.8077  1.7148  1.1312  0.8870  0.8870  0.3607  0.6388  0.6388  0.6560
  0.4855  0.4855  0.5351

 Free energy of the ion-electron system (eV)
  ---------------------------------------------------
  alpha Z        PSCENC =        31.58807593
  Ewald energy   TEWEN  =     36944.48641213
  -Hartree energ DENC   =    -43184.11014006
  -exchange      EXHF   =         0.00000000
  -V(xc)+E(xc)   XCENC  =      -300.40587660
  PAW double counting   =     40771.60476001   -40084.07149913
  entropy T*S    EENTRO =        -0.19516633
  eigenvalues    EBANDS =     -2136.97032510
  atomic energy  EATOM  =      7286.44873780
  Solvation  Ediel_sol  =         0.00000000
  ---------------------------------------------------
  free energy    TOTEN  =      -671.62502134 eV

  energy without entropy =     -671.42985501  energy(sigma->0) =     -671.52743817


--------------------------------------------------------------------------------------------------------




--------------------------------------- Iteration      1(  15)  ---------------------------------------


    POTLOK:  cpu time      2.1273: real time      2.1524
    SETDIJ:  cpu time      1.5822: real time      1.5831
    EDDIAG:  cpu time     63.3502: real time     63.3886
     EDDAV:  cpu time    287.2863: real time    287.4544
       DOS:  cpu time      0.0029: real time      0.0029
    CHARGE:  cpu time     35.4963: real time     35.5264
    MIXING:  cpu time      0.0488: real time      0.0488
    --------------------------------------------
      LOOP:  cpu time    389.8939: real time    390.1566

 eigenvalue-minimisations  :  3200
 total energy-change (2. order) :-0.1291895E-03  (-0.1920998E-04)
 number of electron     289.9999999 magnetization 
 augmentation part      -15.6145314 magnetization 

 Broyden mixing:
  rms(total) = 0.32476E-03    rms(broyden)= 0.19294E-02
  rms(prec ) = 0.47358E-03
  weight for this iteration     100.00
  WARNING: grid for Broyden might be to small

 eigenvalues of (default mixing * dielectric matrix)
  average eigenvalue GAMMA=   1.0900
  2.8670  2.8670  2.0208  1.1464  0.9821  0.9821  0.3607  0.6526  0.6526  0.6292
  0.6177  0.4810  0.4810  0.5205

 Free energy of the ion-electron system (eV)
  ---------------------------------------------------
  alpha Z        PSCENC =        31.58807593
  Ewald energy   TEWEN  =     36944.48641213
  -Hartree energ DENC   =    -43183.91427467
  -exchange      EXHF   =         0.00000000
  -V(xc)+E(xc)   XCENC  =      -300.41047416
  PAW double counting   =     40771.29959063   -40083.76656136
  entropy T*S    EENTRO =        -0.19516182
  eigenvalues    EBANDS =     -2137.16149502
  atomic energy  EATOM  =      7286.44873780
  Solvation  Ediel_sol  =         0.00000000
  ---------------------------------------------------
  free energy    TOTEN  =      -671.62515053 eV

  energy without entropy =     -671.42998871  energy(sigma->0) =     -671.52756962


--------------------------------------------------------------------------------------------------------




--------------------------------------- Iteration      1(  16)  ---------------------------------------


    POTLOK:  cpu time      2.1462: real time      2.1479
    SETDIJ:  cpu time      1.6584: real time      1.6592
    EDDIAG:  cpu time     63.3518: real time     63.3910
     EDDAV:  cpu time    287.3079: real time    287.4751
       DOS:  cpu time      0.0030: real time      0.0030
    CHARGE:  cpu time     35.4953: real time     35.5303
    MIXING:  cpu time      0.0501: real time      0.0501
    --------------------------------------------
      LOOP:  cpu time    390.0126: real time    390.2565

 eigenvalue-minimisations  :  3200
 total energy-change (2. order) :-0.1640497E-03  (-0.2764705E-04)
 number of electron     289.9999999 magnetization 
 augmentation part      -15.6146089 magnetization 

 Broyden mixing:
  rms(total) = 0.15768E-03    rms(broyden)= 0.26926E-02
  rms(prec ) = 0.25688E-03
  weight for this iteration     100.00
  WARNING: grid for Broyden might be to small

 eigenvalues of (default mixing * dielectric matrix)
  average eigenvalue GAMMA=   1.1323
  3.2305  2.7781  2.3643  1.3042  1.0327  1.0327  0.8748  0.3607  0.6414  0.6414
  0.6304  0.6304  0.4830  0.4830  0.4971

 Free energy of the ion-electron system (eV)
  ---------------------------------------------------
  alpha Z        PSCENC =        31.58807593
  Ewald energy   TEWEN  =     36944.48641213
  -Hartree energ DENC   =    -43183.66567406
  -exchange      EXHF   =         0.00000000
  -V(xc)+E(xc)   XCENC  =      -300.41430026
  PAW double counting   =     40771.00999952   -40083.47730297
  entropy T*S    EENTRO =        -0.19516853
  eigenvalues    EBANDS =     -2137.40609413
  atomic energy  EATOM  =      7286.44873780
  Solvation  Ediel_sol  =         0.00000000
  ---------------------------------------------------
[...]
   0.534E+00 0.286E+02 -.323E+03   -.494E+00 -.286E+02 0.324E+03   -.272E+00 -.331E+00 -.259E+00   0.222E-04 -.800E-04 -.211E-04
   0.914E+01 0.503E+01 -.264E+03   -.864E+01 -.465E+01 0.265E+03   -.196E+01 0.565E+00 -.530E+00   -.270E-04 -.412E-04 -.212E-04
   0.590E+00 -.222E+01 0.454E+02   -.704E+00 0.172E+01 -.416E+02   0.964E+00 0.219E-02 -.313E+01   0.662E-05 0.633E-04 -.119E-03
   0.935E+01 -.176E+02 -.393E+02   -.866E+01 0.140E+02 0.373E+02   0.102E+01 0.392E+01 0.182E+01   0.590E-05 0.452E-04 -.525E-04
   0.202E+00 -.117E+02 0.869E+02   -.450E+00 0.959E+01 -.911E+02   0.718E-01 0.305E+01 0.482E+01   -.114E-04 -.132E-06 -.766E-04
   0.118E+02 -.236E+01 0.655E+02   -.110E+02 0.181E+01 -.662E+02   -.120E+01 0.692E+00 0.442E+00   -.379E-04 0.194E-04 -.624E-04
   0.239E+02 -.389E+01 0.473E+02   -.244E+02 0.287E+01 -.487E+02   0.817E+00 0.567E+00 0.125E+01   -.842E-05 -.707E-05 -.790E-04
   -.428E+02 0.322E+02 0.203E+02   0.417E+02 -.303E+02 -.163E+02   0.768E-01 -.244E+01 -.489E+01   0.682E-05 -.357E-04 -.692E-04
   0.324E+02 -.461E+02 0.244E+03   -.307E+02 0.450E+02 -.244E+03   -.305E+01 0.968E+00 -.321E+00   -.176E-04 -.937E-05 -.473E-04
   0.452E+01 -.544E+01 -.254E+03   -.269E+00 0.837E+01 0.252E+03   -.349E+01 -.312E+01 0.229E+01   -.129E-03 0.737E-04 -.306E-04
   0.188E+02 -.111E+02 0.272E+03   -.183E+02 0.981E+01 -.273E+03   -.194E+01 0.275E+01 -.658E+00   -.153E-04 0.536E-04 -.178E-04
   -.513E+01 -.856E+01 -.297E+03   0.779E+01 0.883E+01 0.295E+03   -.402E+01 -.559E+00 0.160E+01   -.543E-04 -.359E-05 -.280E-04
   0.101E+02 0.343E+02 -.285E+03   -.117E+02 -.357E+02 0.287E+03   0.186E+01 0.272E+01 -.136E+01   -.124E-04 -.228E-04 -.133E-04
   -.188E+02 -.351E+00 0.183E+03   0.197E+02 0.585E+00 -.184E+03   -.616E-01 -.812E+00 0.660E+00   0.184E-04 -.254E-04 -.758E-04
   -.747E+01 -.317E+02 0.765E+02   0.736E+01 0.298E+02 -.767E+02   0.641E+00 0.222E+01 -.196E+00   -.968E-05 0.328E-04 -.516E-04
   -.207E+02 0.288E+02 -.194E+03   0.214E+02 -.287E+02 0.194E+03   -.252E+00 -.196E+00 0.143E+01   0.255E-04 -.641E-04 -.423E-04
   -.122E+02 0.170E+02 0.194E+03   0.111E+02 -.158E+02 -.193E+03   0.102E+01 -.153E+01 -.165E+01   0.182E-05 -.252E-06 -.499E-04
   0.932E+01 -.189E+02 0.392E+02   -.754E+01 0.216E+02 -.373E+02   -.158E+01 -.356E+01 -.132E+01   0.200E-04 -.791E-04 -.105E-03
   -.268E+01 0.133E+02 -.206E+03   0.367E+01 -.154E+02 0.203E+03   -.640E+00 0.289E+01 0.292E+01   -.662E-06 -.272E-04 -.455E-04
   -.159E+02 0.122E+02 0.154E+03   0.160E+02 -.118E+02 -.157E+03   -.693E+00 -.488E+00 0.227E+01   0.988E-05 -.673E-04 -.907E-04
   0.126E+02 0.886E+01 0.293E+03   -.126E+02 -.934E+01 -.291E+03   0.459E-02 -.205E+00 -.215E+01   -.182E-04 -.211E-04 -.154E-04
   0.109E+02 0.714E+01 0.256E+03   -.110E+02 -.521E+01 -.254E+03   0.432E+00 -.291E+01 -.227E+01   0.228E-04 -.418E-04 -.591E-04
   0.273E+02 -.181E+02 -.253E+03   -.267E+02 0.179E+02 0.251E+03   0.224E+00 -.103E+00 0.219E+01   -.293E-04 0.274E-04 -.158E-04
   -.153E+02 0.248E+02 0.258E+03   0.143E+02 -.233E+02 -.256E+03   0.742E+00 -.114E+01 -.181E+01   0.320E-05 -.108E-04 -.373E-04
   0.394E+02 0.336E+02 0.232E+03   -.375E+02 -.303E+02 -.230E+03   -.252E+01 -.333E+01 -.129E+01   -.798E-05 -.240E-04 -.435E-04
   -.291E+02 0.447E+01 0.169E+03   0.284E+02 -.280E+01 -.169E+03   -.172E+00 -.218E+01 0.188E+00   -.149E-04 -.429E-04 -.722E-04
   -.342E+01 0.381E+02 -.514E+01   0.350E+01 -.363E+02 0.478E+01   -.112E+01 -.163E+01 -.139E+00   -.179E-04 -.244E-04 -.842E-04
   -.313E+01 0.361E+02 -.217E+03   0.170E+01 -.354E+02 0.217E+03   0.239E+01 -.141E+01 0.641E+00   -.103E-04 -.325E-04 -.416E-04
   0.103E+02 0.158E+02 0.290E+03   -.112E+02 -.181E+02 -.291E+03   0.106E+01 0.269E+01 -.229E+00   -.140E-04 -.171E-04 -.213E-04
   0.209E+02 0.660E+01 -.152E+03   -.207E+02 -.800E+01 0.153E+03   -.115E+00 0.120E+01 -.843E+00   0.247E-04 0.668E-04 -.414E-04
   -.192E+02 -.530E+01 0.206E+03   0.214E+02 0.374E+01 -.204E+03   -.280E+01 0.175E+01 -.187E+01   0.110E-04 0.350E-04 -.625E-04
   0.229E+02 -.766E+01 -.110E+02   -.204E+02 0.562E+01 0.153E+02   -.288E+01 0.164E+01 -.472E+01   0.264E-04 0.300E-04 -.594E-04
   -.309E+02 -.953E+01 0.124E+03   0.306E+02 0.709E+01 -.121E+03   0.103E-01 0.339E+01 -.377E+01   -.230E-04 0.526E-04 -.947E-04
   0.395E+02 0.174E+02 0.468E+02   -.384E+02 -.176E+02 -.462E+02   -.472E+00 0.442E+00 -.558E+00   -.107E-04 -.202E-04 -.694E-04
   -.195E+02 -.383E+02 -.911E+02   0.177E+02 0.362E+02 0.920E+02   0.160E+01 0.372E+01 -.150E+01   -.350E-04 -.586E-04 -.119E-03
   -.120E+02 -.167E+02 -.136E+03   0.961E+01 0.173E+02 0.136E+03   0.199E+01 -.303E+00 0.167E+01   0.622E-04 -.426E-04 -.494E-04
   -.287E+02 0.172E+02 -.188E+03   0.267E+02 -.165E+02 0.185E+03   0.193E+01 -.349E+00 0.235E+01   0.131E-04 0.379E-04 -.437E-04
   0.412E+02 0.786E+00 0.233E+03   -.367E+02 0.726E+00 -.231E+03   -.452E+01 -.219E+01 -.244E+01   0.334E-04 0.589E-04 -.348E-04
   0.160E+02 -.348E+02 0.121E+03   -.169E+02 0.332E+02 -.122E+03   0.170E+01 0.233E+01 0.214E+00   -.192E-04 -.270E-04 -.597E-04
   0.110E+02 0.109E+02 -.179E+03   -.907E+01 -.101E+02 0.179E+03   -.223E+01 -.187E+01 0.918E+00   -.131E-04 -.952E-04 -.553E-04
   -.392E+02 -.205E+02 0.318E+03   0.401E+02 0.206E+02 -.321E+03   -.257E+00 0.705E+00 0.136E+01   -.939E-06 -.252E-04 -.333E-04
   0.217E+02 -.213E+02 0.173E+03   -.204E+02 0.209E+02 -.170E+03   -.403E+00 0.491E+00 -.367E+01   0.269E-04 -.101E-05 -.876E-04
   -.692E-01 0.205E+02 -.294E+03   -.597E+00 -.199E+02 0.297E+03   0.158E+01 -.666E+00 -.250E+01   0.771E-05 -.325E-04 -.266E-04
   -.270E+02 -.150E+02 0.740E+01   0.270E+02 0.149E+02 -.658E+01   0.357E+00 0.102E+00 -.203E+00   -.434E-04 -.119E-04 -.964E-04
   0.764E+01 -.232E+02 0.121E+03   -.690E+01 0.226E+02 -.121E+03   -.757E+00 0.103E+01 -.996E-01   0.576E-04 -.418E-04 -.827E-04
   -.174E+02 0.239E+02 0.204E+03   0.153E+02 -.229E+02 -.200E+03   0.143E+01 -.198E+01 -.426E+01   -.316E-05 0.532E-04 -.558E-04
   0.264E+02 0.122E+02 -.173E+03   -.267E+02 -.107E+02 0.175E+03   -.812E+00 -.191E+01 -.135E+01   -.187E-04 -.110E-04 -.546E-04
   0.209E+02 -.109E+02 0.302E+03   -.201E+02 0.117E+02 -.300E+03   -.496E+00 -.729E+00 -.252E+01   -.509E-05 -.241E-04 -.265E-04
   -.320E+02 -.312E+02 -.277E+03   0.291E+02 0.306E+02 0.278E+03   0.351E+01 0.536E+00 0.536E+00   -.635E-04 0.839E-04 -.272E-04
   -.360E+02 0.119E+02 -.304E+02   0.341E+02 -.130E+02 0.283E+02   0.223E+01 0.405E+00 0.290E+01   0.193E-04 0.115E-04 -.546E-04
   -.455E+02 0.294E+02 0.209E+03   0.434E+02 -.263E+02 -.207E+03   0.242E+01 -.475E+01 -.280E+01   -.163E-04 0.365E-04 -.492E-04
   -.103E+02 0.177E+02 -.299E+03   0.930E+01 -.162E+02 0.298E+03   0.396E+00 -.181E+01 0.728E+00   -.131E-04 -.206E-04 -.302E-04
 -----------------------------------------------------------------------------------------------
   0.274E+01 -.454E+01 0.135E+02   0.178E-13 -.355E-14 -.512E-12   -.274E+01 0.454E+01 -.135E+02   -.855E-04 -.224E-03 -.374E-02


 POSITION                                       TOTAL-FORCE (eV/Angst)
 -----------------------------------------------------------------------------------
     12.56990     13.70450     10.87581         0.279320     -0.665969     -0.806768
      0.09693     10.51200     16.27241        -0.330589     -0.138191      0.285841
      0.34055      8.38004     15.02898         0.674307     -0.673824     -0.192277
      2.76344     12.88260     14.76454        -0.367294      0.240478     -0.131575
     13.55610     10.70660     10.64610         0.503789      1.114670     -0.059928
      4.82713      9.96271     13.27362         0.026377     -0.274908     -0.156099
      0.55842     10.85390     15.81026         0.223283      0.141062     -0.097555
      2.54845     11.21910     16.57093         0.323136     -0.062178      0.120849
      2.12664      9.69657     14.65897        -0.204083     -0.524082      1.079949
     12.63690     10.05930     14.35359        -0.341817     -0.016673      0.590331
      3.29379     11.13840     16.62459        -0.257892      0.054055      0.038740
      4.25812      8.69084     14.98034        -0.562934     -0.016713      0.031676
     12.56110     10.09970     16.58459        -0.899863      0.373320     -0.288189
     11.70220      8.26695     16.44373         1.112324      0.904836      0.364439
      9.85061     12.35770     14.02999         0.528378      0.520584     -0.000537
      2.54331      8.54612     11.83707        -1.163710      1.879639      0.031909
     13.32210      6.08724     15.23825         0.261915      0.329489     -0.307938
      0.11360     11.55760     13.05012         0.723922      0.865133     -0.127571
      9.24722      1.45752     14.82903         0.755500     -0.340711     -0.223094
      5.91623     12.13070     14.88235        -0.868814      0.131067     -0.318642
     11.64990      4.05960     10.17708        -0.251918     -0.247055      0.553026
      6.55348      6.57935     14.79984         0.550968     -0.673996      1.357119
     10.42940      3.07371     13.59476         0.233423     -0.340831     -0.547737
      1.24300      0.30156     10.81754        -0.084062     -0.220649     -0.893226
      2.74565      5.88006     15.32574        -0.850089      0.785483      0.312899
      7.11184     10.15560     14.57875        -0.460241      0.196251      0.916998
      1.79624     14.06110     14.61637         0.102151     -0.180995      0.242159
      6.06313      4.41720     11.44602         0.545117     -0.447308     -0.464350
      4.53383      5.95347     13.98574         0.278807     -0.566897     -0.217538
      6.36088     14.12190     13.68896        -0.020398     -0.498966     -0.082964
      2.39701     11.65980     10.07696         0.417351     -0.219690      0.617635
     11.21600      3.86339     16.66406        -0.214683     -0.297056      0.396164
      7.55006      4.54071     15.83202        -1.561160      0.977951     -0.186345
     12.80250     10.30980     12.89175         0.889898     -0.509087      0.556115
      4.13142     11.27050     13.48499         1.798842      0.430620     -0.201638
      4.56818     14.44970     12.17155        -0.160768      1.001179      0.881548
      8.21172     13.17920     12.63842        -0.424139      0.186660     -0.225492
      2.41965      0.75636     12.77466         0.374583     -0.433380     -0.169401
     12.88700      2.89149     13.42249        -1.087017     -0.615266     -1.096021
      6.21407      8.33802     11.00310        -1.291706     -0.231750      0.386566
      8.87307      9.48844     15.95760         0.611244     -0.255057     -0.204613
      8.09168     11.75780     10.79508        -1.391253      1.525491     -0.672168
     10.35610      7.76255     16.47604        -1.498666     -0.196280     -0.474495
      2.51779      0.50721     16.56654         0.438397      1.489626      0.497259
      9.63083      3.82326     11.41600         0.777879     -0.652419     -0.061260
      7.60717      9.12989     12.59371         0.609820      0.388086     -0.449497
     13.10160      3.80699     15.38326         0.400128     -0.056310      1.328073
      9.50713      0.16196     11.41123        -0.010581     -0.372391     -0.023221
     12.12880      6.53571     13.20585         0.137727     -1.065180      0.500413
      5.91393      2.88874     15.35584         0.334252      0.976805      0.573537
     13.15760      4.68098     11.89705        -0.657049     -0.101979     -0.083966
      6.37186      2.58372     10.01286         0.094084     -0.806122      0.417847
      0.49148      5.61447     10.96677         0.360082     -1.180613     -0.250379
      5.64753      8.60233     15.43214         0.802738     -0.343451      0.541802
      8.49455      1.97817     10.50575        -0.273929      0.347151      0.124896
      2.46931      4.39611     11.03446        -0.775880     -0.130499      0.969702
      8.13901      5.54241     11.59886        -0.879314     -0.614062     -0.396226
      5.06574      3.69185     13.39551        -1.131234      0.140825     -0.464373
      7.05087      1.01932     15.28469         1.133858     -0.689354      0.174217
      5.07759      0.59324     10.09706         0.299878      0.608899     -0.900003
     14.10240     13.40320     14.49447         0.303547     -0.061669     -0.481937
     11.83730      0.25942     11.46445        -0.789859      0.123935     -0.157138
      2.10459     10.33380     13.37894        -0.501034     -0.343886     -0.598353
     10.96710     11.36250     12.31518        -0.390752      1.024991     -0.315118
      2.73997      3.05049     12.96034         0.660712      0.243756      0.090250
     10.19060      6.63646     14.45119        -0.094388      1.738840     -0.629907
      0.82328      6.99905     14.49856        -0.399204      0.396544      1.317660
     10.86340     14.34160     14.78881        -0.016770      0.352842     -0.589556
      0.42616     12.58230     10.91875        -0.096229     -0.880521      0.313897
      4.28657      7.16141     12.05035         0.823399      0.905356     -0.785523
      9.70005      4.61794     15.13321        -0.381116     -1.177649      0.306939
      7.91515      7.16230     10.00000         0.568199      0.750887     -0.728599
     12.94630      8.24347     12.04377         0.930502      0.144151     -0.830990
      0.39788      3.45713     16.65128         0.990101     -0.022535      0.040911
      8.22078      7.03867     13.28638         0.379509      0.053669      0.608126
      0.58712      7.45362     12.22801        -0.051450      0.486979     -0.767642
      4.27078     12.37340     11.42064        -0.701795     -1.047086     -0.518454
      2.35585      3.63174     15.28031        -1.080806     -0.534127      0.161614
      4.31731      5.53480     10.47023         0.217148     -0.034000     -0.928358
      9.88017     11.47530     16.11868         0.846069     -0.186484      1.045254
     12.73630      0.57954     13.49417         0.443323     -0.675982      0.949683
      9.34777     10.09500     11.44927         0.397134     -1.744644     -0.224986
      3.94393      2.47371     16.53748        -0.638634     -0.462835     -0.394398
 -----------------------------------------------------------------------------------
    total drift:                               -0.004706     -0.001814      0.006336


--------------------------------------------------------------------------------------------------------



  FREE ENERGIE OF THE ION-ELECTRON SYSTEM (eV)
  ---------------------------------------------------
  free  energy   TOTEN  =      -671.62550731 eV

  energy  without entropy=     -671.43032978  energy(sigma->0) =     -671.52791854



--------------------------------------------------------------------------------------------------------


    POTLOK:  cpu time      3.7073: real time      3.7104


--------------------------------------------------------------------------------------------------------


     LOOP+:  cpu time   9154.0647: real time   9160.1084
    4ORBIT:  cpu time      0.0000: real time      0.0000



 total charge

# of ion       s       p       d       tot
------------------------------------------
    1        0.576   0.019   0.000   0.595
    2        0.610   0.035   0.000   0.644
    3        0.533   0.014   0.000   0.547
    4        0.544   0.016   0.000   0.560
    5        0.405   0.003   0.000   0.408
    6        0.569   0.017   0.000   0.586
    7        0.624   0.033   0.000   0.658
    8        0.606   0.031   0.000   0.637
    9        0.601   0.019   0.000   0.620
   10        0.557   0.017   0.000   0.573
   11        0.608   0.031   0.000   0.639
   12        0.574   0.018   0.000   0.592
   13        0.381   0.001   0.000   0.381
   14        0.564   0.021   0.000   0.585
   15        0.763   0.967   0.000   1.730
   16        0.779   0.901   0.000   1.680
   17        0.818   0.834   0.000   1.652
   18        0.766   0.931   0.000   1.697
   19        0.785   0.867   0.000   1.652
   20        0.812   0.831   0.000   1.643
   21        0.878   0.708   0.000   1.586
   22        0.758   0.956   0.000   1.714
   23        0.780   0.873   0.000   1.653
   24        0.870   0.715   0.000   1.585
   25        0.792   0.891   0.000   1.683
   26        0.772   0.935   0.000   1.707
   27        0.756   0.968   0.000   1.724
   28        0.766   0.930   0.000   1.696
   29        0.773   0.968   0.000   1.742
   30        0.760   0.943   0.000   1.703
   31        0.861   0.715   0.000   1.576
   32        0.869   0.760   0.000   1.630
   33        0.798   0.842   0.000   1.641
   34        0.753   1.038   0.000   1.791
   35        0.765   0.964   0.000   1.730
   36        0.776   0.954   0.000   1.729
   37        0.772   0.918   0.000   1.690
   38        0.773   0.934   0.000   1.707
   39        0.775   0.939   0.000   1.714
   40        0.816   0.841   0.000   1.657
   41        0.794   0.881   0.000   1.674
   42        0.851   0.785   0.000   1.635
   43        0.798   0.890   0.000   1.688
   44        0.864   0.718   0.000   1.582
   45        0.763   0.930   0.000   1.694
   46        0.782   0.955   0.000   1.737
   47        0.772   1.020   0.000   1.791
   48        0.778   0.867   0.000   1.645
   49        0.762   0.929   0.000   1.690
   50        0.755   0.971   0.000   1.726
   51        0.766   0.897   0.000   1.664
   52        0.794   0.873   0.000   1.667
   53        0.789   0.915   0.000   1.703
   54        0.793   0.902   0.000   1.695
   55        0.774   0.903   0.000   1.677
   56        0.784   0.873   0.000   1.657
   57        0.757   0.986   0.000   1.743
   58        0.786   0.904   0.000   1.690
   59        0.791   0.939   0.000   1.731
   60        0.863   0.741   0.000   1.604
   61        0.809   0.823   0.000   1.632
   62        0.788   0.911   0.000   1.699
   63        0.754   0.989   0.000   1.743
   64        0.788   0.935   0.000   1.723
   65        0.767   0.888   0.000   1.655
   66        0.766   0.991   0.000   1.757
   67        0.761   0.915   0.000   1.676
   68        0.807   0.823   0.000   1.630
   69        0.792   0.810   0.000   1.602
   70        0.768   0.936   0.000   1.703
   71        0.772   1.002   0.000   1.774
   72        0.865   0.756   0.000   1.620
   73        0.787   0.924   0.000   1.711
   74        0.863   0.748   0.000   1.611
   75        0.775   0.964   0.000   1.739
   76        0.763   0.970   0.000   1.733
   77        0.801   0.855   0.000   1.656
   78        0.759   0.919   0.000   1.679
   79        0.803   0.917   0.000   1.720
   80        0.849   0.775   0.000   1.624
   81        0.760   0.929   0.000   1.689
   82        0.793   0.928   0.000   1.721
   83        0.811   0.838   0.000   1.649
--------------------------------------------------
tot         62.355  61.822   0.000 124.177


 total amount of memory used by VASP MPI-rank0   403574. kBytes
=======================================================================

   base                                    :      30000. kBytes
   nonl-proj                               :      78312. kBytes
   fftplans                                :     108821. kBytes
   grid                                    :      83991. kBytes
   one-center                              :         18. kBytes
   wavefun                                 :     102432. kBytes

  
  
 General timing and accounting informations for this job:
 ========================================================
  
                  Total CPU time used (sec):     9315.963
                            User time (sec):     8227.799
                          System time (sec):     1088.163
                         Elapsed time (sec):     9321.986
  
                   Maximum memory used (kb):      690088.
                   Average memory used (kb):          N/A
  
                          Minor page faults:     16702963
                          Major page faults:         1218
                 Voluntary context switches:         3382
