LAMMPS data file via write_data, version 2 Apr 2025, timestep = 6110000, units = metal

1000 atoms
2 atom types

-0.4676728662137659 26.458958183898893 xlo xhi
-0.4676728662137659 26.458958183898893 ylo yhi
-0.4676728662137659 26.458958183898893 zlo zhi

Atom Type Labels

1 H
2 Si

Masses

1 1.00784
2 28.0855

Atoms # atomic

271 2 1.175479160336632 1.0545976187902235 2.3659965105334293 0 0 1
565 2 2.6271699270181346 2.8619797625100354 1.9510771116011827 1 1 0
903 2 0.1610861172807344 1.4309444889947276 4.409287994909527 0 1 1
315 2 3.5276738259014038 1.218280468372413 6.021419856803117 0 0 1
794 2 4.598734859551003 -0.372851355960807 0.8165152343077247 0 1 0
796 2 6.5987402260574175 2.699900928468363 2.3346105823880214 0 0 0
859 2 6.798292862409067 2.5893289181858776 4.727430385937347 0 0 0
476 2 4.841296176999195 2.0476622948029966 1.132532308284515 0 0 1
663 2 4.650150026818007 3.0209953531343174 5.5401092078648375 0 -1 1
21 1 8.00315227696252 0.9096841349257718 5.038713328195518 0 1 1
479 2 8.415729059129788 2.0316854110331857 0.9861910474772708 0 0 0
774 2 11.77651089024773 12.877312771181995 1.1665558717637825 0 0 1
490 2 10.034450735880252 11.478405986937046 0.9732282083502584 0 0 0
741 2 8.951111139685636 -0.20598548048115078 0.26743978562474224 0 0 1
668 2 11.53779733586004 1.5382949820049276 4.935576675679632 0 0 0
779 2 10.356839862834649 2.755065557444894 1.9036013692852456 0 1 0
201 2 11.594183131247629 0.9496334394889907 2.7076963661149716 0 0 1
279 2 10.446670618758102 3.792858934552153 5.394150377202165 0 0 0
655 2 12.795687914809795 5.3895093081675425 2.9628257434648226 0 0 0
365 2 3.7777086827058355 8.04363634957881 -0.16190952781272827 0 1 1
876 2 3.1436173730243016 4.160324698004698 4.159528682936712 1 1 0
719 2 1.6190832995757187 4.496049055210641 5.769137090654913 1 1 0
325 2 0.24980634303928173 6.241476660318684 2.7207201056087262 1 0 0
991 2 1.5743742672649481 4.902016556237098 1.1997381078447886 0 0 0
488 2 3.4851144097503965 6.161439929698487 1.175780906811586 0 0 0
250 2 2.618715810736167 8.060993303358488 4.578637275660927 0 0 0
554 2 3.6572897177899035 6.343188857369105 3.5328692819947767 0 0 0
481 2 0.7714392646875177 8.533297523400076 3.2788932483626883 0 0 1
593 2 8.032892787084336 4.272201074354305 5.296104943045505 0 0 0
400 2 7.325105237239142 5.473585810513006 -0.04316466526852625 0 0 0
537 2 5.864051211809964 6.470955535661049 3.2499857698848666 1 0 1
819 2 5.8045045548513 4.982392493332651 1.518030904419237 0 0 0
787 2 7.778029377136523 6.503025715065314 4.5867439844667235 1 0 0
621 2 7.336414040215218 8.443315672982488 5.989260619835876 0 0 0
937 2 10.7852662699118 7.293734342961144 -0.19351175886697097 0 0 0
834 2 11.157478258757973 8.266345545146427 2.936212150626891 0 0 0
949 2 12.325712574255775 8.08841891744361 4.967000128530978 0 0 0
518 2 8.957181311487709 6.833298239504258 0.9670515338750272 1 0 1
463 2 10.754136608657348 4.512199124061191 3.344177707748748 0 0 0
803 2 9.60059469342537 6.578001681318911 3.1572896732949274 0 1 0
257 2 12.378367278018308 7.173422102712779 1.4521252042774104 0 0 0
889 2 1.1338576039341233 11.973306322307518 2.824620604463073 1 0 0
322 2 1.6487664074469164 10.024665220633114 1.5971348771530542 1 0 0
266 2 3.099562098229268 12.360640823913835 3.905002965606216 0 0 0
212 2 3.73665684164179 10.23376421029569 4.835725558103653 0 0 0
793 2 4.010114399026678 9.925441776211295 1.2984481571552433 1 0 0
786 2 4.652886168963213 11.98474398303404 0.0910587334105083 0 1 0
305 2 5.823311759796757 8.78020837515498 2.399865218841646 0 0 1
582 2 7.042818947121508 12.077938804676762 4.548877625545457 1 0 0
530 2 7.829793092256915 8.877329646349036 1.3779929188385411 0 0 1
827 2 6.005847616210443 9.778881777839294 4.415342074516667 0 0 0
919 2 9.539384074062284 10.049842116944836 2.6954725157581714 0 0 0
696 2 9.311587829860683 11.145699690345646 4.73007479829575 0 0 0
547 2 11.267871721297706 2.7210586934445713 -0.29204199335784764 1 0 1
800 2 8.389842258010052 12.92592650614433 -0.037056248161081884 0 0 1
646 2 10.868653080139666 12.966192267241103 5.433625205027876 0 0 1
127 2 -0.3684850087140299 5.089986181905177 4.774830985956487 1 0 1
410 2 11.063285764356529 9.724408826250038 -0.3207947841719293 0 0 1
788 2 1.327927594666525 2.882198608981322 9.493748130156435 1 1 0
684 2 2.894297126992967 1.8986710947995635 12.470760511422286 1 1 0
980 2 0.9995970785651256 3.1448751254667004 11.872074650421784 0 0 0
349 2 3.6623226322775437 2.646230039257148 9.006316683534504 0 0 -1
599 2 0.02800703452911718 1.4343211161008258 8.096853230642042 0 0 1
727 2 3.892808249603557 0.4725048822038409 8.15817905342147 1 1 1
506 2 9.032306215693596 9.744161708400785 12.816697630245912 0 0 0
300 2 11.090628561610284 8.807358520527035 11.677804586143477 0 0 0
142 2 4.644520430098234 3.0432285830692365 11.12480917204068 0 0 0
728 2 7.445378126852896 0.820668445158903 9.676449475693655 0 0 0
564 2 6.963433201257514 2.5490646411336297 11.10982965846682 0 1 0
454 2 8.340938056920576 2.1892934205269707 7.981006102903891 0 1 1
685 2 12.581313785110444 0.4093968382413514 12.587462111281875 0 1 0
586 2 10.584323152863258 2.6300948592140205 8.54329567262341 0 1 0
872 2 10.421855426064385 3.279976438205052 10.778330793922915 0 0 0
459 2 10.654923797814465 1.0847686001382562 11.85150327933132 0 0 0
130 2 9.496202389853478 -0.2156324123378643 10.17148664797302 0 1 0
397 2 11.185935974565007 0.5107023426008839 8.553683184588383 0 0 0
269 2 2.250264190239449 -0.20812940438058974 11.59163570415966 0 0 0
88 1 0.11605892639966031 5.5056109754531155 7.715336772664436 -1 1 0
280 2 1.0511185666886844 5.4943118796080865 12.358873752893574 0 0 0
277 2 0.9726449005400997 6.606244210673685 10.258531380444614 0 1 0
667 2 3.389906667273067 6.63715914077984 9.899422386981492 1 0 0
278 2 0.10136145321704959 4.785312060692852 9.027149102100015 1 0 0
874 2 0.45277231787129535 8.38734922686874 7.499909580941034 0 0 0
918 2 0.3068256694983714 8.655286276408134 9.805268720282738 0 0 0
837 2 4.120392870675821 6.433773590332985 7.695298157503661 0 1 0
709 2 2.1148396781526544 6.910767241416059 6.561958009168222 1 0 0
817 2 4.814215687420309 4.252810093658139 7.5056359440843305 0 0 0
613 2 7.157487310580846 4.210581544248698 7.516222516803757 0 0 0
388 2 4.468846577637332 5.283351490442717 11.388120907789173 0 0 0
67 1 5.781262916432329 5.73512655345699 11.810264578615497 0 1 2
222 2 7.624436891487985 7.963519250655475 9.575561749920647 0 0 0
962 2 7.502710432587317 8.100108394936749 11.975152290947342 0 0 0
203 2 5.884450949983047 8.111049606888942 7.936614274053921 0 0 0
990 2 8.180007958253535 5.862973819496559 12.56444108610498 0 0 0
117 2 8.216737131864082 5.648781910991182 8.974870658163894 0 1 0
932 2 8.27894002402132 4.390627474894878 10.899771965338887 0 0 0
658 2 11.266306335278246 4.44246204466526 7.297486367835853 0 0 0
841 2 12.220390075583762 4.6983352510915015 11.30967240216995 0 1 0
661 2 10.415402263741644 6.3379692423273575 8.32580083432471 0 0 0
307 2 11.766526477242959 6.918558051823404 10.461945098460273 0 0 0
429 2 10.87146875539868 8.225900063896935 6.837268602087088 0 0 1
807 2 10.663880647573668 -0.12390450054360258 6.322340215652296 0 1 0
920 2 1.2784673909226696 10.810145942762249 7.5437826468086655 1 0 0
196 2 1.8469198662014037 10.123182201631716 10.999579797646044 1 0 0
154 2 3.5586742888756184 10.922474917636746 7.016551823530545 0 0 0
442 2 1.314114138452639 12.002492455341923 9.619122219562167 0 0 0
723 2 3.909464714733274 8.866892226222568 10.497600627836468 0 0 0
27 1 4.1210129536173215 11.801850282772586 9.700097547894552 0 1 0
570 2 5.267400534053471 9.026583003654578 12.484488608280968 0 0 0
437 2 6.851012556282262 11.56576359986758 8.814586024077219 0 0 0
733 2 5.011031793695555 10.141415060645262 8.823923556832508 0 0 0
907 2 7.927670573965184 11.861286638963911 12.455230341112019 0 1 0
561 2 6.469597676914427 12.733765542571112 6.766745918208882 1 -1 0
200 2 12.444101330701367 11.994164426856193 6.871258202811051 0 0 0
751 2 11.558075616787406 12.097137332062653 11.207197391525662 0 0 0
347 2 8.364851033151135 0.2612880944161904 6.483304789687189 0 1 0
186 2 10.679022877984885 10.371246319227634 9.983499726649315 0 0 0
133 2 12.102787518787727 9.896940537532913 8.040191922019941 0 0 0
202 2 9.172712702010344 9.572935872636222 6.359368388782676 0 0 0
204 2 8.631502692372232 9.886843966851435 8.825292475347023 0 0 0
414 2 3.429392567361077 12.962173626433222 10.284342792910438 1 0 0
804 2 -0.1884127952773878 -0.22339270125117186 11.061379279192947 0 1 0
98 1 9.710556134789654 6.162747379022131 12.939620769549975 0 -1 1
645 2 7.863347126714986 12.985667445006937 10.32705680088232 0 0 0
703 2 1.3009791267512485 2.2008993492932865 6.283551442746455 0 0 0
168 2 -0.18538533825789755 12.138069098226765 6.456453303402281 1 0 0
489 2 0.7522537635095503 1.7689177364514839 15.915037573958609 1 0 0
616 2 1.0224000492059195 0.8958208834081973 18.018888271612653 0 1 0
587 2 2.9129799419136866 2.16976411224857 14.778600345342545 0 1 0
134 2 0.10539138742397569 0.05299892097448777 14.810188497783681 0 1 0
164 2 2.9818076977626244 -0.0712662970029988 19.165141723995404 0 0 0
151 2 4.388851228062722 0.547892805134087 15.663124000673635 0 1 0
576 2 4.517371004809025 1.0127444302627417 17.89461338793516 0 0 0
694 2 4.61784690823565 3.0195345146138197 18.914315209443934 1 0 0
682 2 6.448855774453783 0.6173684869024911 14.551282064282107 1 0 0
781 2 7.605638854975771 2.3856180530566524 13.454408657863645 0 1 0
988 2 8.000043304491156 0.8470667174039492 16.436904057655738 -1 1 0
665 2 8.319572326726925 2.86079704449385 17.40576455485003 0 0 0
359 2 6.605016512856091 0.08781307399756233 18.132665843639714 0 0 0
190 2 11.031754188754318 1.072983839848298 18.844816175889463 0 0 0
119 2 9.791345780626127 1.5342589977844368 13.864217472105473 0 0 0
924 2 11.188718022618472 3.050769229577576 15.07694521681835 0 1 0
193 2 12.204202762122371 2.553877854445385 17.262261130283527 0 1 0
964 2 9.837830686591934 -0.20030565312548493 15.505576556048053 0 1 0
675 2 9.138134736061362 2.1330535677602964 19.496497537355076 0 1 -1
94 1 10.594057309366574 -0.04693471097197799 18.028894211528048 -1 2 1
292 2 5.816752138798089 7.910937357264713 19.582018133721995 0 0 0
979 2 2.5466010172733573 4.059949639871638 18.872122997978558 1 0 0
994 2 3.4791506066649114 4.407511962001614 15.184239013171819 0 0 0
583 2 2.2333635767591207 5.430847363546217 16.967129468553928 0 0 0
968 2 3.247081047483153 7.5923817963669435 17.29312786087347 0 0 0
360 2 -0.00515690272005348 5.549419221479805 15.985915440090382 1 0 0
938 2 0.0499273285155305 6.860159504991803 14.038616921603857 0 0 0
935 2 3.167756640286655 5.65961012271111 13.293963460215732 1 0 0
155 2 3.8288218644349543 7.785915317027516 13.892270156547431 0 0 0
261 2 -0.13508742337858654 6.206622241286133 19.504595803498155 0 0 -1
275 2 6.3311602384889305 4.026395093179685 17.746164104234268 0 1 0
342 2 7.64559638085194 4.625614296903741 14.439139667998502 0 0 0
780 2 5.645012801081892 5.124937838452345 15.75493544181351 0 0 0
289 2 5.151751457200441 7.388476110729565 15.816861584441158 0 1 0
281 2 7.047572369560684 5.93955833366972 19.069895330785315 0 0 0
974 2 9.429109192707712 4.382726764385809 15.97022975195994 0 0 0
180 2 12.651625173199697 4.478853909517284 13.752059788605871 0 0 0
814 2 10.71222712327599 5.693900157345284 17.568918674299482 0 1 0
480 2 11.483060218232612 7.150547432331634 15.75402250612814 0 0 -1
2 1 10.479443770115592 6.727597340098721 14.888412558606962 1 1 -1
113 2 9.384921577589937 6.642417287634499 19.321324113868087 0 1 0
638 2 12.808857845385422 4.612345249401196 17.993828688353794 0 1 0
500 2 9.120214512674405 9.114065422825057 19.334212230583013 0 0 0
678 2 1.6828796023572141 8.754151771344553 14.518172871337262 0 0 0
615 2 0.013306539358836633 12.421009489229636 19.274674963800813 0 0 0
194 2 1.7731891474989423 9.311539756059124 16.74478833241382 1 0 0
111 2 3.308821288172577 11.198100231996595 16.61605478977353 0 0 -1
729 2 2.5203659806468854 12.791173102625706 13.726917913935036 1 0 0
556 2 0.8834744079277983 2.53125442656039 19.572797495781693 1 0 0
44 1 3.9880483171278636 10.188839383227284 19.37297651893855 1 -1 2
298 2 8.909645691130944 9.65031944587204 15.281911866144572 0 1 0
129 2 1.3197503950889111 10.693354807198729 13.061819495030926 0 0 0
984 2 4.033422496776486 11.56737576981417 18.85177814437126 0 0 0
778 2 5.393078532812452 11.012011622060394 15.415240221396376 1 0 1
432 2 6.618818873303866 9.189601537494562 16.05596677154118 0 0 0
456 2 6.748867661860573 12.647657244633224 16.70497067150653 0 0 0
205 2 6.42180797121343 11.644724662089688 18.797312715226916 0 0 0
773 2 7.070761556174982 9.502664507878155 18.36871857992196 0 0 0
350 2 10.976910329673844 9.366139544129426 16.276264293571657 0 0 -1
967 2 12.21364489836207 10.799127490319748 14.820791836574164 0 0 0
557 2 8.845086355429958 12.094062266877847 15.884125519969933 0 0 0
811 2 10.407786715097087 12.408601067493949 17.650996845641878 0 0 -1
387 2 10.954927471065858 10.264033919918788 18.4367983756855 0 0 -1
334 2 11.157148918613457 12.535418216038936 13.43085482029619 0 0 0
896 2 12.907846870251447 9.892733151865128 19.679422877367934 0 0 -1
532 2 5.66097919880597 11.392481893071144 13.117871313695174 0 0 0
824 2 12.940214515894313 9.514151622074852 13.00120246043162 0 0 0
109 2 0.84458739699828 1.2862534792048659 21.5147286543898 1 1 0
213 2 0.7708336155114404 3.1331824734360354 24.614380648973082 0 0 0
187 2 2.990306535320941 0.31959487292988553 21.492818907310607 0 1 0
1 1 0.8356442726515632 2.4184512117700714 22.466803837959624 1 0 0
214 2 0.8924115082526327 1.1660262832536434 25.8685788553095 1 0 -1
197 2 2.8731640428527485 3.7087486944207964 23.713480245802415 0 0 0
237 2 10.304302852049 8.78004255805602 22.65939921581252 0 0 0
571 2 9.731560556112175 12.289818483596104 23.69526150073058 0 0 0
870 2 4.0974895364326445 2.0258196068606833 22.594376233850106 0 0 -1
216 2 5.544654167200306 1.226197399839795 24.283541552853187 0 0 0
191 2 5.672856615155576 2.644570080544671 21.04293007285338 0 0 0
768 2 7.921007990538088 0.8662996768706843 23.676285140930396 0 1 0
783 2 5.765665831616755 2.68987314706483 26.030054509264765 0 0 0
199 2 7.302054351488923 0.8072469854974602 20.16048060694672 0 0 0
106 2 7.996578654887115 3.454345371369362 26.178910889726303 0 1 0
852 2 9.943787782218612 2.2091011632829876 23.076037051472156 0 0 -1
877 2 11.879829346597534 0.7201255275743099 22.535926121572317 0 0 0
584 2 9.294728931540156 3.4779389373411305 21.281601390176192 0 0 0
450 2 10.055212894869443 3.687975631217495 24.922995110426427 0 0 -1
507 2 0.12044393299640899 4.699593235837757 26.343183848932377 0 0 0
62 1 11.34880657578231 1.2264288576075781 26.163059397855655 1 1 -1
69 1 3.843812134218851 5.327915399243107 26.098150453000294 1 0 0
303 2 2.081480958030418 5.701065543164762 22.616849165719337 0 0 0
103 2 0.2330935591373836 6.851552837747492 25.256554308263674 0 1 -1
689 2 2.9245786753283314 7.832721582016202 23.11647242555452 0 0 0
605 2 2.1466835339605463 5.807345943691881 20.163348084379123 0 1 0
652 2 -0.16850427155843317 5.978140865289958 23.098331160544355 0 1 0
936 2 2.067752371981988 8.220269321156383 25.194446228139483 0 0 0
973 2 11.41932978111121 12.537363666559497 22.198477360363448 0 0 -1
743 2 7.735978518812006 12.869299704987881 20.267019055176455 0 0 0
871 2 4.605017165628543 4.577068876627955 25.005473161268533 0 0 -1
730 2 7.114699248790125 4.528603123237502 21.111379097524356 0 0 0
550 2 6.227083906832358 6.095658617636597 24.900202714270847 0 0 -1
172 2 7.327543860291484 6.257831936897366 22.772234184940793 0 0 0
412 2 5.673746461724365 8.276181801356396 25.390137919640402 0 0 -1
630 2 6.5138137546830865 8.19140896543554 21.67410520480285 1 0 0
128 2 9.612303307202774 6.563274335512676 22.989438678762284 0 0 0
301 2 10.344479114864582 5.62935884233903 21.164917149835823 0 0 0
910 2 10.970864588311729 5.827738166133463 24.63778751498611 0 0 -1
241 2 12.493822018419346 6.125903141775421 21.49379617682932 0 0 0
115 2 12.50610254966891 8.381924997460958 21.545377048259276 0 0 0
566 2 2.3069417649261488 12.744133564022638 19.952760474633116 1 0 -1
858 2 1.154000674835344 10.29399858309209 26.101591910060897 0 0 0
22 1 0.9980974073870104 11.614046340428937 22.227881849990077 1 0 -1
826 2 1.9347700402886265 8.94130241459426 21.26706493340472 0 0 0
868 2 2.332901247389732 11.11461758981787 21.805930093313385 0 0 0
376 2 2.687525269401651 11.940376770048372 25.437203067521253 0 0 0
495 2 7.409463153390826 9.60987009933461 26.239348358043856 0 0 -1
588 2 3.9378876377357246 11.104787004823896 23.64157375054966 0 0 0
346 2 10.167498681095719 10.053093297925555 24.544558836615153 0 0 -1
48 1 8.59602614073646 9.475358815090358 25.23763350706296 1 0 -1
718 2 4.940328574081307 8.98507187641925 23.361799130698778 0 0 -1
724 2 6.114900347053523 12.362913200589546 23.867387289089088 0 0 0
220 2 7.962011441236463 11.720164742907958 22.31089193159184 0 0 0
114 2 6.650848183747268 11.800920942046542 25.95351599127475 0 0 -1
268 2 8.509052885193338 9.526110726586678 21.54537887900309 0 0 0
24 1 11.10195760926675 11.347038281065878 21.303099180830323 0 1 -1
528 2 -0.3941278377265302 9.331538747270926 21.50318619292421 0 0 -1
711 2 3.469551858482742 7.872184459061048 19.743792160576454 0 0 0
89 1 2.317114209766086 1.2629349077812881 26.29716784838119 0 1 0
392 2 2.8184592055461484 15.120399539707028 1.7466667337468973 0 0 1
845 2 2.9067483976158126 14.199484216319993 5.309822311879763 0 0 1
900 2 0.6662940767484751 14.181709239389033 2.279039903412461 0 0 0
885 2 3.7153850377676294 16.885180671400207 3.04856516255025 1 0 1
546 2 -0.2512712552937746 15.281955046451243 4.266862369687779 0 0 0
149 2 4.083913323306289 16.245017719360774 5.145967750389321 0 0 0
467 2 9.817816279719384 23.21484034776023 5.56232837300982 0 0 0
533 2 12.643205558771228 22.675671850963127 1.6564897167855346 0 -1 1
107 2 4.403771688351008 13.341684981746514 2.0445468105840745 0 0 0
477 2 6.294053995139416 16.608977744827293 0.08578563285742768 0 -1 0
336 2 6.34678890254282 15.771629853390609 4.837867565726194 0 0 0
267 2 6.379992183833015 13.972272351888783 3.2264007798804983 0 0 0
423 2 7.604264781105993 14.847710560140078 1.4298740456393364 0 0 0
141 2 11.516039440658428 24.617446050082066 6.063931887966812 1 -1 1
820 2 10.950731510231735 16.358585608575133 0.9777097768130971 0 0 0
184 2 9.568334312249368 15.423002176683609 2.734963416457628 0 0 0
312 2 11.49116035144353 14.111171982993396 3.3602318406448455 0 0 0
247 2 9.446044483290096 17.204191962592702 4.45204481584177 0 0 0
760 2 12.528752066031608 17.227476844051473 2.546470768430248 0 0 0
543 2 10.728576917800144 21.305626290814835 6.117153978738486 0 0 0
998 2 0.08869517691773787 17.542577545288218 4.095951370819036 1 0 0
354 2 2.0413242231673854 18.349427863493602 2.959933735602895 0 0 0
356 2 2.7598107209549534 20.060605242800705 4.337328607417211 0 0 0
361 2 1.8209928759785656 19.260565136510948 0.7812584723144622 0 0 1
494 2 1.2909071800364547 21.63497305495276 4.872785288791349 0 -1 1
736 2 -0.2216203529782243 20.635996343541628 0.9965946590009422 1 -1 1
407 2 4.159980267701136 19.697701368842118 0.44418961081139063 1 -1 1
503 2 5.1723832834079655 18.089885203592345 1.6452249999630588 0 0 0
631 2 7.380268126981363 18.129405121723508 5.013954520954704 0 0 0
428 2 4.8263061429110605 20.879139222806778 3.7840015426692553 0 -1 1
808 2 6.598543826981091 19.32611842882541 2.988447656607666 0 -1 0
515 2 8.227819595205707 21.075064684758203 2.141636160812571 0 -1 1
890 2 4.6223079885794895 21.7434929065506 1.575674080097912 1 0 0
234 2 8.886315252203728 23.059430822306297 3.1920120322774093 0 0 0
306 2 10.918237941006709 18.6836804689695 3.432616656783217 1 -1 0
647 2 10.11343812331731 19.878074289806165 1.5430364990324454 0 0 0
926 2 12.087166766862367 20.217381159172206 4.679301593939051 1 0 0
948 2 12.15445173639528 20.66958593985391 0.8039064833612222 0 0 0
333 2 0.21734655782845347 24.462399820331584 0.17927604514060147 0 0 0
471 2 0.4298523259434812 23.474516209270618 3.6570453423261107 0 -1 1
443 2 1.6439206686925694 24.321256051567055 1.9277030152000711 1 -1 0
818 2 3.2837808722812762 23.16817019248655 0.5201770806640857 0 -1 1
951 2 0.014265607183064466 24.773121541158545 5.513387012584497 1 0 1
105 2 3.8111467082847312 26.12932968958016 4.71595613814821 1 -1 1
526 2 2.896988765590209 26.243451769136783 2.576618748511059 0 0 0
309 2 2.962304712001146 22.79815869803594 6.07697814826374 0 -1 0
65 1 8.33472048383613 25.984541036125798 3.652197770689231 1 -1 0
20 1 4.20990421004899 24.472919639513684 0.26893603614049855 1 0 -1
81 1 7.752997439367727 25.844941333401536 0.7892778647605279 -1 1 1
353 2 6.753042916258 22.60223006209909 0.7446710108311574 0 0 1
748 2 5.184427349633759 22.467407361409833 5.35824289675599 0 0 0
302 2 5.7832479605074525 24.710466494544015 5.010630116602317 1 0 0
474 2 6.469340262504264 24.877640963024525 1.364973147041745 1 -1 1
534 2 7.406326321818524 24.8624663313784 3.415855717319907 0 0 0
716 2 10.883645792504288 25.91508898860213 1.4537076396923092 0 -1 0
441 2 12.527333264707103 25.98765437381214 -0.3550071643528322 0 0 1
66 1 9.945596939179909 23.1826646561641 0.4974258782252007 0 0 -1
182 2 10.59087414269746 23.70088589804743 1.8070507419391424 0 -1 0
11 1 12.818663052685478 19.379398911201925 5.633912432658523 0 0 0
403 2 2.344354476958447 24.982660661200157 6.217724274551258 1 -1 0
879 2 2.4998490591538087 15.818323561482474 -0.4370524849504682 0 0 0
838 2 10.024887561496179 18.36519247799768 -0.23155808038000328 0 0 1
625 2 0.7350946058298158 14.36760924437494 6.136643325882677 1 0 0
708 2 0.5925966002062271 15.998478959228818 7.626927456660464 0 0 0
339 2 2.5947679458323867 16.41402483789961 8.747457916897103 0 0 0
34 1 1.0871157292640248 16.489446011320922 11.267212062085825 0 -1 1
84 1 1.8080207043593313 14.352386509195906 11.39942517757762 0 0 0
431 2 2.1355871041389354 17.42779835977563 10.616825212185027 0 0 0
653 2 4.727706951101031 21.85615912978423 8.733664586612631 1 -1 0
148 2 4.123284484490435 13.171774916717416 6.978010819617193 0 0 0
478 2 4.240445116953862 14.616622192800063 8.802845843387358 0 0 0
795 2 6.471331063895285 15.838364947360224 8.657907929608367 1 0 0
254 2 7.245800520259044 14.785833195035416 6.743791580669264 0 0 1
560 2 7.346469736814649 15.266893254435608 10.705095991392456 0 0 0
606 2 5.306418513091357 15.40846316517406 12.32545191888105 0 -1 0
738 2 4.017424052778604 17.386456404935103 12.143471918838214 1 0 0
604 2 4.344894189416887 13.212303938420478 12.48995917303131 0 0 0
884 2 1.1705693422767152 14.526683033290047 12.860250608752194 1 0 0
726 2 8.905830035247035 16.66086794730628 11.746949735342454 0 0 -1
765 2 12.079490551440935 14.06165046297345 10.006944298278524 0 0 0
531 2 9.579972171227869 14.34939522655308 6.853387739491698 0 0 0
219 2 9.769435663394379 13.993150047603642 9.256532021868068 1 1 0
9 1 9.225041218139914 17.39362452905037 8.970279494390567 0 0 -1
386 2 11.332365149992096 17.27770772657515 11.759202067055769 0 0 0
629 2 9.71814526505477 23.262668552047977 9.11680687568667 1 0 0
344 2 10.693574364342563 16.349203790739494 6.389126105417643 0 0 0
614 2 3.775975573825951 17.707947021935574 7.1718745094283065 1 -1 0
739 2 0.49302692213924215 17.985342595863678 6.572227083007536 0 -1 0
637 2 2.4835360445272805 19.42455589073473 6.557396855548511 0 0 0
401 2 1.2738665828351965 19.56923642998661 11.189542129293391 0 0 0
377 2 2.7868702721833363 21.22920532991307 11.789836055272836 1 0 0
815 2 2.5873326892230195 21.539601372580776 7.82112241429339 1 -1 0
567 2 9.181826541931688 24.46546465997907 11.001070197370602 0 0 0
326 2 8.168013142706695 23.49802308125895 7.2699194507891365 0 -1 0
416 2 5.691446672655035 18.06709194287076 8.522817345442991 0 0 0
978 2 5.44739054186328 18.65369670893736 10.85978733665707 0 0 0
404 2 4.998030006817379 20.88767620543007 10.888468999398945 0 -1 0
283 2 6.989797530758563 19.512722577175516 7.009167017289189 0 0 0
908 2 7.604362803493379 18.615712156491277 11.817293957252568 0 0 0
253 2 6.443943701560552 21.79480731185786 7.172578596267495 0 0 1
891 2 6.642725869468291 22.013698686541623 12.038257469525341 0 0 0
825 2 11.82173943480431 24.05231343929011 8.273091560190872 0 0 0
899 2 8.555174479866682 20.749145742670876 11.504931117012536 0 0 0
832 2 10.367184202901994 17.91178753469027 8.10090873799538 0 0 0
161 2 9.783850260776576 20.9524997792049 9.556795243351427 0 0 0
348 2 9.186711113157283 19.88192258451957 7.4876225659476 0 0 0
812 2 12.165298533753294 20.647339525787956 9.60364140860173 0 0 0
223 2 12.263856996826929 18.334084675917637 9.585056162520791 -1 0 0
469 2 12.444281991796725 21.81007432690646 7.710754231525188 0 0 0
677 2 0.15754700896426876 26.0560601310603 8.896324279365986 1 -1 0
752 2 0.6772521135427654 22.352856752995535 9.349673110925847 1 0 0
409 2 1.646479533124583 23.050570922305923 11.263826200950733 0 0 0
923 2 2.9770231245401635 24.86684325914017 10.43398322529972 0 0 0
313 2 2.2744276525111977 25.716283994930038 8.414219114832353 1 0 0
496 2 6.794997384785503 24.206657870077585 11.643948625232019 0 -1 0
562 2 7.055266740253444 25.459302501032262 6.766212104715307 0 -1 1
624 2 5.0790152365999175 24.275748168052857 9.864123285900535 0 -1 0
272 2 12.918918248023017 15.852860930090399 6.416528848382702 0 0 0
650 2 0.2678975503688775 23.868347774382315 12.992942406843447 1 -1 0
581 2 12.690791546565478 15.340747581915368 11.793273742357266 0 0 -1
229 2 -0.41954647433302367 20.320608562352945 9.647397188229395 1 0 0
176 2 5.850869367883853 26.204387978288516 8.741190120891204 1 -1 0
539 2 10.294631740441256 24.107376787325173 12.954910696250177 1 -1 0
146 2 0.8511575550061947 16.36157925441124 14.140671391797245 1 0 0
745 2 0.7215091921550252 16.469036624512576 18.628127046755914 0 0 0
670 2 2.5499895307871 17.12418114062993 15.636780502551497 0 0 0
144 2 3.523318635835375 15.111208104064854 16.456068327066845 0 0 0
92 1 3.297588073844758 15.097794305511572 17.989508099265443 -1 -1 -1
72 1 0.9944237365411572 15.221378136047173 17.761357790013257 1 1 -1
31 1 -0.01581462494643837 15.609985847221504 15.200909610012996 1 1 -1
761 2 8.994343388905154 13.312008566308723 13.860519319145133 0 0 -1
704 2 12.432957300570497 23.00308362101898 18.815153782305295 0 0 0
601 2 6.459772623762014 15.720490786942735 14.373781525739824 1 0 0
618 2 5.798621119210083 14.631864641460798 16.306488542208463 0 0 0
157 2 6.644152692340568 15.834674224545198 18.23890441360451 0 0 0
898 2 8.771031060234401 15.664371228670548 14.032542839714191 0 0 0
173 2 9.894245329492195 16.20879698204154 15.945622854849534 0 0 0
419 2 8.971753959778232 16.026632912453415 18.096275653885222 1 -1 0
801 2 12.146655054328011 15.17882273486189 15.85210938593462 0 -1 0
941 2 9.508171410625724 13.923311639312885 19.214684149108457 1 0 0
540 2 12.63000597399669 13.266101425418826 17.425359707968333 0 0 0
541 2 12.377092515820173 25.33243111539712 13.37920890851565 0 0 0
699 2 8.765418125562391 24.845484280990036 14.65008649409682 0 -1 0
167 2 0.007683630034611477 19.5250544767566 17.004797587327985 1 -1 0
607 2 1.8794688406359796 18.170684439600997 17.503815368937417 0 -1 0
695 2 0.8400344308219041 20.77211803273252 15.075141323476457 1 0 0
905 2 3.241961485238147 20.753189541600392 14.195895156017464 1 0 0
757 2 3.769537931617318 18.381436229928156 14.208295806434334 0 0 0
166 2 3.9206039251111573 18.978332985934635 18.26338169855179 0 0 0
549 2 5.7015501369321715 17.77970556867175 15.175040508912504 1 0 0
206 2 4.589411872407906 21.27042590065038 17.7772578284589 0 0 0
332 2 5.761645512242248 17.94341947050976 17.546329402027574 0 0 0
928 2 7.1659022916454935 19.16008484035447 13.966249577797257 0 0 0
597 2 6.563355472356601 21.32573790341229 18.83784174532626 0 -1 0
195 2 7.535433697057959 19.465314956703757 17.739320493078445 0 0 0
502 2 6.556126342498119 21.405667944620127 14.232774113864096 0 0 0
888 2 4.798233860745715 21.92229310172543 15.518393090669909 0 0 0
849 2 9.950317889528657 21.747825127725505 13.203618437861929 0 0 0
930 2 8.642415916802362 19.555982932620807 15.666082701266797 0 0 0
763 2 8.677702427565466 21.63848973361975 14.997924218330038 0 0 0
933 2 10.756660575595442 18.302994221158414 15.432380914885716 0 0 0
156 2 10.958436611185236 19.81477278501169 18.797349797067717 0 0 0
846 2 9.075342863981643 18.37559412096237 19.117071610619313 0 0 -1
492 2 11.819681004417896 19.898787574876003 16.739861273073892 0 0 0
398 2 12.281785781420654 18.592460987374892 13.50001469069703 0 0 0
245 2 12.168756027974611 20.92668244435935 13.366478117153616 0 0 0
458 2 12.763243942819813 21.739127561231896 15.505538417663264 0 -1 0
291 2 -0.32115431840788633 25.25503054654476 16.567470950162615 1 0 0
992 2 11.966012694342222 25.565228145762504 15.657140250525616 0 0 0
17 1 1.478720571959064 22.977735746968577 15.745639870977092 1 0 0
579 2 1.5493458001933194 25.71864468626864 13.647036229647375 1 0 0
153 2 2.8860000041328253 22.81983087063579 18.496864899536064 0 -1 0
971 2 1.7726949436802029 24.066020129940902 16.75047393869356 1 0 0
209 2 3.1091178396554056 25.419506005534423 15.366316679745726 0 -1 0
687 2 3.986278928244581 24.673076039507272 19.19966446805308 1 0 0
946 2 7.858742007231179 23.36229001841695 18.336939850266837 0 0 0
246 2 6.591201274063839 25.174721685355422 13.788730912323503 0 -1 0
152 2 5.941962235568428 24.69540509417802 17.752539159624426 0 -1 0
256 2 5.206716633592477 24.332619168615672 15.521580055972958 0 0 0
385 2 11.517411566185979 23.49761572204384 16.65872168764723 0 0 0
258 2 9.110942500899647 23.285599008048685 16.457556806287187 0 0 0
274 2 -0.16722805783985017 19.717619855342583 13.252754307466004 1 0 -1
139 2 2.1692667212675194 13.161920004192698 16.068150439174573 0 0 0
501 2 12.811717318030812 14.248634858435622 13.797184251042246 0 0 0
732 2 -0.08096438323025046 13.041522721612173 16.93935430100236 0 0 0