LAMMPS data file via write_data, version 2 Apr 2025, timestep = 6560000, units = metal

1000 atoms
2 atom types

-0.8032979108944964 25.835203059763842 xlo xhi
-0.8032979108944964 25.835203059763842 ylo yhi
-0.8032979108944964 25.835203059763842 zlo zhi

Atom Type Labels

1 H
2 Si

Masses

1 1.00784
2 28.0855

Atoms # atomic

15 1 2.1327296651665506 1.889146980979418 4.058411744044099 1 0 1
163 1 1.9822025190815142 1.6526333831045337 4.727738694622939 1 1 1
184 1 3.7571575804436472 1.008146880042778 0.39663847549111875 0 0 0
322 2 5.1620524143193505 1.5028908081185874 0.6098546994693923 0 0 1
658 2 5.895634371498083 0.8650820991837151 2.7363883585978326 0 0 1
115 1 5.056733576152784 1.0664582861690282 3.9299616381260467 -1 1 0
27 1 5.276818132028296 3.7124786502580776 5.48167175458241 1 1 1
506 2 8.04245597132369 1.9216427271862795 3.3326441177375195 0 0 0
162 1 8.61542858982839 0.9726556194957385 4.386283770083357 1 1 0
95 1 10.554589519014472 -0.4196299250755684 4.011058828933771 1 0 0
696 2 8.570643554078275 0.3986052168053742 0.023375161246866005 0 0 1
312 2 9.266770102724262 2.1704811443826415 1.3754025918983301 0 1 1
951 2 11.194722775644689 2.454692107618813 2.644918917289626 0 0 1
675 2 11.666004785469086 2.15075055840975 5.041975392939379 0 1 0
504 2 0.8615678481735576 6.471359836129074 -0.30219525435734096 1 0 1
55 1 0.9197047629114192 5.51143473371154 0.788467111817307 1 0 1
368 2 2.9466644953936765 6.266360033916659 5.682352144116948 1 1 0
145 1 2.7098610274151183 4.990254110131627 5.032536042766927 1 0 0
349 2 3.56723839660285 7.938784137676576 2.016572219441485 0 0 0
652 2 4.973491590237904 3.913499206489951 0.4853983603429852 0 1 1
190 1 3.9359344980795283 4.174143813021256 1.6652253284861893 0 0 1
34 1 4.321590454756989 6.771074090646595 1.3430052887528565 -1 1 0
418 2 7.123181538971022 5.11256655084472 0.7877888921456455 1 1 0
380 2 6.43987201771371 7.482849376449256 3.9220173026054894 0 0 0
454 2 7.794846803067811 5.8334275239097835 3.0032503676444176 0 1 1
909 2 4.03215205732229 7.751719436878648 4.262493442737776 0 0 0
743 2 8.28140582508564 4.0505171679999945 4.42247116715497 1 0 0
205 2 8.958667483185142 4.039002802227551 -0.17319336297413757 0 0 1
401 2 11.340767559739897 4.840991023547267 2.3703720590044925 0 0 1
889 2 10.667499641972636 5.652755441169202 0.18555364311670908 0 0 1
1000 2 9.141295813595892 7.767485284472677 3.1629393043682006 0 1 0
947 2 11.500984047192064 5.720325036252388 4.730459499489242 0 0 0
849 2 10.478458323472397 7.676846329773101 5.107819437296818 0 0 0
379 2 9.91753436804192 7.8865935957315205 0.039626307231720115 0 0 1
729 2 10.306137062179364 3.9721569836963715 5.725746771371101 0 0 0
844 2 1.4362916724768517 12.265498672555065 5.11898896052198 1 0 0
989 2 1.6306226449333878 8.339223040207756 0.9085002834287632 0 0 1
385 2 0.6195961205072016 11.786309083334844 2.8654042870313194 1 0 1
583 2 0.13708678361135584 9.228499386089945 2.3369445691804813 0 0 0
430 2 -0.7114939609846397 8.489703957925443 4.469003941562932 1 0 0
483 2 4.099895536432937 11.844921625887359 1.7307267699837467 0 0 1
833 2 4.737779394494085 11.929444829167887 3.851710580855915 0 0 0
459 2 4.126536750159323 10.04304991963886 4.997360093406253 0 0 0
692 2 5.0851380204466485 9.736842738200318 1.19326193285637 0 0 0
323 2 7.118762184996519 9.279370247415983 2.394232484233909 0 0 0
926 2 7.642012874813378 8.757858762764258 0.1349682354760725 0 0 0
867 2 8.213517345337896 11.32135068815407 2.3234865932089086 0 0 0
823 2 7.567955997816716 12.335791254251449 0.3524628387609583 0 0 0
304 2 11.989659551352949 9.341058874265642 5.250040587684349 0 1 0
646 2 10.391823370613002 10.88415789781492 2.4148769443933995 0 0 0
240 2 10.815290524135447 11.244702517747742 4.756633430772714 0 0 0
236 2 10.949648673017288 8.629008520215725 2.0667229045726754 0 0 1
457 2 12.142335340907792 12.005198236309868 1.2671441737208458 0 0 1
20 1 1.7271645132661035 -0.5886403139283823 3.949331161353168 1 1 0
187 1 1.289186782902866 -0.2152188472309613 -0.5025428525061706 0 1 0
363 2 1.8153199732386347 1.4433339349556613 11.214987970682493 1 1 0
528 2 0.2954362830781301 2.9948436649522905 10.689753956449756 0 0 0
640 2 2.864893986079882 0.4349938220343572 7.329967845678308 1 1 0
181 1 -0.5796763210214388 3.303055078967538 9.643486427833766 0 1 2
33 1 2.941903592467993 1.6372453827249447 6.3089563140197145 0 0 0
49 1 1.5745103417228594 -0.1667913912590815 7.0218112214405055 1 0 0
32 1 -0.13766763901901313 1.8356024496181793 6.576940673441915 1 1 1
360 2 3.360027342617614 0.8239813050150819 9.593707453361814 1 0 0
152 1 -0.5865103813430094 -0.14962218990788845 6.959816788030055 0 0 1
72 1 -0.47501446552214316 2.580642582499111 6.568013361799034 0 0 1
678 2 3.3488376429340905 3.1721408323020115 12.405130669956923 0 0 0
101 1 3.853359759096894 -0.7103443047099863 7.071344768157933 2 0 2
655 2 6.036638201960133 0.2542913210339297 12.279624601045953 0 1 0
294 2 4.878464221787404 2.5388485301089507 9.14550330748918 0 0 0
873 2 6.910451080939103 2.3769305277455084 7.917249562962862 0 0 0
222 2 5.3456909088439275 2.3719951368056766 11.477132039763498 0 1 0
910 2 7.222791088595789 0.04837170416024439 7.6537852435520985 0 0 0
217 2 4.893388215209411 -0.6815866340439489 10.52773453929359 1 1 0
155 1 6.551978981680159 -0.3786124205936795 6.410520104215241 -1 1 0
283 2 9.80838354050548 1.6303186112770596 12.337599428819205 0 0 0
413 2 11.627354410606015 1.6017694841134875 10.843371652579666 0 1 0
512 2 11.524024316740773 0.5999483259696297 6.599917545339122 0 1 0
226 2 11.942910085576141 2.268784028615861 8.57789786097203 0 0 0
777 2 8.302542085861159 -0.07288089457072777 12.200435172187788 0 1 0
879 2 8.753318760139212 3.566614145094139 11.530778077695784 0 1 0
365 2 8.416812534927674 3.7343628776719733 9.124278097656314 0 0 0
247 2 9.526638984842222 -0.6240500664455728 7.3301699748666955 0 1 0
955 2 1.0093174527611508 7.3695997768096095 5.976458477690005 0 0 0
792 2 2.0330157029282283 4.544489212803409 10.865239575505614 1 0 0
695 2 1.4295011373718274 6.538214748937643 12.192734201724594 1 0 0
428 2 0.06456594019313455 5.609028360264929 7.117328039912888 0 0 0
8 1 0.45167858747030243 5.54731007013817 8.571169639736253 0 1 0
91 1 0.286343285297054 4.304822663755481 6.438246215544179 1 0 1
309 2 5.960309402573556 7.37882953318775 12.170070541765583 0 0 1
517 2 6.597898973610336 4.044455966047603 6.161268681745105 0 0 0
819 2 3.878313693453232 4.676786151835514 9.49115521404118 0 0 0
897 2 4.008325672863584 6.3217222650404725 7.7531736319763045 0 0 0
326 2 6.637493772374631 3.9437057037170176 12.25850127144151 0 0 0
722 2 5.669117075418268 5.443325228566886 10.845855398288673 0 0 0
306 2 6.2723779165056825 6.05011007136529 7.375138474862975 0 0 0
773 2 7.309539890889324 5.742388503443678 9.368636591812182 0 0 0
334 2 7.235092036652189 7.738601487944834 6.022810101090455 0 1 1
942 2 10.430992006111756 4.003977909525209 8.028089430020964 0 0 1
351 2 10.608105548512656 7.640253381259743 8.802301478017837 0 0 0
440 2 9.934136933198515 5.577631772491482 11.84530435766963 0 0 0
484 2 8.85545013362583 7.069249690129232 10.333567800307925 0 1 0
841 2 11.70502905572217 5.767210640225947 8.702782535245605 0 0 0
619 2 12.098499210562501 5.358389544486885 11.071076130169875 0 1 0
396 2 9.256456252653845 8.193884833099668 6.886231745442155 0 0 0
737 2 3.46082096435193 8.31385106888335 9.163957156713407 1 0 0
666 2 2.6064205691827875 8.338760940752504 11.298663685998218 0 0 0
788 2 2.610720048149171 11.915856677046357 10.08457604098116 0 0 0
554 2 1.5983061443432431 8.811859442054473 7.70688116482175 1 0 0
705 2 1.288139140187572 10.258979798999762 11.121806258652985 1 0 0
388 2 2.416021432521419 10.678366169383743 6.402961408078553 1 1 -1
412 2 3.747130662298196 11.682299918018 8.048854980786663 0 0 0
277 2 -0.5678868150824622 9.256808145383838 8.712175405312786 0 0 0
629 2 7.724705951176462 8.64600883646038 11.518619450374196 1 0 0
960 2 7.242400851776825 10.259732765549405 9.879005571698833 0 0 0
403 2 5.361345615592356 9.833070799100888 8.563774016694321 1 0 1
288 2 6.474760813652202 12.132101186824839 10.972440413892663 1 0 0
647 2 7.18065859147742 11.59965279876954 6.074785292806031 0 0 1
776 2 5.966514477282635 9.677169848047622 6.3534111028826 0 0 1
79 1 4.6585678710663965 10.422615153299025 11.93985873671227 -1 0 -1
893 2 9.233320854117784 10.983074606343715 8.698491378590617 0 0 0
313 2 9.22024370381538 10.566979888295231 6.40660713247642 0 0 1
945 2 11.481355750779375 9.730461231157147 9.149790747839406 0 0 0
172 1 -0.7822739446298037 -0.19267161120814846 7.6755759657547475 -1 0 0
988 2 2.737709486441779 0.7168497943842487 14.905608698578506 1 0 0
607 2 2.781886702736827 2.912865604157983 14.524880517426519 0 1 0
614 2 1.9775679018192305 0.3372151427284318 17.148952119432806 0 1 -1
280 2 1.2063865809290002 0.23494863159509594 13.167464297757643 0 1 0
919 2 -0.15419236314378493 -0.34877836641035603 17.192829361361355 1 0 -1
600 2 -0.3933519979071523 3.301383591454046 12.93611832370735 1 0 0
235 2 1.874719227853907 2.019169148925811 18.86487491051528 1 0 0
481 2 -0.011181672909107876 3.5550293685478733 18.713632512783754 1 0 -1
808 2 5.5351209438012825 2.655530118542924 17.614596075928816 0 0 0
417 2 6.471027641224866 0.4690921877179819 17.297008725801962 0 0 0
251 2 4.579880448136853 -0.4053008369588192 14.096588080447825 1 1 -1
536 2 10.166679437711206 0.15290774160896203 15.743849352324112 0 0 0
466 2 8.770837252660822 0.6165340770497374 17.66823551417818 0 1 0
730 2 10.245017589549185 2.099460771621636 14.507641771691143 0 0 0
829 2 9.809526573901733 2.3985324516496664 18.821779801712157 0 1 0
1 1 3.9481756489434456 4.559577424217179 12.642093129214008 3 -1 -1
574 2 12.251824290676028 3.1889059902621693 14.266083929418977 0 0 0
707 2 5.485280564831683 -0.6519200935269535 19.025383475563117 1 1 0
220 2 0.7007218763138949 4.101178767370789 14.784006116953941 0 0 0
977 2 1.6505770023667226 6.2505291359728465 14.730956262086034 0 0 0
357 2 2.7961102814838443 5.36120683886257 18.430983270642546 0 0 0
399 2 0.36356310697680905 7.981844840162479 15.496560945711078 1 0 0
653 2 -0.396852606038177 7.21842836674616 17.73379515688859 1 0 0
641 2 3.4081708111092412 5.814516803638579 16.1056261329685 0 0 0
542 2 0.6714427512742367 5.700448104306991 19.175407213522238 1 0 0
877 2 4.577564101923157 3.7901386942795705 15.86591428430285 0 0 0
498 2 6.563156629535706 4.232323569509126 14.515240366158187 1 0 0
575 2 5.991298219085807 6.608827544738844 17.76268378205036 0 0 0
702 2 6.822398318309673 4.503240476293028 18.268787399008882 0 0 0
654 2 6.476998866291801 6.559131978245332 14.25800449030565 0 0 0
812 2 5.044176307087008 7.530386463023088 15.87701460912264 0 0 0
407 2 -0.7746555081407869 3.3364877921545792 16.483065783636217 0 1 0
211 2 12.138747490195769 5.4639440355963 14.624418484480932 0 0 0
741 2 8.829109059086747 3.9009918761457616 15.381068896700462 0 0 0
458 2 9.19350900723132 4.40412130378926 17.694690032517748 0 0 0
482 2 10.241522595151618 6.453996908598422 18.030728529402765 0 0 0
242 2 9.819800335837217 5.55842987465329 14.110351160424049 0 0 0
478 2 8.60429613610994 7.4506041269014 14.671519175712326 0 1 0
914 2 9.284378985562256 8.26115931575044 16.68070175177478 0 0 0
248 2 12.222635655416674 6.041885463034289 16.936400026859133 0 0 0
670 2 -0.009869125621317587 9.410301229440865 18.551687272230065 0 0 0
850 2 1.8622584729744887 10.106739390985384 15.354181096535779 1 0 0
709 2 2.0377974119771047 10.052752472173673 17.755633455694902 0 0 0
971 2 1.72002743965293 12.323080481352443 14.57846993396333 0 0 0
332 2 1.938397154738217 12.190238750234629 18.78284626698826 1 0 0
532 2 4.039823798162299 9.419736071150009 18.613586152079595 1 0 0
488 2 7.4207866807198 8.35070758428278 18.11981872539982 0 0 0
254 2 4.140001019802967 9.487587242606963 14.932986575261584 0 0 0
272 2 6.058204053199149 10.258171913827567 17.768379542843597 0 -1 0
207 2 5.874811486713683 10.9165002301379 15.600100270921565 1 0 0
731 2 7.93764360389414 11.019054314684753 14.511585820453984 1 0 0
486 2 4.399532281972471 9.073591874086123 12.627541498639784 0 0 0
373 2 12.216589140558206 -0.715628605133529 16.132706351867323 0 1 0
490 2 10.761761013732425 10.027390455915661 16.617241882053186 0 0 0
538 2 11.233120651043498 10.42223536255221 12.720605253059249 0 0 0
961 2 9.49936725674632 11.879687030367338 16.20751896697625 0 0 0
336 2 12.347349052549708 10.093557663544097 14.679074507173388 0 0 0
250 2 8.993661093632925 9.38352297298302 13.293991550387274 0 0 0
557 2 12.014637047916647 9.29176155704447 18.519309205676596 0 0 0
462 2 0.4056138268786451 12.039873369703319 12.691149346832463 0 0 0
825 2 4.164581079589884 7.0914065613416915 19.02071839784732 0 0 0
295 2 1.4567744991449234 1.0431351640713482 21.071554343471803 1 0 0
90 1 0.5011813891492856 1.9326025958919946 21.758654464308876 0 0 -1
114 1 3.3034074502874953 0.31642307048158114 23.577921622190832 0 0 -1
148 1 2.428196197374689 2.9250757166032084 25.428980097118725 0 0 -1
546 2 3.490643980171116 1.2181269383274071 22.383234637768624 1 0 -1
285 2 12.494675386251595 3.109739113934086 24.996461262435606 0 0 0
18 1 -0.3152342366983975 3.3267558939605903 23.251826630165752 1 1 0
813 2 7.246826617384521 0.9440815564081015 21.858291704124994 1 0 0
606 2 6.792030058927038 1.9875766436571167 23.833075266387695 0 0 0
587 2 5.144357634792148 0.02704607093283029 21.24532961158541 0 0 0
837 2 4.664085068909552 2.988027368265045 23.289786847136615 1 0 -1
216 2 6.518588635943984 0.5402006873039777 25.569870905721857 0 0 0
381 2 8.32189051340458 8.242065209885999 20.2881630567231 0 0 0
378 2 8.527223144599407 2.6307134451126717 20.835873031376845 0 0 0
824 2 11.312797618692757 1.3325321037825733 23.7882364959927 -1 0 -1
356 2 10.127444894393795 2.9579678565187426 22.4858395779057 0 0 0
811 2 10.32607179512023 -0.29788111900875736 25.223759209151293 0 0 -1
305 2 12.340335637316887 10.851762691027044 20.13116130363776 0 0 0
969 2 8.54159171615309 3.6569175241221457 24.186225649118224 0 0 0
589 2 -0.17733145072342815 6.094349054874708 21.59087706744862 1 0 0
489 2 1.8337466927057995 6.911381021519667 22.592246658233865 0 0 0
680 2 2.636345265688666 6.148180684093216 24.757005424140665 0 0 -1
286 2 3.609374399758413 3.891244907851129 25.20152577168328 0 0 0
757 2 6.893619122453721 6.7312951052712355 25.63149953353904 0 0 -1
441 2 3.858097569171756 6.419047529305206 21.311932353880923 1 0 0
934 2 4.555250390124445 4.228549280768717 21.31689434784733 0 0 0
370 2 6.805894903245283 4.540392191586274 20.62266201386248 0 0 0
633 2 4.709515211299145 7.341689866713731 24.817291953215026 1 0 -1
950 2 7.488767402091048 6.538327561540575 21.69442264193562 0 0 -1
307 2 5.384063161186623 7.456495609562959 22.58321363682092 0 0 -1
245 2 7.096891276748713 11.633337281547032 19.320940644043365 0 0 0
623 2 8.316878395410924 6.102319573553023 23.864998888905905 0 0 0
912 2 11.805865720611736 4.2375453418799625 21.311515222794597 0 0 0
339 2 10.741309447085591 6.708926465380849 23.626982057429164 0 1 -1
916 2 11.692229150255423 6.638617938133859 21.601276321998945 0 0 0
816 2 12.116249996679624 5.473872930868635 25.06036134841299 0 0 -1
669 2 10.537416769876316 7.882170929609172 19.800900149940155 0 0 -1
665 2 1.6593733211773807 11.989270570257846 25.71155760359087 0 0 0
864 2 2.4293596056571936 11.959860639069522 21.001790558738175 0 0 -1
502 2 2.0136977752249394 9.738199358313734 25.61325706454085 0 0 0
624 2 0.610761462048617 10.833307401328495 21.933991087660935 0 0 -1
938 2 1.1522543590960523 9.099789859778632 23.55088164501877 1 0 0
126 1 2.9679830762832617 8.94130482796691 21.034132848894693 1 0 -1
372 2 -0.6285354246793222 12.206822978770951 25.456443121453386 1 0 0
625 2 3.89124767430153 10.246171611982032 20.921844526189574 0 0 0
974 2 4.265062349778362 9.592330244424952 25.55456333952723 0 0 0
694 2 5.539721359364795 11.008916953188589 24.320219686439444 0 0 -1
578 2 5.736589784094871 9.865648641143405 22.35120927213905 0 0 0
449 2 7.552915507921719 10.326556577260957 21.107692868035176 0 0 -1
734 2 7.7700332062886375 10.640123972295099 25.30381380127659 0 0 -1
85 1 12.39854515220257 10.339217072367957 21.5343434215365 1 0 -1
16 1 9.21990326601557 9.600943310756483 22.74214472151396 -1 -1 -1
175 1 8.39541554383745 11.176681229092267 22.048318957860346 1 0 1
985 2 9.558405365133028 10.473842148649142 23.95682179161083 0 0 0
56 1 10.170261023766765 11.821410005084799 23.5986172754643 0 0 -1
303 2 10.89026623119914 8.772315266904226 24.76951000741463 0 0 -1
69 1 10.134406873324249 12.39093033025733 21.256966485596923 0 0 0
562 2 3.725403439798068 3.261005760147781 19.270729297994794 0 1 -1
888 2 12.140060840895572 3.0677457997510214 19.20547686591564 0 0 0
89 1 5.910664485344962 12.438498585665346 19.79710227200386 1 0 -1
118 1 0.9845174293682675 -0.7030791953299094 25.70770566072204 1 0 -2
907 2 2.1303675645186635 15.120635517639593 1.8246274576394361 0 0 0
852 2 3.398516129613654 15.52267813417307 3.7582467653912275 0 0 0
464 2 3.303740458238753 16.3863932474451 0.22389810786379116 1 0 0
925 2 -0.09132443250756861 15.607972674983497 2.5486784948284575 0 0 1
778 2 2.108641391297732 12.882459120130836 1.3964132280761312 0 0 1
972 2 3.4715323365664963 13.585051466156184 5.016458060354817 0 -1 0
493 2 5.496102561098809 13.18396819236668 0.25304799996200034 1 0 1
398 2 7.322098740374338 15.018339209806397 4.044410844405047 0 0 0
681 2 5.367792776684953 15.494183972535307 0.849252814329361 0 0 1
260 2 5.526193905608784 16.075744028111004 3.0142762757551087 0 0 0
992 2 7.188849774732018 16.71077193835768 0.2114892866950835 0 0 0
760 2 7.100385807273652 12.65446199024669 4.0008135930876 0 0 0
708 2 9.344802260493989 15.650969295123346 2.9454621843809865 0 0 0
224 2 11.34361626455618 14.744588028913945 3.9152194666801936 0 0 0
739 2 9.277174279477007 15.785077837727844 0.3914509635761343 0 0 1
375 2 11.12624531896908 13.293753529697765 5.795382880658613 0 0 0
627 2 12.3806859820823 16.2644010818616 5.304928306752042 0 0 0
862 2 2.5124259332399754 17.384964596780147 5.039028294308334 0 -1 1
241 2 0.6298150572627572 18.650660950637725 4.271234578816695 0 0 0
149 1 1.2347384721228654 20.026683725583965 3.9152076102377427 1 0 0
657 2 1.2288887074092218 19.544291502565404 -0.08894822198520635 0 0 1
116 1 1.235949736240419 20.595814508134602 1.0474813104286835 1 0 1
663 2 -0.5716373566914021 18.015020710519074 0.28034667412469516 0 -1 1
501 2 3.528902967511316 18.61942308061981 -0.1807312451309555 0 0 0
521 2 8.96099860928291 13.82934104986412 -0.7854957198422721 0 0 0
124 1 3.9892909737372113 20.86885654189304 1.8305869911154673 0 -2 -1
763 2 4.858298278699563 19.876269575363708 1.1403863878988212 0 0 1
611 2 5.651346478749374 18.403498495716306 3.042401729662035 0 -1 0
686 2 5.651858428569105 19.6600297763854 5.017580838103104 0 0 0
270 2 7.057828550725646 20.238637692725103 0.6453939296959246 0 0 1
987 2 7.651750920398527 18.365741790205306 1.8121387463867262 0 0 1
5 1 5.418087141410816 21.005888438133738 4.57825331475323 0 -1 1
474 2 9.54557578001333 18.00650313736713 3.0644752809796465 0 0 0
406 2 9.665936974223088 19.67650613294971 4.716100014201163 0 -1 0
219 2 11.188367172356267 18.749498238611316 1.6047661542817275 0 0 0
291 2 11.404187302364111 21.068696458073887 1.4578151833940214 0 0 1
395 2 10.758915047850255 17.539603020982053 -0.37873486546389795 0 0 1
431 2 11.861795938928587 20.201104459328494 5.8191619333501725 0 0 0
188 1 1.2734750383700812 25.485905752428152 4.216244609864411 1 -1 1
92 1 -0.40142805876556514 23.34330250299177 2.143254785301635 1 -1 -1
157 1 0.8859779921247406 23.925220336542974 0.2977712237264387 2 0 1
86 1 2.705728293221855 25.246937348923932 -0.2297569775707301 1 0 0
143 1 3.2967578218293436 25.251327843562855 0.2008096420683625 1 0 0
984 2 -0.49461317704390684 23.44059308662761 0.6459919185073562 1 0 0
196 1 0.8115224846489602 22.952994625540175 3.495255877000062 0 0 0
139 1 0.8376557039895796 22.44846699725521 4.070980287793522 1 0 1
292 2 -0.6909806337689997 17.80681274885311 2.5381673292226448 1 0 1
87 1 3.2172528825637903 22.866802417239054 3.564084812965718 0 -1 0
164 1 3.114546206312698 22.14696622550108 3.547994885018075 1 0 0
208 2 6.474281924729328 25.215489495611894 2.6521370123674184 0 0 0
138 1 6.906934348612591 24.68085340398206 3.9412734687323248 1 1 1
171 1 6.50131763761745 22.517025264577025 2.277311895432398 0 0 1
67 1 5.568161265752088 24.46449118848489 1.8791885566482374 1 -1 1
63 1 7.889480366135308 24.557035191801106 5.2465889223438635 1 0 0
232 2 10.982800822670601 22.6340132118582 -0.19837500382253037 0 0 0
828 2 10.547160507031952 23.303801604434607 4.463666274172388 1 0 0
298 2 7.755396878683143 21.884537932315318 1.9772338209962093 0 -1 0
214 2 11.944778765452785 24.817728265119143 -0.33418329595053353 0 0 0
264 2 10.515395808380953 25.0937134208344 3.108004590043213 0 0 0
310 2 8.55710181375549 25.161955206334575 1.4966057318881112 0 -1 0
979 2 9.784466452115199 21.569716926867077 3.078311224121113 0 0 1
970 2 8.815344321606686 23.315033728871875 0.17012606343645542 0 0 1
39 1 11.760608157014948 12.854778591964955 -0.050287959585773034 0 0 1
84 1 1.1617477397778073 23.93101990541483 5.7587711044667484 0 -1 1
142 1 12.015477526674038 16.782017782253327 -0.701969457091483 -1 0 1
929 2 1.2987464565660432 13.76776819193174 9.803840761256486 1 0 0
238 2 2.659990571347575 15.09223291199314 8.55581377850351 1 0 0
293 2 1.1982016044120702 16.012921725207434 6.750801096109857 0 0 0
515 2 -0.23937856360979382 14.042236868895603 11.619006928215471 0 0 0
639 2 0.3220120221530889 14.019253724679125 6.227598155620085 0 0 0
579 2 -0.4716590649710461 13.02313076063171 8.293972204974652 0 0 0
821 2 4.1739703912774955 13.701592752045446 7.262871536397787 1 0 0
35 1 4.484670116682732 14.180941184121929 10.888379294390933 1 -1 0
209 2 6.966776946981522 15.941136162046774 10.299097175515529 0 0 0
790 2 7.539236800025289 15.399943082881158 6.380218785107105 0 0 0
908 2 7.3491016986988615 13.650487106317126 9.58286379162523 0 0 0
268 2 6.499127742048878 13.557257395454371 7.3349907158681145 0 0 0
495 2 5.1247318621204085 16.77618871660578 11.56274421782274 0 0 1
333 2 4.309391937430969 12.78080734168627 11.46643319556524 0 0 0
782 2 9.083015557683796 15.894152568666275 11.241019764066996 0 0 0
212 2 9.794246642839617 14.573286968788134 7.221425101442561 0 1 0
787 2 10.622600292850786 14.173497418646418 11.05017197422148 0 0 0
905 2 9.664332399292013 13.254746510840498 9.098437432222163 0 0 0
795 2 11.325434180093396 16.1990271556949 7.395058848759161 0 0 0
46 1 12.44752904483662 15.864465510047072 8.195926485178143 0 0 0
414 2 3.276764323156928 16.92080749390404 9.631776317983135 0 0 0
815 2 1.4968121114104829 17.917066893992395 10.91946061397989 0 0 0
758 2 -0.460522357287784 18.443347199863084 9.655998102025181 0 0 0
986 2 1.7750476490613347 20.143650289274465 12.054215232595386 0 0 0
863 2 -0.6216193661936135 17.354658467589935 7.518918783374877 0 -1 0
109 1 2.370535604926841 21.247394149815477 9.28649341795724 1 -1 1
831 2 -0.6744301113559005 20.968941503801446 9.440716042352866 0 0 0
382 2 -0.20811197564627804 21.259148969087825 7.141984671274038 0 0 0
830 2 -0.7371262762946762 19.20384712692558 6.100116163772694 0 0 0
96 1 2.667328026617709 20.072014983362706 6.797199724984797 0 -1 1
796 2 6.769304060609175 17.007094599385624 8.182881895375385 1 0 0
204 2 3.701823748285597 19.031753335911976 6.323007231478655 1 0 0
740 2 4.736166775197688 18.243292347818866 8.305570195957909 0 0 0
779 2 5.369857330292613 19.935836123854962 9.555220184874205 0 0 0
998 2 5.630591077883552 19.055669971377988 11.884722059302907 0 0 1
386 2 7.52174089865035 20.711755013257903 9.050367222048362 0 0 0
102 1 4.270527696881732 21.097789045116393 9.674098959182599 0 -1 0
765 2 7.896818702080811 20.133938451214824 6.1007478654636484 0 0 1
797 2 8.31719952299504 18.852113452526883 7.878086916985062 0 0 0
898 2 9.20686879710182 19.823307057965298 12.121015653413114 0 0 0
596 2 10.10402624948805 17.94643672183954 10.912024726097687 0 0 0
791 2 10.422231982087922 18.066264081973234 8.548237388287282 1 0 0
273 2 12.169624205915953 19.65458090697483 8.173318696190458 0 0 0
966 2 12.363410476158297 17.37472912820533 11.475815133273954 0 0 0
230 2 11.48022373272039 21.299549302450238 9.692513243646957 0 0 0
475 2 9.296151825666197 21.41059227973855 10.592267029163247 0 -1 0
93 1 1.277100156867058 21.79423900625284 6.971966997570666 1 -1 2
491 2 1.3802409893463254 21.662842918865465 10.341384086695587 0 0 0
122 1 0.9678895563839545 24.81185803863258 9.722837570053013 1 -1 0
997 2 1.4218398735542737 23.87657827870184 10.872138425843623 0 0 0
110 1 1.253404905671145 24.419403019885443 6.387312083564181 1 -1 0
810 2 4.845321637609773 22.46252518668519 12.368881310171524 0 0 0
78 1 4.2087054626839695 23.163065562822805 9.385458594145543 1 -1 0
311 2 6.72429568107862 25.209170895003496 9.247096104164575 0 0 0
47 1 6.3044012624400905 24.074382293313768 8.11916749322243 -1 -1 0
954 2 3.7987329505482688 23.773026429552313 10.668176970025275 1 0 0
132 1 6.031805873122761 22.49127010033509 6.70486846780664 0 0 0
628 2 12.509550249665804 24.576362356265243 12.099100132619036 0 0 0
990 2 7.397265769097105 22.26335462600796 7.072075370374428 0 1 0
111 1 10.561859207542069 22.871585835357994 7.4181380093324965 1 -1 0
342 2 11.521337968856317 23.3259962893232 8.49834529950075 0 0 0
688 2 8.939459732020373 23.922264621567322 6.1517101161189585 0 0 0
318 2 10.701552832437077 25.351071875066815 9.200468209434106 0 0 0
499 2 8.707073744265402 25.094683542828577 10.556385369903985 0 0 0
237 2 8.803699771927159 23.28079743337774 11.76784653063312 0 -1 0
842 2 2.388163326774578 14.147736040575792 17.59407502314195 0 0 -1
577 2 0.6381026275432944 13.62724793394025 16.092138503010936 0 0 0
885 2 1.1352825100309698 16.00082774039496 18.50513149593609 0 0 0
387 2 -0.623636890627125 15.75270365740202 13.215402732059015 1 0 0
450 2 -0.18857395907528718 12.685478399995183 18.102252637167265 0 0 0
553 2 3.701449464253404 13.326724539949991 13.722722993447848 0 0 0
768 2 3.7369083429658456 15.736166869117461 13.40904600550665 0 0 0
930 2 4.531512388070842 14.594509473211568 16.9399962530072 0 0 0
225 2 7.250262086731384 14.36422575968551 14.366911463046787 0 0 0
609 2 5.422626533832166 13.146160917502568 15.327126477602384 0 0 0
965 2 4.7294155260216515 16.454861824476993 15.557136585830062 0 0 0
64 1 5.400818978396916 14.632710033254543 18.108113616625346 0 0 -1
61 1 6.282054619467359 15.637757109163395 14.37980433440755 -1 0 -1
107 1 7.965822476244014 14.215124373989422 15.723119741421154 0 0 0
83 1 11.292338294216979 15.885980364283355 18.472231864849885 -1 0 -1
903 2 10.27081419808814 12.620209042781045 12.744440472928607 0 0 0
328 2 7.968767400100845 12.64225784207363 12.945041732352419 0 0 0
88 1 8.675437341552758 14.007385548392033 18.121432490824642 0 1 -1
714 2 10.973362194627185 15.714796491396331 14.81386681803234 0 0 0
752 2 10.764352439735303 13.454150613741852 14.90077637985172 0 0 0
289 2 8.838653435244225 16.031686870312257 13.605952339798865 0 0 0
97 1 10.709584766324053 16.606169598697413 15.961348547740034 0 0 0
10 1 12.1079961024175 13.080252126016562 15.365229640898619 0 0 0
467 2 6.979046440517104 24.189225495132153 19.094559976619557 0 0 0
26 1 9.511951944810807 23.445962673945647 17.185991182760354 0 0 -1
191 1 11.518531980821685 15.38665940043651 18.915673692017133 -1 0 0
982 2 1.6305854968255948 16.65679411812826 12.994139345588424 0 0 0
927 2 0.36769154604792664 17.14996787026023 16.510022048216445 0 0 0
918 2 1.4517755547499975 18.154654331075086 14.849792846443794 0 0 0
513 2 0.5346427543024082 20.144845439986696 13.974199966619524 0 -1 0
682 2 1.027676836712777 20.515108490399655 17.58750515520977 0 0 0
649 2 2.925084606904717 19.211403765849756 18.12877360725653 0 0 0
392 2 3.3400432451612154 18.434625582219162 16.047544945252035 0 0 0
106 1 7.748804348731877 16.446418961714507 16.43277056203398 0 0 0
151 1 6.4707257330585035 17.869554295991904 17.839568084335713 0 0 0
330 2 6.7052635802265765 17.508267205530785 16.38850104714188 0 0 0
798 2 7.24279300228204 20.071938595119107 13.372458799554606 0 0 0
876 2 4.450835090022355 20.26541338611692 15.167712272080147 0 0 0
231 2 6.730642716560736 19.685448441087985 15.713975741757881 0 0 0
713 2 7.67035868071407 20.923487585740773 17.468833383500705 0 0 0
324 2 4.017642866143007 20.29681093831666 12.861295839573875 0 0 0
68 1 8.334838370753392 17.329985017260576 14.357352234782711 -2 0 0
456 2 11.072482140633864 20.32989856209793 13.326855417300411 0 0 0
30 1 11.311550850852864 19.03315734327878 14.16936465261705 1 -1 0
99 1 9.823230410219864 18.60197175753864 18.79180818022238 -1 0 -1
123 1 10.484992275747466 18.493974442276677 18.392972640349548 1 -1 -1
593 2 10.760827183835737 22.122424134535613 14.749568424626467 0 0 -1
256 2 9.14939956585262 25.47625132295443 14.092701008404827 0 -1 0
584 2 -0.6599516696815276 23.493940391547874 15.687662783304141 0 -1 0
411 2 1.0092793876187522 21.735498832084488 15.71986701916303 0 -1 0
21 1 -0.0693940439497398 24.742853935097585 16.33375354387193 0 0 1
51 1 1.2134630834928783 23.634447085816188 18.24454498061826 -1 0 -1
43 1 1.691043884924857 23.99034584726415 13.794274816805768 1 0 0
366 2 3.2926485071368443 22.296688116841693 15.567067081187052 0 0 0
946 2 3.4026616733257304 25.314042018751863 17.999141703014804 0 0 0
720 2 0.7752281526490548 24.68243928119348 12.852692741508458 0 -1 0
180 1 4.089405070174243 24.97366430316649 13.541771552912321 0 0 -1
514 2 7.609911900711763 23.81156342521091 14.992869267850208 0 -1 0
121 1 3.9814609653450805 22.691839361098314 13.931074257488897 0 0 0
648 2 5.88611264606924 25.260106605404882 15.676213710344388 0 0 0
364 2 4.577147001820089 23.82585414779385 16.81414716874958 0 0 -1
956 2 5.857588388059958 22.396144566407052 18.058104543903404 0 0 0
572 2 6.9604525757194065 22.449020084814006 13.112340891234062 0 0 0