 vasp.6.5.0 16Dec24 (build Jan 20 2025 08:32:48) complex                         
 executed on        HPECrayEX_GCC date 2025.07.22  00:17:33
 running  128 mpi-ranks, with    1 threads/rank, on    1 nodes
 distrk:  each k-point on  128 cores,    1 groups
 distr:  one band on NCORE=  16 cores,    8 groups


--------------------------------------------------------------------------------------------------------


 INCAR:
   SYSTEM = a-Si SPC
   NCORE = 16
   ISTART = 1
   ICHARG = 1
   ISPIN = 1
   ISYM = 1
   EDIFF = 1E-6
   NELM = 150
   EDIFFG = -0.01
   NSW = 0
   ISIF = 2
   IBRION = -1
   PREC = Accurate
   ENCUT = 1200
   KSPACING = 0.23
   KGAMMA = .TRUE.
   METAGGA = SCAN
   LASPH = .TRUE.
   LDIAG = .FALSE.
   LMIXTAU = .TRUE.
   ADDGRID = .TRUE.
   ALGO = Normal
   ISMEAR = 0
   SIGMA = 0.1
   LORBIT = 11
   NEDOS = 2000
   LWAVE = .FALSE.
   LCHARG = .FALSE.

 POTCAR:    PAW_PBE H 15Jun2001                   
 POTCAR:    PAW_PBE Si 05Jan2001                  
 POTCAR:    PAW_PBE H 15Jun2001                   
   SHA256 =  030f79b5d3ab3cf0e668861823c8fb652ff669f3e15e46930bd03bfd63a607b6 H/POTCAR              
   COPYR  = (c) Copyright 15Jun2001 Georg Kresse                                                    
   COPYR  = This file is part of the software VASP. Any use, copying, and all other rights are regul
   COPYR  = If you do not have a valid VASP license, you may not use, copy or distribute this file. 
   VRHFIN =H: ultrasoft test                                                                        
   LEXCH  = PE                                                                                      
   EATOM  =    12.4884 eV,    0.9179 Ry                                                             
                                                                                                    
   TITEL  = PAW_PBE H 15Jun2001                                                                     
   LULTRA =        F    use ultrasoft PP ?                                                          
   IUNSCR =        0    unscreen: 0-lin 1-nonlin 2-no                                               
   RPACOR =    0.000    partial core radius                                                         
   POMASS =    1.000; ZVAL   =    1.000    mass and valenz                                          
   RCORE  =    1.100    outmost cutoff radius                                                       
   RWIGS  =    0.700; RWIGS  =    0.370    wigner-seitz radius (au A)                               
   ENMAX  =  250.000; ENMIN  =  200.000 eV                                                          
   RCLOC  =    0.701    cutoff for local pot                                                        
   LCOR   =        T    correct aug charges                                                         
   LPAW   =        T    paw PP                                                                      
   EAUG   =  400.000                                                                                
   RMAX   =    1.123    core radius for proj-oper                                                   
   RAUG   =    1.200    factor for augmentation sphere                                              
   RDEP   =    1.112    radius for radial grids                                                     
   RDEPT  =    0.926    core radius for aug-charge                                                  
                                                                                                    
   Atomic configuration                                                                             
    2 entries                                                                                       
     n  l   j            E        occ.                                                              
     1  0  0.50        -6.4927   1.0000                                                             
     2  1  0.50        -3.4015   0.0000                                                             
   Description                                                                                      
     l       E           TYP  RCUT    TYP  RCUT                                                     
     0     -6.4927494     23  1.100                                                                 
     0      6.8029130     23  1.100                                                                 
     1     -4.0817478     23  1.100                                                                 
  local pseudopotential read in
  atomic valenz-charges read in
  non local Contribution for L=           0  read in
    real space projection operators read in
  non local Contribution for L=           0  read in
    real space projection operators read in
  non local Contribution for L=           1  read in
    real space projection operators read in
    PAW grid and wavefunctions read in

   number of l-projection  operators is LMAX  =           3
   number of lm-projection operators is LMMAX =           5

 POTCAR:    PAW_PBE Si 05Jan2001                  
   SHA256 =  79d9987ad8750f624c4d6acb2a16d13abf6a777132adc04dc6c8399be72b42bb Si/POTCAR             
   COPYR  = (c) Copyright 05Jan2001 Georg Kresse                                                    
   COPYR  = This file is part of the software VASP. Any use, copying, and all other rights are regul
   COPYR  = If you do not have a valid VASP license, you may not use, copy or distribute this file. 
   VRHFIN =Si: s2p2                                                                                 
   LEXCH  = PE                                                                                      
   EATOM  =   103.0669 eV,    7.5752 Ry                                                             
                                                                                                    
   TITEL  = PAW_PBE Si 05Jan2001                                                                    
   LULTRA =        F    use ultrasoft PP ?                                                          
   IUNSCR =        1    unscreen: 0-lin 1-nonlin 2-no                                               
   RPACOR =    1.500    partial core radius                                                         
   POMASS =   28.085; ZVAL   =    4.000    mass and valenz                                          
   RCORE  =    1.900    outmost cutoff radius                                                       
   RWIGS  =    2.480; RWIGS  =    1.312    wigner-seitz radius (au A)                               
   ENMAX  =  245.345; ENMIN  =  184.009 eV                                                          
   ICORE  =        2    local potential                                                             
   LCOR   =        T    correct aug charges                                                         
   LPAW   =        T    paw PP                                                                      
   EAUG   =  322.069                                                                                
   DEXC   =    0.000                                                                                
   RMAX   =    1.950    core radius for proj-oper                                                   
   RAUG   =    1.300    factor for augmentation sphere                                              
   RDEP   =    1.993    radius for radial grids                                                     
   RDEPT  =    1.837    core radius for aug-charge                                                  
                                                                                                    
   Atomic configuration                                                                             
    6 entries                                                                                       
     n  l   j            E        occ.                                                              
     1  0  0.50     -1785.8828   2.0000                                                             
     2  0  0.50      -139.4969   2.0000                                                             
     2  1  1.50       -95.5546   6.0000                                                             
     3  0  0.50       -10.8127   2.0000                                                             
     3  1  0.50        -4.0811   2.0000                                                             
     3  2  1.50        -4.0817   0.0000                                                             
   Description                                                                                      
     l       E           TYP  RCUT    TYP  RCUT                                                     
     0    -10.8127223     23  1.900                                                                 
     0     -7.6451159     23  1.900                                                                 
     1     -4.0811372     23  1.900                                                                 
     1      2.4879257     23  1.900                                                                 
     2     -4.0817478      7  1.900                                                                 
  local pseudopotential read in
  partial core-charges read in
  partial kinetic energy density read in
  atomic valenz-charges read in
  non local Contribution for L=           0  read in
    real space projection operators read in
  non local Contribution for L=           0  read in
    real space projection operators read in
  non local Contribution for L=           1  read in
    real space projection operators read in
  non local Contribution for L=           1  read in
    real space projection operators read in
    PAW grid and wavefunctions read in

   number of l-projection  operators is LMAX  =           4
   number of lm-projection operators is LMMAX =           8

 -----------------------------------------------------------------------------
|                                                                             |
|               ----> ADVICE to this user running VASP <----                  |
|                                                                             |
|     You have a (more or less) 'large supercell' and for larger cells it     |
|     might be more efficient to use real-space projection operators.         |
|     Therefore, try LREAL= Auto in the INCAR file.                           |
|     Mind: For very accurate calculation, you might also keep the            |
|     reciprocal projection scheme (i.e. LREAL=.FALSE.).                      |
|                                                                             |
 -----------------------------------------------------------------------------

 -----------------------------------------------------------------------------
|                                                                             |
|               ----> ADVICE to this user running VASP <----                  |
|                                                                             |
|     You enforced a specific xc type in the INCAR file but a different       |
|     type was found in the POTCAR file.                                      |
|     I HOPE YOU KNOW WHAT YOU ARE DOING!                                     |
|                                                                             |
 -----------------------------------------------------------------------------

  PAW_PBE H 15Jun2001                   :
 energy of atom  1       EATOM=  -12.4884
 kinetic energy error for atom=    0.0000 (will be added to EATOM!!)
  PAW_PBE Si 05Jan2001                  :
 energy of atom  2       EATOM= -103.0669
 kinetic energy error for atom=    0.0001 (will be added to EATOM!!)


 POSCAR:  H Si
  positions in cartesian coordinates
  No initial velocities read in


 exchange-correlation table for SCAN
   RHO(1)=    0.500       N(1)  =     2000
   RHO(2)=  100.500       N(2)  =     4000



--------------------------------------------------------------------------------------------------------


 ion  position               nearest neighbor table
   1  0.166  0.278  0.749-  24 1.45
   2  0.868  0.354  0.157-  22 1.49
   3  0.025  0.084  0.028-  97 1.44
   4  0.810  0.983  0.040-  30 1.53
   5  0.818  0.572  0.910-  44 1.49
   6  0.280  0.745  0.546-  83 1.45
   7  0.847  0.171  0.907-  74 1.48
   8  0.704  0.447  0.894-  15 1.48
   9  0.885  0.174  0.222-  31 1.50
  10  0.824  0.030  0.827-  74 1.39
  11  0.408  0.441  0.645-  34 1.46
  12  0.731  0.923  0.912- 102 1.47
  13  0.973  0.320  0.798-  38 1.49
  14  0.472  0.823  0.583-  45 2.39  21 2.52  79 2.55 110 2.59
  15  0.611  0.429  0.943-   8 1.48  75 2.34 106 2.39  41 2.51
  16  0.670  0.219  0.425-  27 2.21  53 2.34  52 2.48  63 2.51
  17  0.002  0.535  0.074-  76 2.31  44 2.38  90 2.43  22 2.50
  18  0.824  0.844  0.536-  49 2.40  36 2.42  73 2.44  26 2.50
  19  0.435  0.070  0.628-  66 2.32  70 2.34  68 2.34  98 2.53
  20  0.233  0.528  0.512- 109 2.39  72 2.40  33 2.48  40 2.48
  21  0.390  0.844  0.785- 101 2.24  93 2.31  14 2.52  95 2.54
  22  0.896  0.445  0.209-   2 1.49  89 2.36  55 2.40  17 2.50
  23  0.602  0.419  0.545-  47 2.26  54 2.39  52 2.52  53 2.68
  24  0.121  0.266  0.632-   1 1.45  33 2.37  38 2.46  60 2.47
  25  0.186  0.854  0.219-  50 2.23  88 2.27  77 2.35 103 2.53
  26  0.976  0.890  0.625-  86 2.28  46 2.36 105 2.46  18 2.50
  27  0.775  0.118  0.481-  16 2.21  36 2.41 104 2.43  31 2.46
  28  0.223  0.193  0.027-  32 2.21  97 2.37  64 2.37  71 2.62
  29  0.227  0.070  0.413-  82 2.28  60 2.32  88 2.39  94 2.47
  30  0.815  0.969  0.179-   4 1.53  31 2.34  61 2.41  56 2.44
  31  0.872  0.089  0.300-   9 1.50 107 2.32  30 2.34  27 2.46
  32  0.320  0.127  0.898-  28 2.21 100 2.27  35 2.36  98 2.39  71 2.95
  33  0.215  0.359  0.504-  99 2.28  24 2.37  62 2.39  20 2.48
  34  0.378  0.472  0.766-  11 1.46  65 2.26  40 2.33 106 2.43
  35  0.365  0.014  0.040-  32 2.36  95 2.43  71 2.44  77 2.52
  36  0.714  0.964  0.488-  27 2.41  18 2.42  61 2.45  45 2.51
  37  0.730  0.644  0.375-  49 2.34  96 2.42  89 2.50  67 2.53
  38  0.956  0.296  0.667-  13 1.49 104 2.27  69 2.35  24 2.46
  39  0.988  0.653  0.781-  44 2.35  92 2.37 105 2.45  84 2.52
  40  0.280  0.593  0.713-  34 2.33  92 2.39 101 2.48  20 2.48  80 3.15
  41  0.559  0.264  0.935- 100 2.37  51 2.42  58 2.46  15 2.51
  42  0.366  0.438  0.131-  91 2.35  87 2.41  65 2.46  81 2.48
  43  0.529  0.619  0.166-  75 2.30  81 2.34  59 2.38  96 2.45
  44  0.898  0.626  0.958-   5 1.49  57 2.34  39 2.35  17 2.38
  45  0.608  0.900  0.649-  73 2.35  14 2.39  68 2.45  36 2.51
  46  0.068  0.798  0.495-  83 2.21  85 2.31  26 2.36  50 2.40
  47  0.477  0.408  0.422-  23 2.26  91 2.28  99 2.41  72 2.50
  48  0.579  0.815  0.017-  59 2.39  95 2.41 102 2.52 108 2.59
  49  0.862  0.735  0.379-  37 2.34  85 2.36  18 2.40  56 2.50
  50  0.048  0.876  0.302-  25 2.23  56 2.33  46 2.40 107 2.51
  51  0.646  0.166  0.799-  53 2.39  41 2.42  74 2.47  68 2.49
  52  0.740  0.375  0.420-  89 2.36  16 2.48  23 2.52  69 2.59
  53  0.598  0.242  0.615-  70 2.25  16 2.34  51 2.39  23 2.68
  54  0.602  0.567  0.639- 110 2.32  67 2.34 106 2.35  23 2.39
  55  0.001  0.415  0.375-  62 2.37  22 2.40  69 2.46 109 2.48
  56  0.913  0.834  0.203-  50 2.33  30 2.44  49 2.50  57 2.50
  57  0.884  0.785  0.986-  44 2.34 105 2.36 102 2.43  56 2.50
  58  0.510  0.226  0.146-  71 2.27  91 2.34  41 2.46  63 2.47
  59  0.499  0.677  0.966- 101 2.33  43 2.38  48 2.39 106 2.57
  60  0.154  0.102  0.598-  86 2.26  98 2.32  29 2.32  24 2.47
  61  0.665  0.966  0.273- 108 2.39  30 2.41  36 2.45  63 2.49
  62  0.131  0.325  0.320-  87 2.33  55 2.37  33 2.39  94 2.62
  63  0.580  0.114  0.289-  66 2.33  58 2.47  61 2.49  16 2.51
  64  0.189  0.349  0.985-  65 2.30  28 2.37  87 2.41  90 2.43
  65  0.337  0.378  0.923-  34 2.26 100 2.28  64 2.30  42 2.46
  66  0.469  0.052  0.422-  79 2.26  82 2.27  19 2.32  63 2.33
  67  0.742  0.642  0.606-  54 2.34  73 2.35  84 2.35  37 2.53
  68  0.548  0.028  0.771-  95 2.32  19 2.34  45 2.45  51 2.49
  69  0.888  0.409  0.543-  38 2.35  55 2.46  84 2.55  52 2.59
  70  0.446  0.230  0.652- 100 2.24  53 2.25  19 2.34  99 2.45
  71  0.370  0.157  0.157-  58 2.27  82 2.41  35 2.44  28 2.62  32 2.95
  72  0.382  0.550  0.421-  81 2.38  20 2.40  47 2.50 110 2.50
  73  0.719  0.788  0.695-  45 2.35  67 2.35 102 2.38  18 2.44
  74  0.811  0.122  0.798-  10 1.39   7 1.48 104 2.40  51 2.47
  75  0.607  0.482  0.146-  43 2.30  91 2.31  15 2.34  89 2.46
  76  0.129  0.573  0.192-  17 2.31 109 2.39 103 2.41  87 2.45
  77  0.202  0.954  0.051-  25 2.35  97 2.43  78 2.45  35 2.52
  78  0.148  0.846  0.894-  93 2.36  80 2.37  77 2.45 105 2.46
  79  0.433  0.904  0.382-  66 2.26 108 2.33  88 2.43  14 2.55
  80  0.224  0.707  0.947- 101 2.35  78 2.37 103 2.38  92 2.42  40 3.15
  81  0.373  0.597  0.212-  43 2.34  72 2.38 103 2.43  42 2.48
  82  0.356  0.154  0.377-  66 2.27  29 2.28  71 2.41  99 2.42
  83  0.215  0.820  0.532-   6 1.45  46 2.21  88 2.25  93 2.37
  84  0.887  0.573  0.626-  67 2.35  85 2.51  39 2.52  69 2.55
  85  0.986  0.662  0.480-  46 2.31 109 2.33  49 2.36  84 2.51
  86  0.011  0.040  0.588-  60 2.26  26 2.28 107 2.32 104 2.32
  87  0.205  0.423  0.182-  62 2.33  64 2.41  42 2.41  76 2.45
  88  0.266  0.912  0.381-  83 2.25  25 2.27  29 2.39  79 2.43
  89  0.748  0.492  0.270-  22 2.36  52 2.36  75 2.46  37 2.50
  90  0.078  0.458  0.904-  92 2.40  64 2.43  17 2.43
  91  0.500  0.377  0.219-  47 2.28  75 2.31  58 2.34  42 2.35
  92  0.138  0.599  0.823-  39 2.37  40 2.39  90 2.40  80 2.42
  93  0.243  0.887  0.727-  21 2.31  78 2.36  83 2.37  98 2.38
  94  0.108  0.148  0.290-  97 2.26 107 2.34  29 2.47  62 2.62
  95  0.489  0.938  0.929-  68 2.32  48 2.41  35 2.43  21 2.54
  96  0.580  0.712  0.340- 108 2.38  37 2.42  43 2.45 110 2.54
  97  0.109  0.089  0.098-   3 1.44  94 2.26  28 2.37  77 2.43
  98  0.276  0.047  0.715-  60 2.32  93 2.38  32 2.39  19 2.53
  99  0.360  0.300  0.484-  33 2.28  47 2.41  82 2.42  70 2.45
 100  0.409  0.250  0.850-  70 2.24  32 2.27  65 2.28  41 2.37
 101  0.367  0.699  0.847-  21 2.24  59 2.33  80 2.35  40 2.48
 102  0.731  0.822  0.908-  12 1.47  73 2.38  57 2.43  48 2.52
 103  0.241  0.694  0.164-  80 2.38  76 2.41  81 2.43  25 2.53
 104  0.902  0.154  0.619-  38 2.27  86 2.32  74 2.40  27 2.43
 105  0.989  0.818  0.828-  57 2.36  39 2.45  26 2.46  78 2.46
 106  0.525  0.537  0.825-  54 2.35  15 2.39  34 2.43  59 2.57
 107  0.011  0.036  0.375-  31 2.32  86 2.32  94 2.34  50 2.51
 108  0.545  0.855  0.244-  79 2.33  96 2.38  61 2.39  48 2.59
 109  0.092  0.557  0.405-  85 2.33  20 2.39  76 2.39  55 2.48
 110  0.495  0.652  0.528-  54 2.32  72 2.50  96 2.54  14 2.59

  LATTYP: Found a simple tetragonal cell.
 ALAT       =    14.5411363218
 C/A-ratio  =     0.7486908732
  
  Lattice vectors:
  
 A1 = (  14.5411363218,   0.0000000000,   0.0000000000)
 A2 = (   0.0000000000,  14.5411363218,   0.0000000000)
 A3 = (   0.0000000000,   0.0000000000,  10.8868160497)


Analysis of symmetry for initial positions (statically):
=====================================================================
 Subroutine PRICEL returns:
 Original cell was already a primitive cell.
 

 Routine SETGRP: Setting up the symmetry group for a 
 simple tetragonal supercell.


 Subroutine GETGRP returns: Found  1 space group operations
 (whereof  1 operations were pure point group operations)
 out of a pool of 16 trial point group operations.


The static configuration has the point symmetry C_1 .


Analysis of symmetry for dynamics (positions and initial velocities):
=====================================================================
 Subroutine PRICEL returns:
 Original cell was already a primitive cell.
 

 Routine SETGRP: Setting up the symmetry group for a 
 simple tetragonal supercell.


 Subroutine GETGRP returns: Found  1 space group operations
 (whereof  1 operations were pure point group operations)
 out of a pool of 16 trial point group operations.


The dynamic configuration has the point symmetry C_1 .


 Subroutine INISYM returns: Found  1 space group operations
 (whereof  1 operations are pure point group operations),
 and found     1 'primitive' translations


----------------------------------------------------------------------------------------

                                     Primitive cell                                     

  volume of cell :    2301.9590

  direct lattice vectors                    reciprocal lattice vectors
    14.541136322  0.000000000  0.000000000     0.068770416  0.000000000  0.000000000
     0.000000000 14.541136322  0.000000000     0.000000000  0.068770416  0.000000000
     0.000000000  0.000000000 10.886816050     0.000000000  0.000000000  0.091854220

  length of vectors
    14.541136322 14.541136322 10.886816050     0.068770416  0.068770416  0.091854220

  position of ions in fractional coordinates (direct lattice)
     0.165553774  0.278060800  0.749357752
     0.868446573  0.354414530  0.156899868
     0.025049418  0.083994811  0.028416848
     0.810060489  0.982708619  0.039572268
     0.818381709  0.571731109  0.910230315
     0.280070272  0.744508528  0.546212040
     0.847499104  0.170858036  0.907365382
     0.704442884  0.446937561  0.894306467
     0.884552604  0.173766337  0.221538601
     0.823745802  0.030337106  0.826538260
     0.407631829  0.440948345  0.645085760
     0.731345870  0.922809587  0.911753258
     0.972585614  0.320450885  0.798247161
     0.471607572  0.823188762  0.583485564
     0.611207391  0.428649444  0.943177505
     0.670356139  0.218989076  0.425353012
     0.002418221  0.535155563  0.074385109
     0.823821449  0.843978058  0.536382720
     0.435352497  0.070417468  0.627909020
     0.232795424  0.528030948  0.511850294
     0.389880122  0.844239386  0.785212128
     0.896209190  0.444800864  0.208964677
     0.601962584  0.418705930  0.545288905
     0.120922462  0.266261860  0.631604316
     0.186316938  0.854066679  0.218704899
     0.975604635  0.889779156  0.624590327
     0.775441461  0.117822291  0.480816428
     0.222723997  0.192507651  0.026724526
     0.227024211  0.069513825  0.413456054
     0.814908803  0.969167724  0.179209421
     0.872338978  0.089368532  0.299621118
     0.319745300  0.126974258  0.897709666
     0.214992827  0.358612277  0.503563207
     0.377684376  0.471843455  0.766010003
     0.365184665  0.013584564  0.039847279
     0.714387086  0.963824263  0.488071074
     0.729550963  0.644088591  0.374681632
     0.956252640  0.296126101  0.667401742
     0.987577565  0.653145654  0.781449779
     0.280253201  0.592784485  0.713188316
     0.559032652  0.264091465  0.935250486
     0.365671560  0.437826856  0.130593738
     0.528899519  0.618741191  0.166111009
     0.898017852  0.626018476  0.957975220
     0.608272958  0.900019071  0.648786566
     0.067514669  0.798066928  0.494955548
     0.477224740  0.407849144  0.421956243
     0.578964382  0.815156377  0.016852861
     0.862133448  0.735320800  0.378692905
     0.047838283  0.876004441  0.302036884
     0.646431599  0.166156203  0.799060989
     0.740292902  0.374514748  0.419505573
     0.598197404  0.241661306  0.614760089
     0.601968774  0.566946751  0.639055530
     0.000774608  0.414982699  0.374720210
     0.912652196  0.833511201  0.202834326
     0.883596695  0.785000549  0.985990757
     0.510333569  0.226036668  0.145814901
     0.498625406  0.676835688  0.965929795
     0.154155078  0.101545709  0.598208877
     0.664605557  0.965536646  0.273090864
     0.130737376  0.325033058  0.320131247
     0.579760743  0.113638987  0.289115751
     0.188990732  0.348981667  0.985246738
     0.337072007  0.377743519  0.922583789
     0.469423424  0.052280990  0.421572292
     0.742005285  0.642417470  0.606433504
     0.547558996  0.027736209  0.771391742
     0.888169928  0.409034058  0.543103693
     0.446170771  0.230039794  0.652297234
     0.370338320  0.156696832  0.156838326
     0.381569905  0.550393025  0.421415222
     0.719235400  0.788081464  0.694567628
     0.810926996  0.122478736  0.798378512
     0.606710494  0.482104689  0.145918696
     0.129456870  0.573107893  0.191633623
     0.202372767  0.954278929  0.051265034
     0.148418250  0.846123695  0.893922517
     0.432643630  0.904227820  0.382310125
     0.224040950  0.707076790  0.947053753
     0.372985294  0.596982231  0.211718467
     0.356447384  0.154267174  0.377173637
     0.215123490  0.819894659  0.532219886
     0.887241527  0.573166348  0.626409959
     0.985796411  0.662453730  0.479874003
     0.011407018  0.039934224  0.587770563
     0.205023867  0.423013021  0.182436260
     0.265997781  0.911689410  0.380746766
     0.747761369  0.491881091  0.269717058
     0.077632860  0.457709759  0.903772045
     0.500271770  0.377243558  0.219063130
     0.137876432  0.599156064  0.822719881
     0.243404636  0.886822028  0.726828667
     0.107533549  0.147646646  0.289698107
     0.489378536  0.938496119  0.929436114
     0.580348042  0.712392744  0.340094843
     0.108911021  0.088678764  0.098012127
     0.275818885  0.046816217  0.714920686
     0.359870775  0.300376800  0.483859558
     0.409421236  0.249905504  0.849985887
     0.367318611  0.699443274  0.847380902
     0.731394010  0.822067804  0.907952330
     0.241170286  0.693776592  0.164157270
     0.901944642  0.153998969  0.619002835
     0.989090514  0.817714636  0.827782885
     0.524888140  0.537435303  0.825064000
     0.011392713  0.035632016  0.374650401
     0.544906521  0.854995079  0.244179748
     0.092183992  0.557199233  0.404624270
     0.495282476  0.651577001  0.527502254

  ion indices of the primitive-cell ions
   primitive index   ion index
                 1           1
                 2           2
                 3           3
                 4           4
                 5           5
                 6           6
                 7           7
                 8           8
                 9           9
                10          10
                11          11
                12          12
                13          13
                14          14
                15          15
                16          16
                17          17
                18          18
                19          19
                20          20
                21          21
                22          22
                23          23
                24          24
                25          25
                26          26
                27          27
                28          28
                29          29
                30          30
                31          31
                32          32
                33          33
                34          34
                35          35
                36          36
                37          37
                38          38
                39          39
                40          40
                41          41
                42          42
                43          43
                44          44
                45          45
                46          46
                47          47
                48          48
                49          49
                50          50
                51          51
                52          52
                53          53
                54          54
                55          55
                56          56
                57          57
                58          58
                59          59
                60          60
                61          61
                62          62
                63          63
                64          64
                65          65
                66          66
                67          67
                68          68
                69          69
                70          70
                71          71
                72          72
                73          73
                74          74
                75          75
                76          76
                77          77
                78          78
                79          79
                80          80
                81          81
                82          82
                83          83
                84          84
                85          85
                86          86
                87          87
                88          88
                89          89
                90          90
                91          91
                92          92
                93          93
                94          94
                95          95
                96          96
                97          97
                98          98
                99          99
               100         100
               101         101
               102         102
               103         103
               104         104
               105         105
               106         106
               107         107
               108         108
               109         109
               110         110

----------------------------------------------------------------------------------------


 -----------------------------------------------------------------------------
|                                                                             |
|           W    W    AA    RRRRR   N    N  II  N    N   GGGG   !!!           |
|           W    W   A  A   R    R  NN   N  II  NN   N  G    G  !!!           |
|           W    W  A    A  R    R  N N  N  II  N N  N  G       !!!           |
|           W WW W  AAAAAA  RRRRR   N  N N  II  N  N N  G  GGG   !            |
|           WW  WW  A    A  R   R   N   NN  II  N   NN  G    G                |
|           W    W  A    A  R    R  N    N  II  N    N   GGGG   !!!           |
|                                                                             |
|     The requested file  could not be found or opened for reading            |
|     k-point information. Automatic k-point generation is used as a          |
|     fallback, which may lead to unwanted results.                           |
|                                                                             |
 -----------------------------------------------------------------------------



Automatic generation of k-mesh.
 Grid dimensions derived from KSPACING:
 generate k-points for:    2    2    3

 Generating k-lattice:

  Cartesian coordinates                     Fractional coordinates (reciprocal lattice)
     0.034385208  0.000000000  0.000000000     0.500000000  0.000000000  0.000000000
     0.000000000  0.034385208  0.000000000     0.000000000  0.500000000  0.000000000
     0.000000000  0.000000000  0.030618073     0.000000000  0.000000000  0.333333333

  Length of vectors
     0.034385208  0.034385208  0.030618073

  Shift w.r.t. Gamma in fractional coordinates (k-lattice)
     0.000000000  0.000000000  0.000000000

 
 Subroutine IBZKPT returns following result:
 ===========================================
 
 Found      8 irreducible k-points:
 
 Following reciprocal coordinates:
            Coordinates               Weight
  0.000000  0.000000  0.000000      1.000000
  0.500000  0.000000  0.000000      1.000000
  0.000000  0.500000  0.000000      1.000000
  0.500000  0.500000  0.000000      1.000000
  0.000000  0.000000  0.333333      2.000000
  0.500000  0.000000  0.333333      2.000000
  0.000000  0.500000  0.333333      2.000000
  0.500000  0.500000  0.333333      2.000000
 
 Following cartesian coordinates:
            Coordinates               Weight
  0.000000  0.000000  0.000000      1.000000
  0.034385  0.000000  0.000000      1.000000
  0.000000  0.034385  0.000000      1.000000
  0.034385  0.034385  0.000000      1.000000
  0.000000  0.000000  0.030618      2.000000
  0.034385  0.000000  0.030618      2.000000
  0.000000  0.034385  0.030618      2.000000
  0.034385  0.034385  0.030618      2.000000
 


--------------------------------------------------------------------------------------------------------




 Dimension of arrays:
   k-points           NKPTS =      8   k-points in BZ     NKDIM =      8   number of bands    NBANDS=    256
   number of dos      NEDOS =   2000   number of ions     NIONS =    110
   non local maximal  LDIM  =      4   non local SUM 2l+1 LMDIM =      8
   total plane-waves  NPLWV = ******
   max r-space proj   IRMAX =      1   max aug-charges    IRDMAX= 413372
   dimension x,y,z NGX =   168 NGY =  168 NGZ =  126
   dimension x,y,z NGXF=   336 NGYF=  336 NGZF=  252
   support grid    NGXF=   672 NGYF=  672 NGZF=  504
   ions per type =              13  97
   NGX,Y,Z   is equivalent  to a cutoff of  19.21, 19.21, 19.24 a.u.
   NGXF,Y,Z  is equivalent  to a cutoff of  38.41, 38.41, 38.48 a.u.

 SYSTEM =  a-Si SPC                                
 POSCAR =   H Si                                   

 Startparameter for this run:
   NWRITE =      2    write-flag & timer
   PREC   = accura    normal or accurate (medium, high low for compatibility)
   ISTART =      1    job   : 0-new  1-cont  2-samecut
   ICHARG =      1    charge: 1-file 2-atom 10-const
   ISPIN  =      1    spin polarized calculation?
   LNONCOLLINEAR =      F non collinear calculations
   LSORBIT =      F    spin-orbit coupling
   INIWAV =      1    electr: 0-lowe 1-rand  2-diag
   LASPH  =      T    aspherical Exc in radial PAW
 Electronic Relaxation 1
   ENCUT  = 1200.0 eV  88.20 Ry    9.39 a.u.  41.07 41.07 30.75*2*pi/ulx,y,z
   ENINI  = 1200.0     initial cutoff
   ENAUG  =  400.0 eV  augmentation charge cutoff
   NELM   =    150;   NELMIN=  2; NELMDL=  0     # of ELM steps 
   EDIFF  = 0.1E-05   stopping-criterion for ELM
   LREAL  =      F    real-space projection
   NLSPLINE    = F    spline interpolate recip. space projectors
   LCOMPAT=      F    compatible to vasp.4.4
   GGA_COMPAT  = T    GGA compatible to vasp.4.4-vasp.4.6
   LMAXPAW     = -100 max onsite density
   LMAXMIX     =    2 max onsite mixed and CHGCAR
   VOSKOWN=      0    Vosko Wilk Nusair interpolation
   ROPT   =    0.00000   0.00000
 Ionic relaxation
   EDIFFG = -.1E-01   stopping-criterion for IOM
   NSW    =      0    number of steps for IOM
   NBLOCK =      1;   KBLOCK =      1    inner block; outer block 
   IBRION =     -1    ionic relax: 0-MD 1-quasi-New 2-CG
   NFREE  =      0    steps in history (QN), initial steepest desc. (CG)
   ISIF   =      2    stress and relaxation
   IWAVPR =     10    prediction:  0-non 1-charg 2-wave 3-comb
   ISYM   =      1    0-nonsym 1-usesym 2-fastsym
   LCORR  =      T    Harris-Foulkes like correction to forces

   POTIM  = 0.5000    time-step for ionic-motion
   TEIN   =    0.0    initial temperature
   TEBEG  =    0.0;   TEEND  =   0.0 temperature during run
   SMASS  =  -3.00    Nose mass-parameter (am)
   estimated Nose-frequenzy (Omega)   =  0.10E-29 period in steps = 0.13E+47 mass=  -0.483E-26a.u.
   SCALEE = 1.0000    scale energy and forces
   NPACO  =    256;   APACO  = 10.0  distance and # of slots for P.C.
   PSTRESS=    0.0 pullay stress

  Mass of Ions in am
   POMASS =   1.00 28.09
  Ionic Valenz
   ZVAL   =   1.00  4.00
  Atomic Wigner-Seitz radii
   RWIGS  =  -1.00 -1.00
  virtual crystal weights 
   VCA    =   1.00  1.00
   NELECT =     401.0000    total number of electrons
   NUPDOWN=      -1.0000    fix difference up-down

 DOS related values:
   EMIN   =  10.00;   EMAX   =-10.00  energy-range for DOS
   EFERMI =   0.00;   METHOD = LEGACY      
   ISMEAR =     0;   SIGMA  =   0.10  broadening in eV -4-tet -1-fermi 0-gaus
   EFERMI_NEDOS =   21; number of points for ismear=-14 and -15

 Electronic relaxation 2 (details)
   IALGO  =     38    algorithm
   LDIAG  =      F    sub-space diagonalisation (order eigenvalues)
   LSUBROT=      F    optimize rotation matrix (better conditioning)
   TURBO    =      0    0=normal 1=particle mesh
   IRESTART =      0    0=no restart 2=restart with 2 vectors
   NREBOOT  =      0    no. of reboots
   NMIN     =      0    reboot dimension
   EREF     =   0.00    reference energy to select bands
   IMIX   =      4    mixing-type and parameters
     AMIX     =   0.40;   BMIX     =  1.00
     AMIX_MAG =   1.60;   BMIX_MAG =  1.00
     AMIN     =   0.10
     WC   =   100.;   INIMIX=   1;  MIXPRE=   1;  MAXMIX= -45

 Intra band minimization:
   WEIMIN = 0.0000     energy-eigenvalue tresh-hold
   EBREAK =  0.98E-09  absolut break condition
   DEPER  =   0.30     relativ break condition  

   TIME   =   0.40     timestep for ELM

  volume/ion in A,a.u.               =      20.93       141.22
  Fermi-wavevector in a.u.,A,eV,Ry     =   0.914304  1.727783 11.373805  0.835951
  Thomas-Fermi vector in A             =   2.038915

 Write flags
   LWAVE        =      F    write WAVECAR
   LDOWNSAMPLE  =      F    k-point downsampling of WAVECAR
   LCHARG       =      F    write CHGCAR
   LVTOT        =      F    write LOCPOT, total local potential
   LVHAR        =      F    write LOCPOT, Hartree potential only
   WRT_POTENTIAL= false  ! write potential to hdf5 file
   LELF         =      F    write electronic localiz. function (ELF)
   LORBIT       =     11    0 simple, 1 ext, 2 COOP (PROOUT), +10 PAW based schemes


 Python interface
   PLUGINS active      =      F    recompile with -DPLUGINS to activate

 Dipole corrections
   LMONO      =      F    monopole corrections only (constant potential shift)
   LDIPOL     =      F    correct potential (dipole corrections)
   IDIPOL     =      0    1-x, 2-y, 3-z, 4-all directions 
   EPSILON    =  1.0000000 bulk dielectric constant
   LVACPOTAV  =      F  vacuum potentials using an averaging scheme for the charge density
   VACPOTFLAT =  0.1000000 required flatness to determine vacuum potential

Coulomb truncation method
  LTRUNCATE          =      F  Coulomb kernel truncation to be used
  IDIMENSIONALITY    =      3  Dimensionality of cutoff (0 molecules / 2 surfaces)
  ISURFACE           =     -1  Direction of surface normal
  LCOARSEN           =      F  Coarsen the charge grid before padding, preferred


 Exchange correlation treatment:
   METAGGA = SCAN    functional components
   XC_C    = 1    coefficients multiplying the functional components
   LIBXC   =     F    Libxc                    
   VOSKOWN =     0    Vosko Wilk Nusair interpolation
   LHFCALC =     F    Hartree Fock is set to
   LHFONE  =     F    Hartree Fock one center treatment
   AEXX    =    0.0000 exact exchange contribution

 Parameters of functionals:
   SCAN:
     P1 =  0.000000E+00
     P2 =  0.000000E+00
     P3 =  0.000000E+00

 Accuracy and mixing parameters for tau-dependent meta-GGA functionals:
   LMAXTAU = 6
   LMIXTAU = T

 Van der Waals corrections
   IVDW    =     0    specifies the selected vdW correction

 Linear response parameters
   LEPSILON=     F    determine dielectric tensor
   LRPA    =     F    only Hartree local field effects (RPA)
   LNABLA  =     F    use nabla operator in PAW spheres
   LVEL    =     F    velocity operator in full k-point grid
   CSHIFT  =0.1000    complex shift for real part using Kramers Kronig
   OMEGAMAX=  -1.0    maximum frequency
   DEG_THRESHOLD= 0.2000000E-02 threshold for treating states as degnerate
   RTIME   =   -0.100 relaxation time in fs
  (WPLASMAI=    0.000 imaginary part of plasma frequency in eV, 0.658/RTIME)
   DFIELD  = 0.0000000 0.0000000 0.0000000 field for delta impulse in time

  Optional k-point grid parameters
   LKPOINTS_OPT  =     F    use optional k-point grid
   KPOINTS_OPT_MODE=     1    mode for optional k-point grid

 Orbital magnetization related:
   ORBITALMAG=     F  switch on orbital magnetization
   LCHIMAG   =     F  perturbation theory with respect to B field
   DQ        =  0.001000  dq finite difference perturbation B field
   LLRAUG    =     F  two centre corrections for induced B field
   LBONE     =     F  B-component reconstruction in AE one-centre
   LVGVCALC  =     T  calculate vGv susceptibility
   LVGVAPPL  =     F  apply vGv susceptibility instead of pGv for G=0

 Random number generation:
   RANDOM_GENERATOR = DEFAULT
   PCG_SEED         = not used


--------------------------------------------------------------------------------------------------------


 Static calculation
 charge density and potential will be updated during run
 non-spin polarized calculation
 Variant of blocked Davidson
 perform Loewdin sub-space diagonalisation
    ordering is kept fixed
    before iterative eigenvector-optimisation
 modified Broyden-mixing scheme, WC =      100.0
 initial mixing is a Kerker type mixing with AMIX =  0.4000 and BMIX =      1.0000
 Hartree-type preconditioning will be used
 using additional bands           55
 reciprocal scheme for non local part
 use partial core corrections
 calculate Harris-corrections to forces   (improved forces if not selfconsistent)
 use gradient corrections 
 use of overlap-Matrix (Vanderbilt PP)
 Gauss-broadening in eV      SIGMA  =   0.10


--------------------------------------------------------------------------------------------------------


  energy-cutoff  :     1200.00
  volume of cell :     2301.96
      direct lattice vectors                 reciprocal lattice vectors
    14.541136322  0.000000000  0.000000000     0.068770416  0.000000000  0.000000000
     0.000000000 14.541136322  0.000000000     0.000000000  0.068770416  0.000000000
     0.000000000  0.000000000 10.886816050     0.000000000  0.000000000  0.091854220

  length of vectors
    14.541136322 14.541136322 10.886816050     0.068770416  0.068770416  0.091854220



 old parameters found on file WAVECAR:
  energy-cutoff  :     1200.00
  volume of cell :     2301.96
      direct lattice vectors                 reciprocal lattice vectors
    14.541136322  0.000000000  0.000000000     0.068770416  0.000000000  0.000000000
     0.000000000 14.541136322  0.000000000     0.000000000  0.068770416  0.000000000
     0.000000000  0.000000000 10.886816050     0.000000000  0.000000000  0.091854220

  length of vectors


 k-points in units of 2pi/SCALE and weight: read from INCAR                         
   0.00000000  0.00000000  0.00000000       0.083
   0.03438521  0.00000000  0.00000000       0.083
   0.00000000  0.03438521  0.00000000       0.083
   0.03438521  0.03438521  0.00000000       0.083
   0.00000000  0.00000000  0.03061807       0.167
   0.03438521  0.00000000  0.03061807       0.167
   0.00000000  0.03438521  0.03061807       0.167
   0.03438521  0.03438521  0.03061807       0.167

 k-points in reciprocal lattice and weights: read from INCAR                         
   0.00000000  0.00000000  0.00000000       0.083
   0.50000000  0.00000000  0.00000000       0.083
   0.00000000  0.50000000  0.00000000       0.083
   0.50000000  0.50000000  0.00000000       0.083
   0.00000000  0.00000000  0.33333333       0.167
   0.50000000  0.00000000  0.33333333       0.167
   0.00000000  0.50000000  0.33333333       0.167
   0.50000000  0.50000000  0.33333333       0.167

 position of ions in fractional coordinates (direct lattice) 
   0.16555377  0.27806080  0.74935775
   0.86844657  0.35441453  0.15689987
   0.02504942  0.08399481  0.02841685
   0.81006049  0.98270862  0.03957227
   0.81838171  0.57173111  0.91023031
   0.28007027  0.74450853  0.54621204
   0.84749910  0.17085804  0.90736538
   0.70444288  0.44693756  0.89430647
   0.88455260  0.17376634  0.22153860
   0.82374580  0.03033711  0.82653826
   0.40763183  0.44094835  0.64508576
   0.73134587  0.92280959  0.91175326
   0.97258561  0.32045088  0.79824716
   0.47160757  0.82318876  0.58348556
   0.61120739  0.42864944  0.94317751
   0.67035614  0.21898908  0.42535301
   0.00241822  0.53515556  0.07438511
   0.82382145  0.84397806  0.53638272
   0.43535250  0.07041747  0.62790902
   0.23279542  0.52803095  0.51185029
   0.38988012  0.84423939  0.78521213
   0.89620919  0.44480086  0.20896468
   0.60196258  0.41870593  0.54528890
   0.12092246  0.26626186  0.63160432
   0.18631694  0.85406668  0.21870490
   0.97560464  0.88977916  0.62459033
   0.77544146  0.11782229  0.48081643
   0.22272400  0.19250765  0.02672453
   0.22702421  0.06951382  0.41345605
   0.81490880  0.96916772  0.17920942
   0.87233898  0.08936853  0.29962112
   0.31974530  0.12697426  0.89770967
   0.21499283  0.35861228  0.50356321
   0.37768438  0.47184345  0.76601000
   0.36518467  0.01358456  0.03984728
   0.71438709  0.96382426  0.48807107
   0.72955096  0.64408859  0.37468163
   0.95625264  0.29612610  0.66740174
   0.98757756  0.65314565  0.78144978
   0.28025320  0.59278448  0.71318832
   0.55903265  0.26409147  0.93525049
   0.36567156  0.43782686  0.13059374
   0.52889952  0.61874119  0.16611101
   0.89801785  0.62601848  0.95797522
   0.60827296  0.90001907  0.64878657
   0.06751467  0.79806693  0.49495555
   0.47722474  0.40784914  0.42195624
   0.57896438  0.81515638  0.01685286
   0.86213345  0.73532080  0.37869291
   0.04783828  0.87600444  0.30203688
   0.64643160  0.16615620  0.79906099
   0.74029290  0.37451475  0.41950557
   0.59819740  0.24166131  0.61476009
   0.60196877  0.56694675  0.63905553
   0.00077461  0.41498270  0.37472021
   0.91265220  0.83351120  0.20283433
   0.88359670  0.78500055  0.98599076
   0.51033357  0.22603667  0.14581490
   0.49862541  0.67683569  0.96592980
   0.15415508  0.10154571  0.59820888
   0.66460556  0.96553665  0.27309086
   0.13073738  0.32503306  0.32013125
   0.57976074  0.11363899  0.28911575
   0.18899073  0.34898167  0.98524674
   0.33707201  0.37774352  0.92258379
   0.46942342  0.05228099  0.42157229
   0.74200528  0.64241747  0.60643350
   0.54755900  0.02773621  0.77139174
   0.88816993  0.40903406  0.54310369
   0.44617077  0.23003979  0.65229723
   0.37033832  0.15669683  0.15683833
   0.38156990  0.55039302  0.42141522
   0.71923540  0.78808146  0.69456763
   0.81092700  0.12247874  0.79837851
   0.60671049  0.48210469  0.14591870
   0.12945687  0.57310789  0.19163362
   0.20237277  0.95427893  0.05126503
   0.14841825  0.84612370  0.89392252
   0.43264363  0.90422782  0.38231012
   0.22404095  0.70707679  0.94705375
   0.37298529  0.59698223  0.21171847
   0.35644738  0.15426717  0.37717364
   0.21512349  0.81989466  0.53221989
   0.88724153  0.57316635  0.62640996
   0.98579641  0.66245373  0.47987400
   0.01140702  0.03993422  0.58777056
   0.20502387  0.42301302  0.18243626
   0.26599778  0.91168941  0.38074677
   0.74776137  0.49188109  0.26971706
   0.07763286  0.45770976  0.90377204
   0.50027177  0.37724356  0.21906313
   0.13787643  0.59915606  0.82271988
   0.24340464  0.88682203  0.72682867
   0.10753355  0.14764665  0.28969811
   0.48937854  0.93849612  0.92943611
   0.58034804  0.71239274  0.34009484
   0.10891102  0.08867876  0.09801213
   0.27581888  0.04681622  0.71492069
   0.35987078  0.30037680  0.48385956
   0.40942124  0.24990550  0.84998589
   0.36731861  0.69944327  0.84738090
   0.73139401  0.82206780  0.90795233
   0.24117029  0.69377659  0.16415727
   0.90194464  0.15399897  0.61900284
   0.98909051  0.81771464  0.82778289
   0.52488814  0.53743530  0.82506400
   0.01139271  0.03563202  0.37465040
   0.54490652  0.85499508  0.24417975
   0.09218399  0.55719923  0.40462427
   0.49528248  0.65157700  0.52750225

 position of ions in cartesian coordinates  (Angst):
   2.40734000  4.04332000  8.15812000
  12.62820000  5.15359000  1.70814000
   0.36424700  1.22138000  0.30936900
  11.77920000 14.28970000  0.43081600
  11.90020000  8.31362000  9.90951000
   4.07254000 10.82600000  5.94651000
  12.32360000  2.48447000  9.87832000
  10.24340000  6.49898000  9.73615000
  12.86240000  2.52676000  2.41185000
  11.97820000  0.44113600  8.99837000
   5.92743000  6.41189000  7.02293000
  10.63460000 13.41870000  9.92609000
  14.14250000  4.65972000  8.69037000
   6.85771000 11.97010000  6.35230000
   8.88765000  6.23305000 10.26820000
   9.74774000  3.18435000  4.63074000
   0.03516368  7.78177000  0.80981700
  11.97930000 12.27240000  5.83950000
   6.33052000  1.02395000  6.83593000
   3.38511000  7.67817000  5.57242000
   5.66930000 12.27620000  8.54846000
  13.03190000  6.46791000  2.27496000
   8.75322000  6.08846000  5.93646000
   1.75835000  3.87175000  6.87616000
   2.70926000 12.41910000  2.38100000
  14.18640000 12.93840000  6.79980000
  11.27580000  1.71327000  5.23456000
   3.23866000  2.79928000  0.29094500
   3.30119000  1.01081000  4.50122000
  11.84970000 14.09280000  1.95102000
  12.68480000  1.29952000  3.26192000
   4.64946000  1.84635000  9.77320000
   3.12624000  5.21463000  5.48220000
   5.49196000  6.86114000  8.33941000
   5.31020000  0.19753500  0.43381000
  10.38800000 14.01510000  5.31354000
  10.60850000  9.36578000  4.07909000
  13.90500000  4.30601000  7.26588000
  14.36050000  9.49748000  8.50750000
   4.07520000  8.61976000  7.76435000
   8.12897000  3.84019000 10.18190000
   5.31728000  6.36650000  1.42175000
   7.69080000  8.99720000  1.80842000
  13.05820000  9.10302000 10.42930000
   8.84498000 13.08730000  7.06322000
   0.98174000 11.60480000  5.38849000
   6.93939000  5.93059000  4.59376000
   8.41880000 11.85330000  0.18347400
  12.53640000 10.69240000  4.12276000
   0.69562300 12.73810000  3.28822000
   9.39985000  2.41610000  8.69923000
  10.76470000  5.44587000  4.56708000
   8.69847000  3.51403000  6.69278000
   8.75331000  8.24405000  6.95728000
   0.01126368  6.03432000  4.07951000
  13.27100000 12.12020000  2.20822000
  12.84850000 11.41480000 10.73430000
   7.42083000  3.28683000  1.58746000
   7.25058000  9.84196000 10.51590000
   2.24159000  1.47659000  6.51259000
   9.66412000 14.04000000  2.97309000
   1.90107000  4.72635000  3.48521000
   8.43038000  1.65244000  3.14755000
   2.74814000  5.07459000 10.72620000
   4.90141000  5.49282000 10.04400000
   6.82595000  0.76022500  4.58958000
  10.78960000  9.34148000  6.60213000
   7.96213000  0.40331600  8.39800000
  12.91500000  5.94782000  5.91267000
   6.48783000  3.34504000  7.10144000
   5.38514000  2.27855000  1.70747000
   5.54846000  8.00334000  4.58787000
  10.45850000 11.45960000  7.56163000
  11.79180000  1.78098000  8.69180000
   8.82226000  7.01035000  1.58859000
   1.88245000  8.33364000  2.08628000
   2.94273000 13.87630000  0.55811300
   2.15817000 12.30360000  9.73197000
   6.29113000 13.14850000  4.16214000
   3.25781000 10.28170000 10.31040000
   5.42363000  8.68080000  2.30494000
   5.18315000  2.24322000  4.10622000
   3.12814000 11.92220000  5.79418000
  12.90150000  8.33449000  6.81961000
  14.33460000  9.63283000  5.22430000
   0.16587100  0.58068900  6.39895000
   2.98128000  6.15109000  1.98615000
   3.86791000 13.25700000  4.14512000
  10.87330000  7.15251000  2.93636000
   1.12887000  6.65562000  9.83920000
   7.27452000  5.48555000  2.38490000
   2.00488000  8.71241000  8.95680000
   3.53938000 12.89540000  7.91285000
   1.56366000  2.14695000  3.15389000
   7.11612000 13.64680000 10.11860000
   8.43892000 10.35900000  3.70255000
   1.58369000  1.28949000  1.06704000
   4.01072000  0.68076100  7.78321000
   5.23293000  4.36782000  5.26769000
   5.95345000  3.63391000  9.25364000
   5.34123000 10.17070000  9.22528000
  10.63530000 11.95380000  9.88471000
   3.50689000 10.08830000  1.78715000
  13.11530000  2.23932000  6.73897000
  14.38250000 11.89050000  9.01192000
   7.63247000  7.81492000  8.98232000
   0.16566300  0.51813000  4.07875000
   7.92356000 12.43260000  2.65834000
   1.34046000  8.10231000  4.40507000
   7.20197000  9.47467000  5.74282000



--------------------------------------------------------------------------------------------------------


 k-point     1 :   0.0000 0.0000 0.0000  plane waves:  217317
 k-point     2 :   0.5000 0.0000 0.0000  plane waves:  217354
 k-point     3 :   0.0000 0.5000 0.0000  plane waves:  217354
 k-point     4 :   0.5000 0.5000 0.0000  plane waves:  217324
 k-point     5 :   0.0000 0.0000 0.3333  plane waves:  217082
 k-point     6 :   0.5000 0.0000 0.3333  plane waves:  217340
 k-point     7 :   0.0000 0.5000 0.3333  plane waves:  217340
 k-point     8 :   0.5000 0.5000 0.3333  plane waves:  217340

 maximum and minimum number of plane-waves per node :     13644    13525

 maximum number of plane-waves:    217354
 maximum index in each direction: 
   IXMAX=   41   IYMAX=   41   IZMAX=   30
   IXMIN=  -41   IYMIN=  -41   IZMIN=  -31


 parallel 3D FFT for wavefunctions:
    minimum data exchange during FFTs selected (reduces bandwidth)
 parallel 3D FFT for charge:
    minimum data exchange during FFTs selected (reduces bandwidth)


 total amount of memory used by VASP MPI-rank0   199892. kBytes
=======================================================================

   base                                    :      30000. kBytes
   nonl-proj                               :      37840. kBytes
   fftplans                                :      42981. kBytes
   grid                                    :      33148. kBytes
   one-center                              :         21. kBytes
   wavefun                                 :      55902. kBytes

     INWAV:  cpu time     10.2360: real time     10.2398
 Broyden mixing: mesh for mixing (old mesh)
   NGX = 83   NGY = 83   NGZ = 61
  (NGX  =336   NGY  =336   NGZ  =252)
  gives a total of 420229 points

 initial charge density was supplied:
 number of electron     400.9999999 magnetization 
 keeping initial charge density in first step


--------------------------------------------------------------------------------------------------------


 Maximum index for augmentation-charges        11533 (set IRDMAX)


--------------------------------------------------------------------------------------------------------


 First call to EWALD:  gamma=   0.134
 Maximum number of real-space cells   3x   3x   3
 Maximum number of reciprocal cells   3x   3x   2

    FEWALD:  cpu time      0.0189: real time      0.0194


--------------------------------------- Ionic step        1  -------------------------------------------




--------------------------------------- Iteration      1(   1)  ---------------------------------------


    POTLOK:  cpu time      0.7621: real time      0.7628
    SETDIJ:  cpu time      1.4554: real time      1.4569
    EDDIAG:  cpu time     23.9526: real time     23.9711
     EDDAV:  cpu time    113.2782: real time    113.3717
       DOS:  cpu time      0.0087: real time      0.0088
    CHARGE:  cpu time     10.7788: real time     10.7882
    MIXING:  cpu time      0.0246: real time      0.0249
    --------------------------------------------
      LOOP:  cpu time    150.2604: real time    150.3844

 eigenvalue-minimisations  :  4136
 total energy-change (2. order) :-0.1053492E+04  (-0.1168259E+01)
 number of electron     400.9999999 magnetization 
 augmentation part      -21.3341862 magnetization 

 Broyden mixing:
  rms(total) = 0.12672E+01    rms(broyden)= 0.48032E+02
  rms(prec ) = 0.13602E+01
  weight for this iteration     100.00
  WARNING: grid for Broyden might be to small

 Free energy of the ion-electron system (eV)
  ---------------------------------------------------
  alpha Z        PSCENC =       147.72133069
  Ewald energy   TEWEN  =     -9386.76508220
  -Hartree energ DENC   =     -2065.46202093
  -exchange      EXHF   =         0.00000000
  -V(xc)+E(xc)   XCENC  =      -432.47866177
  PAW double counting   =     37096.53802319   -36129.72694938
  entropy T*S    EENTRO =        -0.05454483
  eigenvalues    EBANDS =      -443.09558364
  atomic energy  EATOM  =     10159.83177745
  Solvation  Ediel_sol  =         0.00000000
  ---------------------------------------------------
  free energy    TOTEN  =     -1053.49171141 eV

  energy without entropy =    -1053.43716658  energy(sigma->0) =    -1053.46443900


--------------------------------------------------------------------------------------------------------




--------------------------------------- Iteration      1(   2)  ---------------------------------------


    POTLOK:  cpu time      0.7439: real time      0.7707
    SETDIJ:  cpu time      1.4430: real time      1.4436
    EDDIAG:  cpu time     24.2100: real time     24.2297
     EDDAV:  cpu time    112.9188: real time    113.0171
       DOS:  cpu time      0.0052: real time      0.0052
    CHARGE:  cpu time     10.8880: real time     10.8970
    MIXING:  cpu time      0.0174: real time      0.0179
    --------------------------------------------
      LOOP:  cpu time    150.2263: real time    150.3813

 eigenvalue-minimisations  :  4096
 total energy-change (2. order) : 0.7199624E+02  (-0.1093275E+01)
 number of electron     400.9999999 magnetization 
 augmentation part      -21.2526701 magnetization 

 Broyden mixing:
  rms(total) = 0.84245E+00    rms(broyden)= 0.27585E+02
  rms(prec ) = 0.88927E+00
  weight for this iteration     100.00
  WARNING: grid for Broyden might be to small

 eigenvalues of (default mixing * dielectric matrix)
  average eigenvalue GAMMA=   0.6352
  0.6352

 Free energy of the ion-electron system (eV)
  ---------------------------------------------------
  alpha Z        PSCENC =       147.72133069
  Ewald energy   TEWEN  =     -9386.76508220
  -Hartree energ DENC   =     -2055.81346169
  -exchange      EXHF   =         0.00000000
  -V(xc)+E(xc)   XCENC  =      -422.52585108
  PAW double counting   =     44553.09257382   -43585.99064965
  entropy T*S    EENTRO =        -0.05480833
  eigenvalues    EBANDS =      -390.99129837
  atomic energy  EATOM  =     10159.83177745
  Solvation  Ediel_sol  =         0.00000000
  ---------------------------------------------------
  free energy    TOTEN  =      -981.49546936 eV

  energy without entropy =     -981.44066103  energy(sigma->0) =     -981.46806520


--------------------------------------------------------------------------------------------------------




--------------------------------------- Iteration      1(   3)  ---------------------------------------


    POTLOK:  cpu time      0.7492: real time      0.7765
    SETDIJ:  cpu time      1.4417: real time      1.4425
    EDDIAG:  cpu time     24.2527: real time     24.2727
     EDDAV:  cpu time    112.9030: real time    113.0027
       DOS:  cpu time      0.0048: real time      0.0048
    CHARGE:  cpu time     10.4566: real time     10.4650
    MIXING:  cpu time      0.0151: real time      0.0151
    --------------------------------------------
      LOOP:  cpu time    149.8231: real time    149.9793

 eigenvalue-minimisations  :  4096
 total energy-change (2. order) :-0.3773378E+01  (-0.8296287E+00)
 number of electron     400.9999999 magnetization 
 augmentation part      -21.1888916 magnetization 

 Broyden mixing:
  rms(total) = 0.47341E+00    rms(broyden)= 0.23259E+02
  rms(prec ) = 0.53072E+00
  weight for this iteration     100.00
  WARNING: grid for Broyden might be to small

 eigenvalues of (default mixing * dielectric matrix)
  average eigenvalue GAMMA=   0.7040
  0.7846  0.6233

 Free energy of the ion-electron system (eV)
  ---------------------------------------------------
  alpha Z        PSCENC =       147.72133069
  Ewald energy   TEWEN  =     -9386.76508220
  -Hartree energ DENC   =     -2060.14066247
  -exchange      EXHF   =         0.00000000
  -V(xc)+E(xc)   XCENC  =      -428.07830960
  PAW double counting   =     50938.24212128   -49971.23461041
  entropy T*S    EENTRO =        -0.05477558
  eigenvalues    EBANDS =      -384.79063672
  atomic energy  EATOM  =     10159.83177745
  Solvation  Ediel_sol  =         0.00000000
  ---------------------------------------------------
  free energy    TOTEN  =      -985.26884756 eV

  energy without entropy =     -985.21407198  energy(sigma->0) =     -985.24145977


--------------------------------------------------------------------------------------------------------




--------------------------------------- Iteration      1(   4)  ---------------------------------------


    POTLOK:  cpu time      0.7408: real time      0.7702
    SETDIJ:  cpu time      1.4406: real time      1.4415
    EDDIAG:  cpu time     24.1757: real time     24.1952
     EDDAV:  cpu time    115.1737: real time    115.2785
       DOS:  cpu time      0.0043: real time      0.0043
    CHARGE:  cpu time     10.6128: real time     10.6225
    MIXING:  cpu time      0.0152: real time      0.0152
    --------------------------------------------
      LOOP:  cpu time    152.1630: real time    152.3273

 eigenvalue-minimisations  :  4256
 total energy-change (2. order) :-0.2773766E+00  (-0.8651003E-01)
 number of electron     400.9999999 magnetization 
 augmentation part      -21.1758473 magnetization 

 Broyden mixing:
  rms(total) = 0.37383E-01    rms(broyden)= 0.26422E+01
  rms(prec ) = 0.49430E-01
  weight for this iteration     100.00
  WARNING: grid for Broyden might be to small

 eigenvalues of (default mixing * dielectric matrix)
  average eigenvalue GAMMA=   1.0170
  1.7125  0.7161  0.6223

 Free energy of the ion-electron system (eV)
  ---------------------------------------------------
  alpha Z        PSCENC =       147.72133069
  Ewald energy   TEWEN  =     -9386.76508220
  -Hartree energ DENC   =     -2067.11907401
  -exchange      EXHF   =         0.00000000
  -V(xc)+E(xc)   XCENC  =      -428.42201106
  PAW double counting   =     59600.99538587   -58634.05086652
  entropy T*S    EENTRO =        -0.05477116
  eigenvalues    EBANDS =      -377.68291319
  atomic energy  EATOM  =     10159.83177745
  Solvation  Ediel_sol  =         0.00000000
  ---------------------------------------------------
  free energy    TOTEN  =      -985.54622411 eV

  energy without entropy =     -985.49145295  energy(sigma->0) =     -985.51883853


--------------------------------------------------------------------------------------------------------




--------------------------------------- Iteration      1(   5)  ---------------------------------------


    POTLOK:  cpu time      0.7468: real time      0.7723
    SETDIJ:  cpu time      1.4437: real time      1.4452
    EDDIAG:  cpu time     24.1535: real time     24.1744
     EDDAV:  cpu time    127.4995: real time    127.6058
       DOS:  cpu time      0.0053: real time      0.0053
    CHARGE:  cpu time     10.5231: real time     10.5320
    MIXING:  cpu time      0.0154: real time      0.0154
    --------------------------------------------
      LOOP:  cpu time    164.3872: real time    164.5503

 eigenvalue-minimisations  :  5032
 total energy-change (2. order) :-0.3933615E-01  (-0.5658783E-02)
 number of electron     400.9999999 magnetization 
 augmentation part      -21.1778824 magnetization 

 Broyden mixing:
  rms(total) = 0.26644E-01    rms(broyden)= 0.61206E+00
  rms(prec ) = 0.30496E-01
  weight for this iteration     100.00
  WARNING: grid for Broyden might be to small

 eigenvalues of (default mixing * dielectric matrix)
  average eigenvalue GAMMA=   1.1798
  2.5488  0.8939  0.6382  0.6382

 Free energy of the ion-electron system (eV)
  ---------------------------------------------------
  alpha Z        PSCENC =       147.72133069
  Ewald energy   TEWEN  =     -9386.76508220
  -Hartree energ DENC   =     -2067.49410248
  -exchange      EXHF   =         0.00000000
  -V(xc)+E(xc)   XCENC  =      -429.62729955
  PAW double counting   =     59212.71869134   -58245.73982607
  entropy T*S    EENTRO =        -0.05476519
  eigenvalues    EBANDS =      -376.17628427
  atomic energy  EATOM  =     10159.83177745
  Solvation  Ediel_sol  =         0.00000000
  ---------------------------------------------------
  free energy    TOTEN  =      -985.58556026 eV

  energy without entropy =     -985.53079508  energy(sigma->0) =     -985.55817767


--------------------------------------------------------------------------------------------------------




--------------------------------------- Iteration      1(   6)  ---------------------------------------


    POTLOK:  cpu time      0.7496: real time      0.7714
    SETDIJ:  cpu time      1.4462: real time      1.4467
    EDDIAG:  cpu time     24.2994: real time     24.3200
     EDDAV:  cpu time    120.3132: real time    120.4199
       DOS:  cpu time      0.0040: real time      0.0041
    CHARGE:  cpu time     10.6604: real time     10.6708
    MIXING:  cpu time      0.0157: real time      0.0157
    --------------------------------------------
      LOOP:  cpu time    157.4884: real time    157.6485

 eigenvalue-minimisations  :  4576
 total energy-change (2. order) :-0.7024408E-02  (-0.1264087E-02)
 number of electron     400.9999999 magnetization 
 augmentation part      -21.1758387 magnetization 

 Broyden mixing:
  rms(total) = 0.12062E-01    rms(broyden)= 0.61047E+00
  rms(prec ) = 0.14655E-01
  weight for this iteration     100.00
  WARNING: grid for Broyden might be to small

 eigenvalues of (default mixing * dielectric matrix)
  average eigenvalue GAMMA=   1.1308
  2.5584  1.0602  0.7707  0.6324  0.6324

 Free energy of the ion-electron system (eV)
  ---------------------------------------------------
  alpha Z        PSCENC =       147.72133069
  Ewald energy   TEWEN  =     -9386.76508220
  -Hartree energ DENC   =     -2068.42081764
  -exchange      EXHF   =         0.00000000
  -V(xc)+E(xc)   XCENC  =      -429.72613894
  PAW double counting   =     59136.60012997   -58169.59446263
  entropy T*S    EENTRO =        -0.05476381
  eigenvalues    EBANDS =      -375.18455756
  atomic energy  EATOM  =     10159.83177745
  Solvation  Ediel_sol  =         0.00000000
  ---------------------------------------------------
  free energy    TOTEN  =      -985.59258467 eV

  energy without entropy =     -985.53782086  energy(sigma->0) =     -985.56520276


--------------------------------------------------------------------------------------------------------




--------------------------------------- Iteration      1(   7)  ---------------------------------------


    POTLOK:  cpu time      0.7469: real time      0.7706
    SETDIJ:  cpu time      1.4430: real time      1.4438
    EDDIAG:  cpu time     24.1258: real time     24.1455
     EDDAV:  cpu time    121.3673: real time    121.4725
       DOS:  cpu time      0.0037: real time      0.0037
    CHARGE:  cpu time     10.8753: real time     10.8848
    MIXING:  cpu time      0.0158: real time      0.0158
    --------------------------------------------
      LOOP:  cpu time    158.5778: real time    158.7367

 eigenvalue-minimisations  :  4640
 total energy-change (2. order) :-0.8431878E-03  (-0.3494295E-03)
 number of electron     400.9999999 magnetization 
 augmentation part      -21.1744700 magnetization 

 Broyden mixing:
  rms(total) = 0.31216E-02    rms(broyden)= 0.13680E+00
  rms(prec ) = 0.40363E-02
  weight for this iteration     100.00
  WARNING: grid for Broyden might be to small

 eigenvalues of (default mixing * dielectric matrix)
  average eigenvalue GAMMA=   1.1489
  2.5597  1.4504  0.9261  0.7001  0.6186  0.6383

 Free energy of the ion-electron system (eV)
  ---------------------------------------------------
  alpha Z        PSCENC =       147.72133069
  Ewald energy   TEWEN  =     -9386.76508220
  -Hartree energ DENC   =     -2069.02787329
  -exchange      EXHF   =         0.00000000
  -V(xc)+E(xc)   XCENC  =      -429.68389460
  PAW double counting   =     59163.45263192   -58196.43024239
  entropy T*S    EENTRO =        -0.05476390
  eigenvalues    EBANDS =      -374.63731153
  atomic energy  EATOM  =     10159.83177745
  Solvation  Ediel_sol  =         0.00000000
  ---------------------------------------------------
  free energy    TOTEN  =      -985.59342786 eV

  energy without entropy =     -985.53866396  energy(sigma->0) =     -985.56604591


--------------------------------------------------------------------------------------------------------




--------------------------------------- Iteration      1(   8)  ---------------------------------------


    POTLOK:  cpu time      0.7491: real time      0.7749
    SETDIJ:  cpu time      1.4416: real time      1.4430
    EDDIAG:  cpu time     24.2229: real time     24.2434
     EDDAV:  cpu time    124.6481: real time    124.7631
       DOS:  cpu time      0.0059: real time      0.0059
    CHARGE:  cpu time     10.4716: real time     10.4808
    MIXING:  cpu time      0.0159: real time      0.0159
    --------------------------------------------
      LOOP:  cpu time    161.5550: real time    161.7270

 eigenvalue-minimisations  :  4840
 total energy-change (2. order) :-0.5945680E-04  (-0.5097185E-04)
 number of electron     400.9999999 magnetization 
 augmentation part      -21.1750343 magnetization 

 Broyden mixing:
  rms(total) = 0.20320E-02    rms(broyden)= 0.72915E-01
  rms(prec ) = 0.23190E-02
  weight for this iteration     100.00
  WARNING: grid for Broyden might be to small

 eigenvalues of (default mixing * dielectric matrix)
  average eigenvalue GAMMA=   1.2270
  2.5373  2.3151  1.0095  0.8229  0.6629  0.6083  0.6333

 Free energy of the ion-electron system (eV)
  ---------------------------------------------------
  alpha Z        PSCENC =       147.72133069
  Ewald energy   TEWEN  =     -9386.76508220
  -Hartree energ DENC   =     -2069.02607838
  -exchange      EXHF   =         0.00000000
  -V(xc)+E(xc)   XCENC  =      -429.76446190
  PAW double counting   =     59198.08866130   -58231.06474158
  entropy T*S    EENTRO =        -0.05476408
  eigenvalues    EBANDS =      -374.56012863
  atomic energy  EATOM  =     10159.83177745
  Solvation  Ediel_sol  =         0.00000000
  ---------------------------------------------------
  free energy    TOTEN  =      -985.59348732 eV

  energy without entropy =     -985.53872324  energy(sigma->0) =     -985.56610528


--------------------------------------------------------------------------------------------------------




--------------------------------------- Iteration      1(   9)  ---------------------------------------


    POTLOK:  cpu time      0.7516: real time      0.7720
    SETDIJ:  cpu time      1.4441: real time      1.4447
    EDDIAG:  cpu time     24.2021: real time     24.2228
     EDDAV:  cpu time    120.7828: real time    120.8873
       DOS:  cpu time      0.0036: real time      0.0036
    CHARGE:  cpu time     10.4000: real time     10.4098
    MIXING:  cpu time      0.0160: real time      0.0161
    --------------------------------------------
      LOOP:  cpu time    157.6004: real time    157.7564

 eigenvalue-minimisations  :  4600
 total energy-change (2. order) :-0.3340431E-04  (-0.1503659E-04)
 number of electron     400.9999999 magnetization 
 augmentation part      -21.1749568 magnetization 

 Broyden mixing:
  rms(total) = 0.86256E-03    rms(broyden)= 0.25685E-01
  rms(prec ) = 0.99142E-03
  weight for this iteration     100.00
  WARNING: grid for Broyden might be to small

 eigenvalues of (default mixing * dielectric matrix)
  average eigenvalue GAMMA=   1.2464
  2.6258  2.6258  1.0345  1.0345  0.7582  0.6637  0.6270  0.6015

 Free energy of the ion-electron system (eV)
  ---------------------------------------------------
  alpha Z        PSCENC =       147.72133069
  Ewald energy   TEWEN  =     -9386.76508220
  -Hartree energ DENC   =     -2069.06243657
  -exchange      EXHF   =         0.00000000
  -V(xc)+E(xc)   XCENC  =      -429.77485944
  PAW double counting   =     59184.26562196   -58217.23936694
  entropy T*S    EENTRO =        -0.05476376
  eigenvalues    EBANDS =      -374.51574192
  atomic energy  EATOM  =     10159.83177745
  Solvation  Ediel_sol  =         0.00000000
  ---------------------------------------------------
  free energy    TOTEN  =      -985.59352072 eV

  energy without entropy =     -985.53875696  energy(sigma->0) =     -985.56613884


--------------------------------------------------------------------------------------------------------




--------------------------------------- Iteration      1(  10)  ---------------------------------------


    POTLOK:  cpu time      0.7408: real time      0.7698
    SETDIJ:  cpu time      1.4826: real time      1.4833
    EDDIAG:  cpu time     24.2298: real time     24.2505
     EDDAV:  cpu time    120.2418: real time    120.3506
       DOS:  cpu time      0.0059: real time      0.0059
    CHARGE:  cpu time     10.4828: real time     10.4912
    MIXING:  cpu time      0.0163: real time      0.0163
    --------------------------------------------
      LOOP:  cpu time    157.1999: real time    157.3675

 eigenvalue-minimisations  :  4560
 total energy-change (2. order) :-0.1408533E-04  (-0.4256098E-05)
 number of electron     400.9999999 magnetization 
 augmentation part      -21.1749663 magnetization 

 Broyden mixing:
  rms(total) = 0.38453E-03    rms(broyden)= 0.18479E-01
  rms(prec ) = 0.46783E-03
  weight for this iteration     100.00
  WARNING: grid for Broyden might be to small

 eigenvalues of (default mixing * dielectric matrix)
  average eigenvalue GAMMA=   1.2705
  2.7525  2.7525  1.4210  1.0504  0.8969  0.7091  0.6365  0.6221  0.5930

 Free energy of the ion-electron system (eV)
  ---------------------------------------------------
  alpha Z        PSCENC =       147.72133069
  Ewald energy   TEWEN  =     -9386.76508220
  -Hartree energ DENC   =     -2069.07683158
  -exchange      EXHF   =         0.00000000
  -V(xc)+E(xc)   XCENC  =      -429.78052363
  PAW double counting   =     59178.10730119   -58211.07993852
  entropy T*S    EENTRO =        -0.05476350
  eigenvalues    EBANDS =      -374.49680471
  atomic energy  EATOM  =     10159.83177745
  Solvation  Ediel_sol  =         0.00000000
  ---------------------------------------------------
  free energy    TOTEN  =      -985.59353481 eV

  energy without entropy =     -985.53877130  energy(sigma->0) =     -985.56615305


--------------------------------------------------------------------------------------------------------




--------------------------------------- Iteration      1(  11)  ---------------------------------------


    POTLOK:  cpu time      0.7704: real time      0.7717
    SETDIJ:  cpu time      1.4404: real time      1.4411
    EDDIAG:  cpu time     24.1388: real time     24.1597
     EDDAV:  cpu time    122.7399: real time    122.8441
       DOS:  cpu time      0.0044: real time      0.0044
    CHARGE:  cpu time     10.5689: real time     10.5777
    MIXING:  cpu time      0.0166: real time      0.0166
    --------------------------------------------
      LOOP:  cpu time    159.6795: real time    159.8155

 eigenvalue-minimisations  :  4712
 total energy-change (2. order) : 0.1232867E-05  (-0.1213712E-05)
 number of electron     400.9999999 magnetization 
 augmentation part      -21.1750411 magnetization 

 Broyden mixing:
  rms(total) = 0.17843E-03    rms(broyden)= 0.88967E-02
  rms(prec ) = 0.21625E-03
  weight for this iteration     100.00
  WARNING: grid for Broyden might be to small

 eigenvalues of (default mixing * dielectric matrix)
  average eigenvalue GAMMA=   1.2733
  3.0288  2.6760  1.6126  1.1141  0.9814  0.7890  0.6868  0.6300  0.6300  0.5842

 Free energy of the ion-electron system (eV)
  ---------------------------------------------------
  alpha Z        PSCENC =       147.72133069
  Ewald energy   TEWEN  =     -9386.76508220
  -Hartree energ DENC   =     -2069.05977332
  -exchange      EXHF   =         0.00000000
  -V(xc)+E(xc)   XCENC  =      -429.79283059
  PAW double counting   =     59180.69220852   -58213.66523889
  entropy T*S    EENTRO =        -0.05476337
  eigenvalues    EBANDS =      -374.50116188
  atomic energy  EATOM  =     10159.83177745
  Solvation  Ediel_sol  =         0.00000000
  ---------------------------------------------------
  free energy    TOTEN  =      -985.59353357 eV

  energy without entropy =     -985.53877020  energy(sigma->0) =     -985.56615189


--------------------------------------------------------------------------------------------------------




--------------------------------------- Iteration      1(  12)  ---------------------------------------


    POTLOK:  cpu time      0.7440: real time      0.7692
    SETDIJ:  cpu time      1.5247: real time      1.5256
    EDDIAG:  cpu time     24.2037: real time     24.2242
     EDDAV:  cpu time     98.5417: real time     98.6310
       DOS:  cpu time      0.0045: real time      0.0045
    --------------------------------------------
      LOOP:  cpu time    125.0191: real time    125.1549

 eigenvalue-minimisations  :  3184
 total energy-change (2. order) : 0.1405861E-06  (-0.2400312E-06)
 number of electron     400.9999999 magnetization 
 augmentation part      -21.1750411 magnetization 

 Free energy of the ion-electron system (eV)
  ---------------------------------------------------
  alpha Z        PSCENC =       147.72133069
  Ewald energy   TEWEN  =     -9386.76508220
  -Hartree energ DENC   =     -2069.05482664
  -exchange      EXHF   =         0.00000000
  -V(xc)+E(xc)   XCENC  =      -429.79681655
  PAW double counting   =     59180.26335116   -58213.23658637
  entropy T*S    EENTRO =        -0.05476337
  eigenvalues    EBANDS =      -374.50191761
  atomic energy  EATOM  =     10159.83177745
  Solvation  Ediel_sol  =         0.00000000
  ---------------------------------------------------
  free energy    TOTEN  =      -985.59353343 eV

  energy without entropy =     -985.53877006  energy(sigma->0) =     -985.56615175


--------------------------------------------------------------------------------------------------------




 average (electrostatic) potential at core
  the test charge radii are     0.5201  0.9892
  (the norm of the test charge is              1.0000)
       1 -34.2566       2 -34.1989       3 -34.7045       4 -34.0155       5 -34.3619
       6 -34.6397       7 -33.8375       8 -34.1907       9 -34.0519      10 -34.6826
      11 -34.7897      12 -34.2764      13 -34.4181      14 -88.0673      15 -87.8198
      16 -87.9854      17 -87.8210      18 -87.9642      19 -87.7095      20 -88.0954
      21 -87.6947      22 -87.7687      23 -87.7335      24 -87.6761      25 -87.8250
      26 -87.9193      27 -87.7697      28 -87.7798      29 -87.6169      30 -87.6813
      31 -87.4567      32 -87.4989      33 -87.8273      34 -87.6845      35 -87.9963
      36 -87.9383      37 -88.0071      38 -87.9575      39 -87.8553      40 -87.9859
      41 -88.1308      42 -88.0909      43 -87.7046      44 -87.5855      45 -87.9223
      46 -87.7746      47 -87.7016      48 -88.3604      49 -87.8812      50 -87.9748
      51 -88.0914      52 -88.1855      53 -87.7827      54 -87.7510      55 -87.8223
      56 -87.9520      57 -88.0890      58 -88.0617      59 -87.9184      60 -87.6464
      61 -87.9820      62 -88.1951      63 -88.2103      64 -87.7725      65 -87.7014
      66 -87.5825      67 -88.0767      68 -87.9901      69 -88.3496      70 -87.4045
      71 -87.9922      72 -87.9776      73 -87.9908      74 -87.5738      75 -87.8391
      76 -87.9384      77 -88.0805      78 -87.9149      79 -88.0957      80 -87.6775
      81 -87.9975      82 -87.4793      83 -87.6572      84 -88.2679      85 -87.8538
      86 -87.6956      87 -87.8959      88 -87.7608      89 -88.1416      90 -87.8775
      91 -87.7244      92 -87.7510      93 -87.5689      94 -87.8544      95 -88.1223
      96 -87.9427      97 -87.7790      98 -87.7494      99 -87.7377     100 -87.6069
     101 -87.8382     102 -88.1032     103 -88.1644     104 -87.7851     105 -88.1208
     106 -87.8046     107 -87.6872     108 -88.2678     109 -87.8114     110 -88.0771



 E-fermi :   4.4437     XC(G=0):  -9.0445     alpha+bet :-10.2625

 val. band max:        4.4285460953   @ k =   0.0000   0.5000   0.3333
 cond. band min:       4.4445955800   @ k =   0.5000   0.0000   0.3333
[...]
   0.268E+02 -.147E+02 -.539E+02   -.262E+02 0.146E+02 0.514E+02   -.989E+00 0.363E-01 0.239E+01   -.298E-04 0.718E-06 0.935E-04
   0.253E+02 0.690E+01 0.228E+01   -.255E+02 -.763E+01 -.400E+01   0.198E+00 0.553E+00 0.752E+00   -.330E-04 0.210E-04 0.397E-04
   -.142E+02 0.740E+01 0.190E+02   0.122E+02 -.962E+01 -.190E+02   0.287E+01 0.295E+01 -.360E+00   -.408E-04 -.121E-03 -.215E-04
   -.208E+02 0.433E+01 0.401E+02   0.218E+02 -.612E+01 -.394E+02   -.130E+01 0.213E+01 -.525E+00   0.936E-04 0.432E-04 -.195E-04
   0.567E+02 0.471E+02 0.203E+02   -.578E+02 -.465E+02 -.209E+02   0.109E+01 -.705E+00 0.884E+00   -.138E-04 0.561E-05 0.126E-04
   -.404E+02 0.179E+02 0.952E+01   0.401E+02 -.163E+02 -.862E+01   0.373E-01 -.167E+01 -.700E+00   0.328E-04 -.951E-05 -.188E-04
   0.271E+02 0.217E+02 0.961E+01   -.262E+02 -.220E+02 -.860E+01   -.390E+00 -.291E+00 -.363E+00   -.316E-05 -.104E-03 0.535E-04
   0.319E+02 -.374E+01 -.816E+01   -.304E+02 0.360E+01 0.887E+01   -.168E+01 0.849E+00 -.539E+00   -.305E-04 -.729E-04 -.283E-04
   0.457E+02 -.489E+02 0.224E+02   -.456E+02 0.434E+02 -.229E+02   0.779E+00 0.523E+01 0.167E+01   -.129E-03 -.346E-04 -.930E-04
   -.329E+02 -.486E+01 -.362E+02   0.342E+02 0.460E+01 0.346E+02   -.221E+01 -.405E+00 0.124E+01   0.101E-03 -.553E-04 0.342E-04
   -.233E+02 -.689E+01 0.932E+01   0.226E+02 0.646E+01 -.102E+02   0.748E+00 -.765E+00 0.672E+00   0.491E-04 0.532E-04 0.449E-04
   0.651E+02 -.116E+02 0.369E+02   -.657E+02 0.133E+02 -.368E+02   0.239E+01 -.174E+01 -.512E+00   -.226E-03 0.253E-05 -.282E-04
   0.282E+02 -.827E+01 -.170E+02   -.298E+02 0.816E+01 0.180E+02   0.212E+01 0.994E-01 -.960E+00   -.161E-03 0.991E-05 0.221E-04
   0.880E+01 -.715E+01 0.144E+01   -.852E+01 0.752E+01 -.748E+00   0.118E+01 -.145E+01 -.392E+00   -.497E-04 0.746E-04 -.596E-04
   -.105E+02 -.927E+01 -.671E+01   0.103E+02 0.910E+01 0.595E+01   0.120E+01 0.301E+00 0.149E+01   -.258E-06 0.105E-03 0.401E-04
   -.148E+02 0.168E+02 -.465E+01   0.133E+02 -.119E+02 0.653E+01   0.419E+00 -.495E+01 -.154E+01   0.318E-04 0.185E-05 0.901E-05
   -.102E+02 0.183E+02 -.237E+02   0.120E+02 -.133E+02 0.228E+02   -.142E+01 -.510E+01 0.153E+01   0.109E-03 0.114E-03 -.194E-04
   -.804E+00 -.159E+02 -.148E+02   -.653E+00 0.146E+02 0.115E+02   0.722E+00 0.118E+01 0.263E+01   -.337E-04 -.117E-05 0.272E-04
   0.901E+01 -.239E+02 -.272E+02   -.928E+01 0.238E+02 0.285E+02   -.148E+01 -.735E+00 -.715E+00   0.472E-04 -.800E-04 -.226E-04
   0.200E+02 -.385E+02 -.209E+02   -.203E+02 0.365E+02 0.201E+02   0.103E+01 0.196E+01 -.110E+00   -.110E-03 0.103E-05 0.236E-04
   -.430E+02 -.481E+01 -.142E+02   0.431E+02 0.341E+01 0.132E+02   0.621E-02 0.170E+01 0.165E+01   0.821E-04 -.431E-05 0.365E-05
   0.277E+02 -.111E+02 0.237E+02   -.294E+02 0.141E+02 -.228E+02   0.135E+01 -.277E+01 -.126E+01   -.684E-04 0.580E-04 -.722E-04
   -.958E+01 0.198E+01 0.358E+02   0.112E+02 -.174E+01 -.333E+02   -.262E+00 -.812E+00 -.306E+01   0.719E-04 -.665E-04 0.249E-05
   0.173E+02 -.253E+01 -.117E+02   -.186E+02 0.275E+01 0.961E+01   0.819E+00 -.692E+00 0.124E+01   -.568E-04 0.153E-04 -.519E-04
   0.252E+01 -.103E+02 -.516E+01   -.899E+00 0.919E+01 0.518E+01   -.193E+01 0.253E+01 -.128E+01   0.416E-04 0.148E-04 0.588E-04
 -----------------------------------------------------------------------------------------------
   0.476E+01 -.551E+01 -.301E+01   -.751E-13 0.533E-14 0.773E-13   -.474E+01 0.552E+01 0.302E+01   -.314E-03 -.113E-03 -.213E-03


 POSITION                                       TOTAL-FORCE (eV/Angst)
 -----------------------------------------------------------------------------------
      2.40734      4.04332      8.15812         0.215542      0.036793      1.028883
     12.62820      5.15359      1.70814         0.147206     -0.105030     -0.180873
      0.36425      1.22138      0.30937        -0.816015      0.092539     -0.539418
     11.77920     14.28970      0.43082         0.074235      0.178212      0.828813
     11.90020      8.31362      9.90951        -0.062528      0.036077      0.406162
      4.07254     10.82600      5.94651         0.251422     -0.801589     -0.273304
     12.32360      2.48447      9.87832         0.140023      0.172637      0.149426
     10.24340      6.49898      9.73615         0.284216     -0.361678     -0.107378
     12.86240      2.52676      2.41185         0.033623     -0.101891      0.195977
     11.97820      0.44114      8.99837        -0.024811     -2.150708      0.368466
      5.92743      6.41189      7.02293         0.058719     -0.715471     -0.457766
     10.63460     13.41870      9.92609         0.026079      0.408299     -0.352133
     14.14250      4.65972      8.69037        -0.479726     -0.113542      0.282321
      6.85771     11.97010      6.35230         0.005535     -0.348320     -0.192185
      8.88765      6.23305     10.26820        -0.308462     -0.218502     -0.374724
      9.74774      3.18435      4.63074        -0.797558      0.464124     -0.490129
      0.03516      7.78177      0.80982        -1.288516     -0.878308     -0.435739
     11.97930     12.27240      5.83950         0.647845      0.854102      0.647870
      6.33052      1.02395      6.83593        -0.838609      0.300728      0.741002
      3.38511      7.67817      5.57242         0.499807     -0.335958      0.350905
      5.66930     12.27620      8.54846         0.923164      0.904647     -0.905250
     13.03190      6.46791      2.27496         1.188719      0.595904     -0.481357
      8.75322      6.08846      5.93646         1.620755     -1.088963      0.555921
      1.75835      3.87175      6.87616        -0.112264     -0.183348     -0.687201
      2.70926     12.41910      2.38100         1.358418     -0.681659     -1.000918
     14.18640     12.93840      6.79980        -0.881669     -0.832429      0.614833
     11.27580      1.71327      5.23456         2.239718     -1.251939     -0.377403
      3.23866      2.79928      0.29095        -0.704430      0.478044      0.932350
      3.30119      1.01081      4.50122        -0.863675      0.632884     -0.791690
     11.84970     14.09280      1.95102        -0.287294     -0.423554     -0.180409
     12.68480      1.29952      3.26192        -0.724627     -0.089382      0.166577
      4.64946      1.84635      9.77320         0.199403     -1.582031     -1.261916
      3.12624      5.21463      5.48220        -0.726393      0.281721      0.051255
      5.49196      6.86114      8.33941         0.486039      1.411037      0.624498
      5.31020      0.19753      0.43381        -0.345235      0.190917     -0.108152
     10.38800     14.01510      5.31354        -0.364751     -0.113365     -0.023618
     10.60850      9.36578      4.07909         0.064363     -0.067565      0.613412
     13.90500      4.30601      7.26588         1.283302      0.480487     -0.504379
     14.36050      9.49748      8.50750        -0.314365     -0.292587     -0.063098
      4.07520      8.61976      7.76435        -0.824141     -0.398513     -0.216319
      8.12897      3.84019     10.18190         0.389005      0.019838      0.562911
      5.31728      6.36650      1.42175        -0.511047      0.415714     -0.135160
      7.69080      8.99720      1.80842        -0.606425      0.811257      0.263688
     13.05820      9.10302     10.42930         1.106196     -0.005924      0.018408
      8.84498     13.08730      7.06322         0.067635      0.541997     -1.076086
      0.98174     11.60480      5.38849        -1.703582      0.328107      0.096790
      6.93939      5.93059      4.59376        -1.894062      0.230501     -0.140436
      8.41880     11.85330      0.18347        -0.510905      0.272183     -0.251396
     12.53640     10.69240      4.12276         0.040718      0.493538     -1.181330
      0.69562     12.73810      3.28822        -0.986405      0.573656      0.680677
      9.39985      2.41610      8.69923         0.172633     -0.566384     -0.417010
     10.76470      5.44587      4.56708        -0.760806      0.556454      1.353404
      8.69847      3.51403      6.69278         0.394907      1.771450      0.208633
      8.75331      8.24405      6.95728         0.001972     -0.877036      0.269992
      0.01126      6.03432      4.07951        -0.551382      0.869213      0.416133
     13.27100     12.12020      2.20822        -1.403102     -0.083878     -0.111069
     12.84850     11.41480     10.73430        -0.693271     -0.192643      1.017002
      7.42083      3.28683      1.58746         1.038017     -0.294872     -0.554324
      7.25058      9.84196     10.51590         0.744292     -0.968323     -0.371696
      2.24159      1.47659      6.51259         0.845941      1.187190      0.246111
      9.66412     14.04000      2.97309         0.119196      0.473928      0.346936
      1.90107      4.72635      3.48521        -0.319188     -0.687731      0.593187
      8.43038      1.65244      3.14755         1.226935      0.569005      0.229478
      2.74814      5.07459     10.72620        -0.513989      0.586879      0.119304
      4.90141      5.49282     10.04400        -0.026017      0.620803      0.537634
      6.82595      0.76023      4.58958         0.547004      0.615682      0.250665
     10.78960      9.34148      6.60213        -0.937512     -0.544761     -0.612548
      7.96213      0.40332      8.39800         0.909994     -0.142608     -0.210228
     12.91500      5.94782      5.91267         0.129882      0.282665     -0.655154
      6.48783      3.34504      7.10144        -1.270991      0.052358     -1.762209
      5.38514      2.27855      1.70747        -1.808220     -0.401338      0.157192
      5.54846      8.00334      4.58787         0.437697      0.056098     -0.156298
     10.45850     11.45960      7.56163         0.699082      0.174358     -0.029514
     11.79180      1.78098      8.69180        -0.470428      2.282260     -0.251204
      8.82226      7.01035      1.58859         0.792921     -0.642417      0.066664
      1.88245      8.33364      2.08628         0.671867     -0.069264      1.070849
      2.94273     13.87630      0.55811         0.136063     -0.237202      0.242947
      2.15817     12.30360      9.73197         0.114802      0.362847     -0.131963
      6.29113     13.14850      4.16214        -1.045195     -0.746999      0.757451
      3.25781     10.28170     10.31040        -0.434580     -0.080034      0.463122
      5.42363      8.68080      2.30494         0.104719     -0.690761      0.135290
      5.18315      2.24322      4.10622        -0.435563      0.909008     -0.828501
      3.12814     11.92220      5.79418         1.067643      0.454225      1.534394
     12.90150      8.33449      6.81961         1.388379      0.555590     -0.207461
     14.33460      9.63283      5.22430        -0.808294     -0.664471     -0.036176
      0.16587      0.58069      6.39895        -0.467391     -0.023048     -0.015803
      2.98128      6.15109      1.98615        -0.035987     -0.166447     -0.959686
      3.86791     13.25700      4.14512         1.091195      0.870437     -0.404504
     10.87330      7.15251      2.93636        -0.385658      0.423270      0.254703
      1.12887      6.65562      9.83920         0.197776      0.002465      0.493045
      7.27452      5.48555      2.38490        -0.212411     -0.139944      0.166907
      2.00488      8.71241      8.95680         0.498157     -0.559965      0.671815
      3.53938     12.89540      7.91285        -0.158243      0.761862      0.168504
      1.56366      2.14695      3.15389         0.958136     -0.126032      1.210515
      7.11612     13.64680     10.11860        -1.097816     -0.699106     -0.343328
      8.43892     10.35900      3.70255         0.140935     -1.293198     -0.243188
      1.58369      1.28949      1.06704         1.906598     -0.085077     -0.514462
      4.01072      0.68076      7.78321         0.631138     -0.007597     -0.044067
      5.23293      4.36782      5.26769         1.534064     -1.191246      0.277338
      5.95345      3.63391      9.25364         1.064424      0.140510      0.808360
      5.34123     10.17070      9.22528        -1.059232     -0.264695      0.264489
     10.63530     11.95380      9.88471         0.324125     -0.172927      0.694500
      3.50689     10.08830      1.78715        -0.736618     -0.122877     -0.549334
     13.11530      2.23932      6.73897        -1.841658     -0.825875      0.567339
     14.38250     11.89050      9.01192         0.744568      0.054888     -0.955815
      7.63247      7.81492      8.98232         0.117899      0.397606      0.696418
      0.16566      0.51813      4.07875        -0.245650      0.082695     -0.447226
      7.92356     12.43260      2.65834         1.421372     -0.637336     -0.678678
      1.34046      8.10231      4.40507        -0.483942     -0.518062     -0.794736
      7.20197      9.47467      5.74282        -0.345386      1.546722     -1.395518
 -----------------------------------------------------------------------------------
    total drift:                                0.019016      0.010104      0.010254


--------------------------------------------------------------------------------------------------------



  FREE ENERGIE OF THE ION-ELECTRON SYSTEM (eV)
  ---------------------------------------------------
  free  energy   TOTEN  =      -985.59353343 eV

  energy  without entropy=     -985.53877006  energy(sigma->0) =     -985.56615175



--------------------------------------------------------------------------------------------------------


    POTLOK:  cpu time      2.1745: real time      2.1755


--------------------------------------------------------------------------------------------------------


     LOOP+:  cpu time   2088.7620: real time   2090.8558
    4ORBIT:  cpu time      0.0000: real time      0.0000



 total charge

# of ion       s       p       d       tot
------------------------------------------
    1        0.590   0.018   0.000   0.608
    2        0.565   0.016   0.000   0.581
    3        0.586   0.018   0.000   0.604
    4        0.547   0.015   0.000   0.561
    5        0.560   0.015   0.000   0.575
    6        0.580   0.018   0.000   0.598
    7        0.579   0.015   0.000   0.594
    8        0.570   0.016   0.000   0.586
    9        0.559   0.015   0.000   0.573
   10        0.620   0.021   0.000   0.640
   11        0.582   0.019   0.000   0.601
   12        0.581   0.018   0.000   0.598
   13        0.559   0.017   0.000   0.576
   14        0.762   0.831   0.000   1.593
   15        0.740   0.947   0.000   1.687
   16        0.755   0.924   0.000   1.679
   17        0.746   0.909   0.000   1.655
   18        0.758   0.882   0.000   1.640
   19        0.758   0.925   0.000   1.683
   20        0.751   0.877   0.000   1.628
   21        0.763   0.923   0.000   1.685
   22        0.741   0.938   0.000   1.679
   23        0.760   0.889   0.000   1.649
   24        0.749   0.945   0.000   1.694
   25        0.753   0.964   0.000   1.717
   26        0.750   0.913   0.000   1.663
   27        0.755   0.933   0.000   1.688
   28        0.761   0.927   0.000   1.687
   29        0.755   0.941   0.000   1.696
   30        0.739   0.940   0.000   1.679
   31        0.742   0.973   0.000   1.715
   32        0.758   0.990   0.000   1.748
   33        0.748   0.932   0.000   1.680
   34        0.750   0.992   0.000   1.743
   35        0.754   0.884   0.000   1.638
   36        0.756   0.873   0.000   1.629
   37        0.751   0.881   0.000   1.632
   38        0.740   0.966   0.000   1.706
   39        0.756   0.892   0.000   1.648
   40        0.757   0.884   0.000   1.640
   41        0.749   0.877   0.000   1.627
   42        0.761   0.872   0.000   1.633
   43        0.754   0.942   0.000   1.696
   44        0.742   0.977   0.000   1.719
   45        0.755   0.889   0.000   1.645
   46        0.754   0.986   0.000   1.741
   47        0.752   0.950   0.000   1.702
   48        0.759   0.844   0.000   1.603
   49        0.755   0.902   0.000   1.657
   50        0.754   0.941   0.000   1.695
   51        0.745   0.883   0.000   1.629
   52        0.757   0.845   0.000   1.603
   53        0.762   0.913   0.000   1.675
   54        0.749   0.945   0.000   1.695
   55        0.750   0.899   0.000   1.649
   56        0.744   0.894   0.000   1.638
   57        0.750   0.898   0.000   1.649
   58        0.751   0.916   0.000   1.667
   59        0.747   0.908   0.000   1.655
   60        0.749   0.965   0.000   1.714
   61        0.756   0.877   0.000   1.633
   62        0.752   0.883   0.000   1.635
   63        0.758   0.861   0.000   1.619
   64        0.755   0.921   0.000   1.677
   65        0.751   0.980   0.000   1.731
   66        0.752   1.006   0.000   1.758
   67        0.748   0.911   0.000   1.659
   68        0.755   0.901   0.000   1.657
   69        0.751   0.848   0.000   1.598
   70        0.757   0.985   0.000   1.743
   71        0.766   0.876   0.000   1.641
   72        0.755   0.874   0.000   1.629
   73        0.743   0.935   0.000   1.679
   74        0.741   1.006   0.000   1.747
   75        0.747   0.958   0.000   1.705
   76        0.753   0.906   0.000   1.659
   77        0.752   0.877   0.000   1.629
   78        0.752   0.901   0.000   1.653
   79        0.755   0.914   0.000   1.670
   80        0.762   0.918   0.000   1.679
   81        0.754   0.894   0.000   1.648
   82        0.756   0.962   0.000   1.719
   83        0.750   1.043   0.000   1.793
   84        0.752   0.852   0.000   1.604
   85        0.749   0.932   0.000   1.681
   86        0.748   1.002   0.000   1.750
   87        0.761   0.900   0.000   1.661
   88        0.752   0.975   0.000   1.728
   89        0.747   0.894   0.000   1.641
   90        0.803   0.804   0.000   1.607
   91        0.753   0.974   0.000   1.727
   92        0.752   0.910   0.000   1.662
   93        0.751   0.956   0.000   1.706
   94        0.750   0.913   0.000   1.663
   95        0.755   0.884   0.000   1.639
   96        0.756   0.877   0.000   1.633
   97        0.738   0.994   0.000   1.733
   98        0.753   0.908   0.000   1.661
   99        0.749   0.924   0.000   1.673
  100        0.754   1.006   0.000   1.760
  101        0.758   0.942   0.000   1.701
  102        0.747   0.919   0.000   1.667
  103        0.745   0.884   0.000   1.629
  104        0.744   0.963   0.000   1.707
  105        0.755   0.880   0.000   1.635
  106        0.759   0.890   0.000   1.649
  107        0.760   0.934   0.000   1.694
  108        0.753   0.886   0.000   1.639
  109        0.749   0.919   0.000   1.669
  110        0.758   0.852   0.000   1.610
--------------------------------------------------
tot         80.502  89.354   0.000 169.856


 total amount of memory used by VASP MPI-rank0   199892. kBytes
=======================================================================

   base                                    :      30000. kBytes
   nonl-proj                               :      37840. kBytes
   fftplans                                :      42981. kBytes
   grid                                    :      33148. kBytes
   one-center                              :         21. kBytes
   wavefun                                 :      55902. kBytes

  
  
 General timing and accounting informations for this job:
 ========================================================
  
                  Total CPU time used (sec):     2161.185
                            User time (sec):     2153.899
                          System time (sec):        7.286
                         Elapsed time (sec):     2163.211
  
                   Maximum memory used (kb):      360396.
                   Average memory used (kb):          N/A
  
                          Minor page faults:       253339
                          Major page faults:         1142
                 Voluntary context switches:         2343
