 vasp.6.5.0 16Dec24 (build Jan 20 2025 08:32:48) complex                         
 executed on        HPECrayEX_GCC date 2025.07.22  00:59:38
 running  128 mpi-ranks, with    1 threads/rank, on    1 nodes
 distrk:  each k-point on  128 cores,    1 groups
 distr:  one band on NCORE=  16 cores,    8 groups


--------------------------------------------------------------------------------------------------------


 INCAR:
   SYSTEM = a-Si SPC
   NCORE = 16
   ISTART = 1
   ICHARG = 1
   ISPIN = 1
   ISYM = 1
   EDIFF = 1E-6
   NELM = 150
   EDIFFG = -0.01
   NSW = 0
   ISIF = 2
   IBRION = -1
   PREC = Accurate
   ENCUT = 1200
   KSPACING = 0.23
   KGAMMA = .TRUE.
   METAGGA = SCAN
   LASPH = .TRUE.
   LDIAG = .FALSE.
   LMIXTAU = .TRUE.
   ADDGRID = .TRUE.
   ALGO = Normal
   ISMEAR = 0
   SIGMA = 0.1
   LORBIT = 11
   NEDOS = 2000
   LWAVE = .FALSE.
   LCHARG = .FALSE.

 POTCAR:    PAW_PBE H 15Jun2001                   
 POTCAR:    PAW_PBE Si 05Jan2001                  
 POTCAR:    PAW_PBE H 15Jun2001                   
   SHA256 =  030f79b5d3ab3cf0e668861823c8fb652ff669f3e15e46930bd03bfd63a607b6 H/POTCAR              
   COPYR  = (c) Copyright 15Jun2001 Georg Kresse                                                    
   COPYR  = This file is part of the software VASP. Any use, copying, and all other rights are regul
   COPYR  = If you do not have a valid VASP license, you may not use, copy or distribute this file. 
   VRHFIN =H: ultrasoft test                                                                        
   LEXCH  = PE                                                                                      
   EATOM  =    12.4884 eV,    0.9179 Ry                                                             
                                                                                                    
   TITEL  = PAW_PBE H 15Jun2001                                                                     
   LULTRA =        F    use ultrasoft PP ?                                                          
   IUNSCR =        0    unscreen: 0-lin 1-nonlin 2-no                                               
   RPACOR =    0.000    partial core radius                                                         
   POMASS =    1.000; ZVAL   =    1.000    mass and valenz                                          
   RCORE  =    1.100    outmost cutoff radius                                                       
   RWIGS  =    0.700; RWIGS  =    0.370    wigner-seitz radius (au A)                               
   ENMAX  =  250.000; ENMIN  =  200.000 eV                                                          
   RCLOC  =    0.701    cutoff for local pot                                                        
   LCOR   =        T    correct aug charges                                                         
   LPAW   =        T    paw PP                                                                      
   EAUG   =  400.000                                                                                
   RMAX   =    1.123    core radius for proj-oper                                                   
   RAUG   =    1.200    factor for augmentation sphere                                              
   RDEP   =    1.112    radius for radial grids                                                     
   RDEPT  =    0.926    core radius for aug-charge                                                  
                                                                                                    
   Atomic configuration                                                                             
    2 entries                                                                                       
     n  l   j            E        occ.                                                              
     1  0  0.50        -6.4927   1.0000                                                             
     2  1  0.50        -3.4015   0.0000                                                             
   Description                                                                                      
     l       E           TYP  RCUT    TYP  RCUT                                                     
     0     -6.4927494     23  1.100                                                                 
     0      6.8029130     23  1.100                                                                 
     1     -4.0817478     23  1.100                                                                 
  local pseudopotential read in
  atomic valenz-charges read in
  non local Contribution for L=           0  read in
    real space projection operators read in
  non local Contribution for L=           0  read in
    real space projection operators read in
  non local Contribution for L=           1  read in
    real space projection operators read in
    PAW grid and wavefunctions read in

   number of l-projection  operators is LMAX  =           3
   number of lm-projection operators is LMMAX =           5

 POTCAR:    PAW_PBE Si 05Jan2001                  
   SHA256 =  79d9987ad8750f624c4d6acb2a16d13abf6a777132adc04dc6c8399be72b42bb Si/POTCAR             
   COPYR  = (c) Copyright 05Jan2001 Georg Kresse                                                    
   COPYR  = This file is part of the software VASP. Any use, copying, and all other rights are regul
   COPYR  = If you do not have a valid VASP license, you may not use, copy or distribute this file. 
   VRHFIN =Si: s2p2                                                                                 
   LEXCH  = PE                                                                                      
   EATOM  =   103.0669 eV,    7.5752 Ry                                                             
                                                                                                    
   TITEL  = PAW_PBE Si 05Jan2001                                                                    
   LULTRA =        F    use ultrasoft PP ?                                                          
   IUNSCR =        1    unscreen: 0-lin 1-nonlin 2-no                                               
   RPACOR =    1.500    partial core radius                                                         
   POMASS =   28.085; ZVAL   =    4.000    mass and valenz                                          
   RCORE  =    1.900    outmost cutoff radius                                                       
   RWIGS  =    2.480; RWIGS  =    1.312    wigner-seitz radius (au A)                               
   ENMAX  =  245.345; ENMIN  =  184.009 eV                                                          
   ICORE  =        2    local potential                                                             
   LCOR   =        T    correct aug charges                                                         
   LPAW   =        T    paw PP                                                                      
   EAUG   =  322.069                                                                                
   DEXC   =    0.000                                                                                
   RMAX   =    1.950    core radius for proj-oper                                                   
   RAUG   =    1.300    factor for augmentation sphere                                              
   RDEP   =    1.993    radius for radial grids                                                     
   RDEPT  =    1.837    core radius for aug-charge                                                  
                                                                                                    
   Atomic configuration                                                                             
    6 entries                                                                                       
     n  l   j            E        occ.                                                              
     1  0  0.50     -1785.8828   2.0000                                                             
     2  0  0.50      -139.4969   2.0000                                                             
     2  1  1.50       -95.5546   6.0000                                                             
     3  0  0.50       -10.8127   2.0000                                                             
     3  1  0.50        -4.0811   2.0000                                                             
     3  2  1.50        -4.0817   0.0000                                                             
   Description                                                                                      
     l       E           TYP  RCUT    TYP  RCUT                                                     
     0    -10.8127223     23  1.900                                                                 
     0     -7.6451159     23  1.900                                                                 
     1     -4.0811372     23  1.900                                                                 
     1      2.4879257     23  1.900                                                                 
     2     -4.0817478      7  1.900                                                                 
  local pseudopotential read in
  partial core-charges read in
  partial kinetic energy density read in
  atomic valenz-charges read in
  non local Contribution for L=           0  read in
    real space projection operators read in
  non local Contribution for L=           0  read in
    real space projection operators read in
  non local Contribution for L=           1  read in
    real space projection operators read in
  non local Contribution for L=           1  read in
    real space projection operators read in
    PAW grid and wavefunctions read in

   number of l-projection  operators is LMAX  =           4
   number of lm-projection operators is LMMAX =           8

 -----------------------------------------------------------------------------
|                                                                             |
|               ----> ADVICE to this user running VASP <----                  |
|                                                                             |
|     You have a (more or less) 'large supercell' and for larger cells it     |
|     might be more efficient to use real-space projection operators.         |
|     Therefore, try LREAL= Auto in the INCAR file.                           |
|     Mind: For very accurate calculation, you might also keep the            |
|     reciprocal projection scheme (i.e. LREAL=.FALSE.).                      |
|                                                                             |
 -----------------------------------------------------------------------------

 -----------------------------------------------------------------------------
|                                                                             |
|               ----> ADVICE to this user running VASP <----                  |
|                                                                             |
|     You enforced a specific xc type in the INCAR file but a different       |
|     type was found in the POTCAR file.                                      |
|     I HOPE YOU KNOW WHAT YOU ARE DOING!                                     |
|                                                                             |
 -----------------------------------------------------------------------------

  PAW_PBE H 15Jun2001                   :
 energy of atom  1       EATOM=  -12.4884
 kinetic energy error for atom=    0.0000 (will be added to EATOM!!)
  PAW_PBE Si 05Jan2001                  :
 energy of atom  2       EATOM= -103.0669
 kinetic energy error for atom=    0.0001 (will be added to EATOM!!)


 POSCAR:  H Si
  positions in cartesian coordinates
  No initial velocities read in


 exchange-correlation table for SCAN
   RHO(1)=    0.500       N(1)  =     2000
   RHO(2)=  100.500       N(2)  =     4000



--------------------------------------------------------------------------------------------------------


 ion  position               nearest neighbor table
   1  0.394  0.899  0.135-  58 1.50
   2  0.340  0.698  0.439-  35 1.49
   3  0.511  0.080  0.080-  90 2.31  66 2.34  58 2.38  77 2.46
   4  0.012  0.169  0.457-  10 2.17  29 2.28  20 2.38  86 2.56
   5  0.116  0.976  0.544-  86 2.44  81 2.47  38 2.51  52 2.77
   6  0.616  0.990  0.559-  31 2.34  43 2.34  33 2.35  70 2.36
   7  0.987  0.077  0.061-  17 2.35  63 2.37  69 2.39  15 2.42
   8  0.131  0.309  0.053-  15 2.21  41 2.32  21 2.36  68 2.40  51 2.94  57 3.09
   9  0.817  0.963  0.231-  17 2.27  44 2.37  56 2.40  22 2.46  86 3.10
  10  0.003  0.206  0.653-   4 2.17  27 2.44  81 2.48  84 2.55
  11  0.902  0.860  0.891-  80 2.34  63 2.36  76 2.36  47 2.52
  12  0.379  0.383  0.333-  45 2.25  82 2.29  40 2.42  30 2.60
  13  0.423  0.412  0.662-  45 2.25  53 2.34  89 2.35  19 2.45
  14  0.762  0.460  0.684-  25 2.27  61 2.43  59 2.46  72 2.48
  15  0.123  0.165  0.118-   8 2.21  51 2.28   7 2.42  20 2.48
  16  0.641  0.835  0.787-  76 2.28  48 2.29  43 2.34  31 2.46
  17  0.971  0.953  0.200-   9 2.27   7 2.35  86 2.35  80 2.76
  18  0.573  0.687  0.074-  48 2.40  75 2.47  87 2.58  83 2.97
  19  0.290  0.311  0.694-  32 2.33  13 2.45  60 2.50  21 2.53
  20  0.149  0.203  0.342-   4 2.38  30 2.39  52 2.44  15 2.48
  21  0.266  0.313  0.929-  39 2.28   8 2.36  51 2.48  19 2.53  42 2.93
  22  0.733  0.834  0.137-  76 2.28  64 2.31  87 2.42   9 2.46
  23  0.367  0.547  0.018-  83 2.28  42 2.32  39 2.42  40 2.84
  24  0.828  0.081  0.781-  84 2.22  85 2.36  63 2.37  70 2.50
  25  0.715  0.488  0.485-  14 2.27  50 2.34  28 2.36  78 2.46
  26  0.827  0.810  0.534-  44 2.26  47 2.34  31 2.36  54 2.71
  27  0.038  0.370  0.675-  32 2.33  41 2.43  10 2.44  59 2.49
  28  0.677  0.622  0.370-  75 2.33  25 2.36  54 2.37  62 2.45
  29  0.901  0.247  0.349-   4 2.28  69 2.38  34 2.44  36 2.48
  30  0.203  0.357  0.363-  20 2.39  68 2.43  32 2.47  12 2.60
  31  0.667  0.838  0.559-   6 2.34  26 2.36  16 2.46  62 2.49
  32  0.181  0.399  0.586-  27 2.33  19 2.33  37 2.37  30 2.47
  33  0.536  0.085  0.418-   6 2.35  71 2.38  77 2.47  55 2.49
  34  0.928  0.406  0.283-  50 2.30  29 2.44  93 2.52  68 2.64
  35  0.430  0.650  0.452-   2 1.49  89 2.47  62 2.47  40 2.62
  36  0.766  0.228  0.488-  61 2.34  29 2.48  70 2.51  78 2.74
  37  0.232  0.542  0.666-  89 2.36  32 2.37  46 2.39  42 2.57
  38  0.075  0.814  0.608-  46 2.29  47 2.45   5 2.51
  39  0.398  0.385  0.990-  21 2.28  82 2.37  53 2.41  23 2.42  42 3.12
  40  0.436  0.532  0.267-  12 2.42  75 2.49  35 2.62  23 2.84
  41  0.034  0.372  0.903-   8 2.32  74 2.33  27 2.43  57 2.60
  42  0.237  0.511  0.903-  23 2.32  57 2.42  37 2.57  21 2.93  39 3.12
  43  0.533  0.950  0.740-   6 2.34  16 2.34  66 2.46
  44  0.837  0.953  0.451-  86 2.23  26 2.26  70 2.32   9 2.37
  45  0.468  0.333  0.491-  12 2.25  13 2.25  71 2.31  78 2.44
  46  0.127  0.669  0.655-  38 2.29  37 2.39  49 2.41
  47  0.927  0.767  0.695-  26 2.34  49 2.34  38 2.45  11 2.52
  48  0.605  0.689  0.852-  16 2.29  83 2.40  18 2.40  72 2.42  65 2.87
  49  0.982  0.619  0.742-  59 2.32  88 2.33  47 2.34  46 2.41
  50  0.868  0.509  0.425-  34 2.30  25 2.34  59 2.36  54 2.47
  51  0.249  0.150  0.992-  15 2.28  90 2.42  92 2.42  21 2.48   8 2.94
  52  0.249  0.084  0.430-  55 2.37  60 2.40  20 2.44   5 2.77
  53  0.514  0.366  0.832-  73 2.31  13 2.34  65 2.36  39 2.41
  54  0.834  0.670  0.367-  64 2.27  28 2.37  50 2.47  26 2.71
  55  0.385  0.048  0.319-  90 2.26  52 2.37  33 2.49  58 2.54
  56  0.761  0.100  0.130-  69 2.38  85 2.40   9 2.40  77 2.41
  57  0.094  0.517  0.022-  68 2.40  88 2.41  42 2.42  41 2.60   8 3.09
  58  0.482  0.940  0.186-   1 1.50  87 2.27   3 2.38  55 2.54
  59  0.924  0.494  0.632-  49 2.32  50 2.36  14 2.46  27 2.49
  60  0.311  0.149  0.619-  52 2.40  19 2.50  71 2.51  92 2.54
  61  0.732  0.296  0.681-  36 2.34  84 2.40  14 2.43  73 2.45
  62  0.568  0.746  0.416-  87 2.29  28 2.45  35 2.47  31 2.49
  63  0.962  0.010  0.862-  11 2.36  24 2.37   7 2.37  81 2.40
  64  0.836  0.713  0.163-  54 2.27  22 2.31  80 2.39  67 2.49
  65  0.600  0.494  0.900-  72 2.36  53 2.36  83 2.45  79 2.50  48 2.87
  66  0.564  0.085  0.873-   3 2.34  43 2.46  85 2.47  73 2.57
  67  0.835  0.579  0.018-  93 2.38  88 2.38  72 2.40  64 2.49
  68  0.100  0.424  0.208-   8 2.40  57 2.40  30 2.43  34 2.64
  69  0.891  0.200  0.135-  74 2.34  56 2.38  29 2.38   7 2.39
  70  0.760  0.065  0.566-  44 2.32   6 2.36  24 2.50  36 2.51
  71  0.477  0.186  0.574-  45 2.31  33 2.38  73 2.51  60 2.51
  72  0.731  0.580  0.843-  65 2.36  67 2.40  48 2.42  14 2.48
  73  0.582  0.235  0.748-  53 2.31  61 2.45  71 2.51  66 2.57
  74  0.896  0.312  0.978-  41 2.33  69 2.34  84 2.38  93 2.46
  75  0.600  0.551  0.206-  28 2.33  79 2.42  18 2.47  40 2.49
  76  0.744  0.882  0.934-  85 2.23  16 2.28  22 2.28  11 2.36
  77  0.621  0.144  0.233-  91 2.36  56 2.41   3 2.46  33 2.47
  78  0.628  0.349  0.428-  45 2.44  25 2.46  91 2.47  36 2.74
  79  0.660  0.419  0.094-  93 2.28  91 2.35  75 2.42  65 2.50
  80  0.965  0.790  0.070-  11 2.34  64 2.39  88 2.59  17 2.76
  81  0.085  0.069  0.734-  92 2.36  63 2.40   5 2.47  10 2.48
  82  0.429  0.294  0.170-  12 2.29  91 2.36  39 2.37  90 2.45
  83  0.468  0.597  0.869-  23 2.28  48 2.40  65 2.45  89 2.62  18 2.97
  84  0.861  0.230  0.791-  24 2.22  74 2.38  61 2.40  10 2.55
  85  0.720  0.034  0.932-  76 2.23  24 2.36  56 2.40  66 2.47
  86  0.980  0.999  0.412-  44 2.23  17 2.35   5 2.44   4 2.56   9 3.10
  87  0.581  0.823  0.229-  58 2.27  62 2.29  22 2.42  18 2.58
  88  0.984  0.632  0.960-  49 2.33  67 2.38  57 2.41  80 2.59
  89  0.391  0.570  0.650-  13 2.35  37 2.36  35 2.47  83 2.62
  90  0.371  0.137  0.145-  55 2.26   3 2.31  51 2.42  82 2.45
  91  0.589  0.302  0.211-  79 2.35  77 2.36  82 2.36  78 2.47
  92  0.240  0.061  0.800-  81 2.36  51 2.42  60 2.54
  93  0.817  0.429  0.104-  79 2.28  67 2.38  74 2.46  34 2.52

  LATTYP: Found a simple tetragonal cell.
 ALAT       =    14.5237936979
 C/A-ratio  =     0.7342345756
  
  Lattice vectors:
  
 A1 = (  14.5237936979,   0.0000000000,   0.0000000000)
 A2 = (   0.0000000000,  14.5237936979,   0.0000000000)
 A3 = (   0.0000000000,   0.0000000000,  10.6638715013)


Analysis of symmetry for initial positions (statically):
=====================================================================
 Subroutine PRICEL returns:
 Original cell was already a primitive cell.
 

 Routine SETGRP: Setting up the symmetry group for a 
 simple tetragonal supercell.


 Subroutine GETGRP returns: Found  1 space group operations
 (whereof  1 operations were pure point group operations)
 out of a pool of 16 trial point group operations.


The static configuration has the point symmetry C_1 .


Analysis of symmetry for dynamics (positions and initial velocities):
=====================================================================
 Subroutine PRICEL returns:
 Original cell was already a primitive cell.
 

 Routine SETGRP: Setting up the symmetry group for a 
 simple tetragonal supercell.


 Subroutine GETGRP returns: Found  1 space group operations
 (whereof  1 operations were pure point group operations)
 out of a pool of 16 trial point group operations.


The dynamic configuration has the point symmetry C_1 .


 Subroutine INISYM returns: Found  1 space group operations
 (whereof  1 operations are pure point group operations),
 and found     1 'primitive' translations


----------------------------------------------------------------------------------------

                                     Primitive cell                                     

  volume of cell :    2249.4433

  direct lattice vectors                    reciprocal lattice vectors
    14.523793698  0.000000000  0.000000000     0.068852534  0.000000000  0.000000000
     0.000000000 14.523793698  0.000000000     0.000000000  0.068852534  0.000000000
     0.000000000  0.000000000 10.663871501     0.000000000  0.000000000  0.093774573

  length of vectors
    14.523793698 14.523793698 10.663871501     0.068852534  0.068852534  0.093774573

  position of ions in fractional coordinates (direct lattice)
     0.394226889  0.899455078  0.135215433
     0.339730796  0.697834203  0.439498919
     0.511243147  0.080383268  0.079742334
     0.012395453  0.169310447  0.456947554
     0.115615110  0.975922703  0.544192604
     0.615764737  0.990078784  0.559151524
     0.987393535  0.077447396  0.060944939
     0.131485619  0.308801550  0.052601815
     0.817114333  0.963267607  0.230994906
     0.002885355  0.206425405  0.653293693
     0.902340000  0.859947494  0.891417343
     0.378953331  0.383242155  0.332711248
     0.422853018  0.411773957  0.662179772
     0.762328372  0.459815813  0.683642896
     0.122770265  0.164903196  0.118288185
     0.640689354  0.834602877  0.786741476
     0.971344009  0.953476777  0.200486287
     0.573430067  0.687314913  0.073557244
     0.289602709  0.310619945  0.693605507
     0.149012720  0.202887762  0.342104647
     0.266015208  0.312863161  0.928624280
     0.732907684  0.833797302  0.137349742
     0.367152007  0.547036826  0.018467214
     0.827862214  0.080958875  0.780538288
     0.714682418  0.488382729  0.484573543
     0.826560901  0.810187768  0.533860521
     0.037967009  0.369863419  0.675205060
     0.677405656  0.622388350  0.369876925
     0.901396720  0.247077318  0.348961444
     0.203028221  0.357324684  0.363402729
     0.667433055  0.837763208  0.558800807
     0.181495280  0.398950172  0.585704732
     0.536054158  0.085480421  0.418304928
     0.928180356  0.405503557  0.283132631
     0.430056370  0.649979626  0.452110662
     0.766067064  0.227956970  0.487981311
     0.231536613  0.542414755  0.666043284
     0.075472017  0.814188100  0.607734255
     0.397995876  0.384922846  0.990165720
     0.435751163  0.531883071  0.266782097
     0.034387778  0.372258799  0.903262009
     0.236535307  0.511295475  0.903495508
     0.533417106  0.950151199  0.739605686
     0.836888781  0.953256449  0.451220741
     0.467827493  0.332846232  0.491284990
     0.127104532  0.669117188  0.655491769
     0.926782649  0.766604114  0.695234371
     0.604918397  0.689048620  0.852298342
     0.981899103  0.619103396  0.742195740
     0.868244225  0.508674948  0.424561567
     0.248654041  0.149930524  0.992444442
     0.248588632  0.083684747  0.430456237
     0.514324987  0.365679939  0.831658558
     0.833783531  0.669561975  0.366862073
     0.385301535  0.048073184  0.318985464
     0.761453944  0.100086798  0.129829959
     0.094355513  0.516872530  0.021532986
     0.481519508  0.939671844  0.185949352
     0.923828876  0.494222112  0.631981546
     0.311098470  0.149228228  0.618945005
     0.731654568  0.295656912  0.681415750
     0.567872291  0.746478518  0.415523574
     0.961842360  0.009724319  0.861650480
     0.835738943  0.713484384  0.162968955
     0.599701440  0.494352932  0.900001467
     0.563914647  0.085302093  0.872838725
     0.834692385  0.578624303  0.018230809
     0.100110896  0.423905773  0.207654415
     0.891475070  0.199523627  0.135339215
     0.759753287  0.064915959  0.565894853
     0.476566946  0.186195842  0.574268923
     0.730842108  0.580181747  0.843053107
     0.581673781  0.235320748  0.748210441
     0.896398026  0.311772536  0.977628059
     0.599949998  0.550535223  0.206067749
     0.744233926  0.881677354  0.934138225
     0.620534152  0.143683534  0.233386158
     0.628484554  0.348943954  0.427568918
     0.660255178  0.419076457  0.094194683
     0.964858101  0.789566434  0.069713049
     0.084864879  0.068528927  0.734046730
     0.429411222  0.294207566  0.169833254
     0.467969330  0.597164224  0.868886126
     0.860815036  0.230160251  0.790625618
     0.719805047  0.033577453  0.932239290
     0.980191560  0.999178445  0.411917004
     0.580612764  0.823063192  0.228774325
     0.983758121  0.631864525  0.959932797
     0.390898557  0.570023244  0.649854042
     0.370870732  0.136770051  0.145429359
     0.589085757  0.302296362  0.211255359
     0.239657081  0.061172722  0.800474762
     0.816976628  0.428537483  0.104277326

  ion indices of the primitive-cell ions
   primitive index   ion index
                 1           1
                 2           2
                 3           3
                 4           4
                 5           5
                 6           6
                 7           7
                 8           8
                 9           9
                10          10
                11          11
                12          12
                13          13
                14          14
                15          15
                16          16
                17          17
                18          18
                19          19
                20          20
                21          21
                22          22
                23          23
                24          24
                25          25
                26          26
                27          27
                28          28
                29          29
                30          30
                31          31
                32          32
                33          33
                34          34
                35          35
                36          36
                37          37
                38          38
                39          39
                40          40
                41          41
                42          42
                43          43
                44          44
                45          45
                46          46
                47          47
                48          48
                49          49
                50          50
                51          51
                52          52
                53          53
                54          54
                55          55
                56          56
                57          57
                58          58
                59          59
                60          60
                61          61
                62          62
                63          63
                64          64
                65          65
                66          66
                67          67
                68          68
                69          69
                70          70
                71          71
                72          72
                73          73
                74          74
                75          75
                76          76
                77          77
                78          78
                79          79
                80          80
                81          81
                82          82
                83          83
                84          84
                85          85
                86          86
                87          87
                88          88
                89          89
                90          90
                91          91
                92          92
                93          93

----------------------------------------------------------------------------------------


 -----------------------------------------------------------------------------
|                                                                             |
|           W    W    AA    RRRRR   N    N  II  N    N   GGGG   !!!           |
|           W    W   A  A   R    R  NN   N  II  NN   N  G    G  !!!           |
|           W    W  A    A  R    R  N N  N  II  N N  N  G       !!!           |
|           W WW W  AAAAAA  RRRRR   N  N N  II  N  N N  G  GGG   !            |
|           WW  WW  A    A  R   R   N   NN  II  N   NN  G    G                |
|           W    W  A    A  R    R  N    N  II  N    N   GGGG   !!!           |
|                                                                             |
|     The requested file  could not be found or opened for reading            |
|     k-point information. Automatic k-point generation is used as a          |
|     fallback, which may lead to unwanted results.                           |
|                                                                             |
 -----------------------------------------------------------------------------



Automatic generation of k-mesh.
 Grid dimensions derived from KSPACING:
 generate k-points for:    2    2    3

 Generating k-lattice:

  Cartesian coordinates                     Fractional coordinates (reciprocal lattice)
     0.034426267  0.000000000  0.000000000     0.500000000  0.000000000  0.000000000
     0.000000000  0.034426267  0.000000000     0.000000000  0.500000000  0.000000000
     0.000000000  0.000000000  0.031258191     0.000000000  0.000000000  0.333333333

  Length of vectors
     0.034426267  0.034426267  0.031258191

  Shift w.r.t. Gamma in fractional coordinates (k-lattice)
     0.000000000  0.000000000  0.000000000

 
 Subroutine IBZKPT returns following result:
 ===========================================
 
 Found      8 irreducible k-points:
 
 Following reciprocal coordinates:
            Coordinates               Weight
  0.000000  0.000000  0.000000      1.000000
  0.500000  0.000000  0.000000      1.000000
  0.000000  0.500000  0.000000      1.000000
  0.500000  0.500000  0.000000      1.000000
  0.000000  0.000000  0.333333      2.000000
  0.500000  0.000000  0.333333      2.000000
  0.000000  0.500000  0.333333      2.000000
  0.500000  0.500000  0.333333      2.000000
 
 Following cartesian coordinates:
            Coordinates               Weight
  0.000000  0.000000  0.000000      1.000000
  0.034426  0.000000  0.000000      1.000000
  0.000000  0.034426  0.000000      1.000000
  0.034426  0.034426  0.000000      1.000000
  0.000000  0.000000  0.031258      2.000000
  0.034426  0.000000  0.031258      2.000000
  0.000000  0.034426  0.031258      2.000000
  0.034426  0.034426  0.031258      2.000000
 


--------------------------------------------------------------------------------------------------------




 Dimension of arrays:
   k-points           NKPTS =      8   k-points in BZ     NKDIM =      8   number of bands    NBANDS=    232
   number of dos      NEDOS =   2000   number of ions     NIONS =     93
   non local maximal  LDIM  =      4   non local SUM 2l+1 LMDIM =      8
   total plane-waves  NPLWV = ******
   max r-space proj   IRMAX =      1   max aug-charges    IRDMAX= 402884
   dimension x,y,z NGX =   168 NGY =  168 NGZ =  120
   dimension x,y,z NGXF=   336 NGYF=  336 NGZF=  240
   support grid    NGXF=   672 NGYF=  672 NGZF=  480
   ions per type =               2  91
   NGX,Y,Z   is equivalent  to a cutoff of  19.23, 19.23, 18.71 a.u.
   NGXF,Y,Z  is equivalent  to a cutoff of  38.46, 38.46, 37.42 a.u.

 SYSTEM =  a-Si SPC                                
 POSCAR =   H Si                                   

 Startparameter for this run:
   NWRITE =      2    write-flag & timer
   PREC   = accura    normal or accurate (medium, high low for compatibility)
   ISTART =      1    job   : 0-new  1-cont  2-samecut
   ICHARG =      1    charge: 1-file 2-atom 10-const
   ISPIN  =      1    spin polarized calculation?
   LNONCOLLINEAR =      F non collinear calculations
   LSORBIT =      F    spin-orbit coupling
   INIWAV =      1    electr: 0-lowe 1-rand  2-diag
   LASPH  =      T    aspherical Exc in radial PAW
 Electronic Relaxation 1
   ENCUT  = 1200.0 eV  88.20 Ry    9.39 a.u.  41.02 41.02 30.12*2*pi/ulx,y,z
   ENINI  = 1200.0     initial cutoff
   ENAUG  =  400.0 eV  augmentation charge cutoff
   NELM   =    150;   NELMIN=  2; NELMDL=  0     # of ELM steps 
   EDIFF  = 0.1E-05   stopping-criterion for ELM
   LREAL  =      F    real-space projection
   NLSPLINE    = F    spline interpolate recip. space projectors
   LCOMPAT=      F    compatible to vasp.4.4
   GGA_COMPAT  = T    GGA compatible to vasp.4.4-vasp.4.6
   LMAXPAW     = -100 max onsite density
   LMAXMIX     =    2 max onsite mixed and CHGCAR
   VOSKOWN=      0    Vosko Wilk Nusair interpolation
   ROPT   =    0.00000   0.00000
 Ionic relaxation
   EDIFFG = -.1E-01   stopping-criterion for IOM
   NSW    =      0    number of steps for IOM
   NBLOCK =      1;   KBLOCK =      1    inner block; outer block 
   IBRION =     -1    ionic relax: 0-MD 1-quasi-New 2-CG
   NFREE  =      0    steps in history (QN), initial steepest desc. (CG)
   ISIF   =      2    stress and relaxation
   IWAVPR =     10    prediction:  0-non 1-charg 2-wave 3-comb
   ISYM   =      1    0-nonsym 1-usesym 2-fastsym
   LCORR  =      T    Harris-Foulkes like correction to forces

   POTIM  = 0.5000    time-step for ionic-motion
   TEIN   =    0.0    initial temperature
   TEBEG  =    0.0;   TEEND  =   0.0 temperature during run
   SMASS  =  -3.00    Nose mass-parameter (am)
   estimated Nose-frequenzy (Omega)   =  0.10E-29 period in steps = 0.13E+47 mass=  -0.482E-26a.u.
   SCALEE = 1.0000    scale energy and forces
   NPACO  =    256;   APACO  = 10.0  distance and # of slots for P.C.
   PSTRESS=    0.0 pullay stress

  Mass of Ions in am
   POMASS =   1.00 28.09
  Ionic Valenz
   ZVAL   =   1.00  4.00
  Atomic Wigner-Seitz radii
   RWIGS  =  -1.00 -1.00
  virtual crystal weights 
   VCA    =   1.00  1.00
   NELECT =     366.0000    total number of electrons
   NUPDOWN=      -1.0000    fix difference up-down

 DOS related values:
   EMIN   =  10.00;   EMAX   =-10.00  energy-range for DOS
   EFERMI =   0.00;   METHOD = LEGACY      
   ISMEAR =     0;   SIGMA  =   0.10  broadening in eV -4-tet -1-fermi 0-gaus
   EFERMI_NEDOS =   21; number of points for ismear=-14 and -15

 Electronic relaxation 2 (details)
   IALGO  =     38    algorithm
   LDIAG  =      F    sub-space diagonalisation (order eigenvalues)
   LSUBROT=      F    optimize rotation matrix (better conditioning)
   TURBO    =      0    0=normal 1=particle mesh
   IRESTART =      0    0=no restart 2=restart with 2 vectors
   NREBOOT  =      0    no. of reboots
   NMIN     =      0    reboot dimension
   EREF     =   0.00    reference energy to select bands
   IMIX   =      4    mixing-type and parameters
     AMIX     =   0.40;   BMIX     =  1.00
     AMIX_MAG =   1.60;   BMIX_MAG =  1.00
     AMIN     =   0.10
     WC   =   100.;   INIMIX=   1;  MIXPRE=   1;  MAXMIX= -45

 Intra band minimization:
   WEIMIN = 0.0000     energy-eigenvalue tresh-hold
   EBREAK =  0.11E-08  absolut break condition
   DEPER  =   0.30     relativ break condition  

   TIME   =   0.40     timestep for ELM

  volume/ion in A,a.u.               =      24.19       163.23
  Fermi-wavevector in a.u.,A,eV,Ry     =   0.893738  1.688920 10.867891  0.798767
  Thomas-Fermi vector in A             =   2.015854

 Write flags
   LWAVE        =      F    write WAVECAR
   LDOWNSAMPLE  =      F    k-point downsampling of WAVECAR
   LCHARG       =      F    write CHGCAR
   LVTOT        =      F    write LOCPOT, total local potential
   LVHAR        =      F    write LOCPOT, Hartree potential only
   WRT_POTENTIAL= false  ! write potential to hdf5 file
   LELF         =      F    write electronic localiz. function (ELF)
   LORBIT       =     11    0 simple, 1 ext, 2 COOP (PROOUT), +10 PAW based schemes


 Python interface
   PLUGINS active      =      F    recompile with -DPLUGINS to activate

 Dipole corrections
   LMONO      =      F    monopole corrections only (constant potential shift)
   LDIPOL     =      F    correct potential (dipole corrections)
   IDIPOL     =      0    1-x, 2-y, 3-z, 4-all directions 
   EPSILON    =  1.0000000 bulk dielectric constant
   LVACPOTAV  =      F  vacuum potentials using an averaging scheme for the charge density
   VACPOTFLAT =  0.1000000 required flatness to determine vacuum potential

Coulomb truncation method
  LTRUNCATE          =      F  Coulomb kernel truncation to be used
  IDIMENSIONALITY    =      3  Dimensionality of cutoff (0 molecules / 2 surfaces)
  ISURFACE           =     -1  Direction of surface normal
  LCOARSEN           =      F  Coarsen the charge grid before padding, preferred


 Exchange correlation treatment:
   METAGGA = SCAN    functional components
   XC_C    = 1    coefficients multiplying the functional components
   LIBXC   =     F    Libxc                    
   VOSKOWN =     0    Vosko Wilk Nusair interpolation
   LHFCALC =     F    Hartree Fock is set to
   LHFONE  =     F    Hartree Fock one center treatment
   AEXX    =    0.0000 exact exchange contribution

 Parameters of functionals:
   SCAN:
     P1 =  0.000000E+00
     P2 =  0.000000E+00
     P3 =  0.000000E+00

 Accuracy and mixing parameters for tau-dependent meta-GGA functionals:
   LMAXTAU = 6
   LMIXTAU = T

 Van der Waals corrections
   IVDW    =     0    specifies the selected vdW correction

 Linear response parameters
   LEPSILON=     F    determine dielectric tensor
   LRPA    =     F    only Hartree local field effects (RPA)
   LNABLA  =     F    use nabla operator in PAW spheres
   LVEL    =     F    velocity operator in full k-point grid
   CSHIFT  =0.1000    complex shift for real part using Kramers Kronig
   OMEGAMAX=  -1.0    maximum frequency
   DEG_THRESHOLD= 0.2000000E-02 threshold for treating states as degnerate
   RTIME   =   -0.100 relaxation time in fs
  (WPLASMAI=    0.000 imaginary part of plasma frequency in eV, 0.658/RTIME)
   DFIELD  = 0.0000000 0.0000000 0.0000000 field for delta impulse in time

  Optional k-point grid parameters
   LKPOINTS_OPT  =     F    use optional k-point grid
   KPOINTS_OPT_MODE=     1    mode for optional k-point grid

 Orbital magnetization related:
   ORBITALMAG=     F  switch on orbital magnetization
   LCHIMAG   =     F  perturbation theory with respect to B field
   DQ        =  0.001000  dq finite difference perturbation B field
   LLRAUG    =     F  two centre corrections for induced B field
   LBONE     =     F  B-component reconstruction in AE one-centre
   LVGVCALC  =     T  calculate vGv susceptibility
   LVGVAPPL  =     F  apply vGv susceptibility instead of pGv for G=0

 Random number generation:
   RANDOM_GENERATOR = DEFAULT
   PCG_SEED         = not used


--------------------------------------------------------------------------------------------------------


 Static calculation
 charge density and potential will be updated during run
 non-spin polarized calculation
 Variant of blocked Davidson
 perform Loewdin sub-space diagonalisation
    ordering is kept fixed
    before iterative eigenvector-optimisation
 modified Broyden-mixing scheme, WC =      100.0
 initial mixing is a Kerker type mixing with AMIX =  0.4000 and BMIX =      1.0000
 Hartree-type preconditioning will be used
 using additional bands           49
 reciprocal scheme for non local part
 use partial core corrections
 calculate Harris-corrections to forces   (improved forces if not selfconsistent)
 use gradient corrections 
 use of overlap-Matrix (Vanderbilt PP)
 Gauss-broadening in eV      SIGMA  =   0.10


--------------------------------------------------------------------------------------------------------


  energy-cutoff  :     1200.00
  volume of cell :     2249.44
      direct lattice vectors                 reciprocal lattice vectors
    14.523793698  0.000000000  0.000000000     0.068852534  0.000000000  0.000000000
     0.000000000 14.523793698  0.000000000     0.000000000  0.068852534  0.000000000
     0.000000000  0.000000000 10.663871501     0.000000000  0.000000000  0.093774573

  length of vectors
    14.523793698 14.523793698 10.663871501     0.068852534  0.068852534  0.093774573



 old parameters found on file WAVECAR:
  energy-cutoff  :     1200.00
  volume of cell :     2249.44
      direct lattice vectors                 reciprocal lattice vectors
    14.523793698  0.000000000  0.000000000     0.068852534  0.000000000  0.000000000
     0.000000000 14.523793698  0.000000000     0.000000000  0.068852534  0.000000000
     0.000000000  0.000000000 10.663871501     0.000000000  0.000000000  0.093774573

  length of vectors


 k-points in units of 2pi/SCALE and weight: read from INCAR                         
   0.00000000  0.00000000  0.00000000       0.083
   0.03442627  0.00000000  0.00000000       0.083
   0.00000000  0.03442627  0.00000000       0.083
   0.03442627  0.03442627  0.00000000       0.083
   0.00000000  0.00000000  0.03125819       0.167
   0.03442627  0.00000000  0.03125819       0.167
   0.00000000  0.03442627  0.03125819       0.167
   0.03442627  0.03442627  0.03125819       0.167

 k-points in reciprocal lattice and weights: read from INCAR                         
   0.00000000  0.00000000  0.00000000       0.083
   0.50000000  0.00000000  0.00000000       0.083
   0.00000000  0.50000000  0.00000000       0.083
   0.50000000  0.50000000  0.00000000       0.083
   0.00000000  0.00000000  0.33333333       0.167
   0.50000000  0.00000000  0.33333333       0.167
   0.00000000  0.50000000  0.33333333       0.167
   0.50000000  0.50000000  0.33333333       0.167

 position of ions in fractional coordinates (direct lattice) 
   0.39422689  0.89945508  0.13521543
   0.33973080  0.69783420  0.43949892
   0.51124315  0.08038327  0.07974233
   0.01239545  0.16931045  0.45694755
   0.11561511  0.97592270  0.54419260
   0.61576474  0.99007878  0.55915152
   0.98739353  0.07744740  0.06094494
   0.13148562  0.30880155  0.05260182
   0.81711433  0.96326761  0.23099491
   0.00288536  0.20642541  0.65329369
   0.90234000  0.85994749  0.89141734
   0.37895333  0.38324216  0.33271125
   0.42285302  0.41177396  0.66217977
   0.76232837  0.45981581  0.68364290
   0.12277026  0.16490320  0.11828818
   0.64068935  0.83460288  0.78674148
   0.97134401  0.95347678  0.20048629
   0.57343007  0.68731491  0.07355724
   0.28960271  0.31061995  0.69360551
   0.14901272  0.20288776  0.34210465
   0.26601521  0.31286316  0.92862428
   0.73290768  0.83379730  0.13734974
   0.36715201  0.54703683  0.01846721
   0.82786221  0.08095888  0.78053829
   0.71468242  0.48838273  0.48457354
   0.82656090  0.81018777  0.53386052
   0.03796701  0.36986342  0.67520506
   0.67740566  0.62238835  0.36987693
   0.90139672  0.24707732  0.34896144
   0.20302822  0.35732468  0.36340273
   0.66743306  0.83776321  0.55880081
   0.18149528  0.39895017  0.58570473
   0.53605416  0.08548042  0.41830493
   0.92818036  0.40550356  0.28313263
   0.43005637  0.64997963  0.45211066
   0.76606706  0.22795697  0.48798131
   0.23153661  0.54241475  0.66604328
   0.07547202  0.81418810  0.60773425
   0.39799588  0.38492285  0.99016572
   0.43575116  0.53188307  0.26678210
   0.03438778  0.37225880  0.90326201
   0.23653531  0.51129548  0.90349551
   0.53341711  0.95015120  0.73960569
   0.83688878  0.95325645  0.45122074
   0.46782749  0.33284623  0.49128499
   0.12710453  0.66911719  0.65549177
   0.92678265  0.76660411  0.69523437
   0.60491840  0.68904862  0.85229834
   0.98189910  0.61910340  0.74219574
   0.86824422  0.50867495  0.42456157
   0.24865404  0.14993052  0.99244444
   0.24858863  0.08368475  0.43045624
   0.51432499  0.36567994  0.83165856
   0.83378353  0.66956198  0.36686207
   0.38530153  0.04807318  0.31898546
   0.76145394  0.10008680  0.12982996
   0.09435551  0.51687253  0.02153299
   0.48151951  0.93967184  0.18594935
   0.92382888  0.49422211  0.63198155
   0.31109847  0.14922823  0.61894501
   0.73165457  0.29565691  0.68141575
   0.56787229  0.74647852  0.41552357
   0.96184236  0.00972432  0.86165048
   0.83573894  0.71348438  0.16296896
   0.59970144  0.49435293  0.90000147
   0.56391465  0.08530209  0.87283872
   0.83469238  0.57862430  0.01823081
   0.10011090  0.42390577  0.20765442
   0.89147507  0.19952363  0.13533922
   0.75975329  0.06491596  0.56589485
   0.47656695  0.18619584  0.57426892
   0.73084211  0.58018175  0.84305311
   0.58167378  0.23532075  0.74821044
   0.89639803  0.31177254  0.97762806
   0.59995000  0.55053522  0.20606775
   0.74423393  0.88167735  0.93413823
   0.62053415  0.14368353  0.23338616
   0.62848455  0.34894395  0.42756892
   0.66025518  0.41907646  0.09419468
   0.96485810  0.78956643  0.06971305
   0.08486488  0.06852893  0.73404673
   0.42941122  0.29420757  0.16983325
   0.46796933  0.59716422  0.86888613
   0.86081504  0.23016025  0.79062562
   0.71980505  0.03357745  0.93223929
   0.98019156  0.99917844  0.41191700
   0.58061276  0.82306319  0.22877432
   0.98375812  0.63186452  0.95993280
   0.39089856  0.57002324  0.64985404
   0.37087073  0.13677005  0.14542936
   0.58908576  0.30229636  0.21125536
   0.23965708  0.06117272  0.80047476
   0.81697663  0.42853748  0.10427733

 position of ions in cartesian coordinates  (Angst):
   5.72567000 13.06350000  1.44192000
   4.93418000 10.13520000  4.68676000
   7.42519000  1.16747000  0.85036200
   0.18002900  2.45903000  4.87283000
   1.67917000 14.17410000  5.80320000
   8.94324000 14.37970000  5.96272000
  14.34070000  1.12483000  0.64990900
   1.90967000  4.48497000  0.56093900
  11.86760000 13.99030000  2.46330000
   0.04190630  2.99808000  6.96664000
  13.10540000 12.48970000  9.50596000
   5.50384000  5.56613000  3.54799000
   6.14143000  5.98052000  7.06140000
  11.07190000  6.67827000  7.29028000
   1.78309000  2.39502000  1.26141000
   9.30524000 12.12160000  8.38971000
  14.10760000 13.84810000  2.13796000
   8.32838000  9.98242000  0.78440500
   4.20613000  4.51138000  7.39652000
   2.16423000  2.94670000  3.64816000
   3.86355000  4.54396000  9.90273000
  10.64460000 12.10990000  1.46468000
   5.33244000  7.94505000  0.19693200
  12.02370000  1.17583000  8.32356000
  10.37990000  7.09317000  5.16743000
  12.00480000 11.76700000  5.69302000
   0.55142500  5.37182000  7.20030000
   9.83850000  9.03944000  3.94432000
  13.09170000  3.58850000  3.72128000
   2.94874000  5.18971000  3.87528000
   9.69366000 12.16750000  5.95898000
   2.63600000  5.79427000  6.24588000
   7.78554000  1.24150000  4.46075000
  13.48070000  5.88945000  3.01929000
   6.24605000  9.44017000  4.82125000
  11.12620000  3.31080000  5.20377000
   3.36279000  7.87792000  7.10260000
   1.09614000 11.82510000  6.48080000
   5.78041000  5.59054000 10.55900000
   6.32876000  7.72496000  2.84493000
   0.49944100  5.40661000  9.63227000
   3.43539000  7.42595000  9.63476000
   7.74724000 13.79980000  7.88706000
  12.15480000 13.84490000  4.81176000
   6.79463000  4.83419000  5.23900000
   1.84604000  9.71812000  6.99008000
  13.46040000 11.13400000  7.41389000
   8.78571000 10.00760000  9.08880000
  14.26090000  8.99173000  7.91468000
  12.61020000  7.38789000  4.52747000
   3.61140000  2.17756000 10.58330000
   3.61045000  1.21542000  4.59033000
   7.46995000  5.31106000  8.86870000
  12.10970000  9.72458000  3.91217000
   5.59604000  0.69820500  3.40162000
  11.05920000  1.45364000  1.38449000
   1.37040000  7.50695000  0.22962500
   6.99349000 13.64760000  1.98294000
  13.41750000  7.17798000  6.73937000
   4.51833000  2.16736000  6.60035000
  10.62640000  4.29406000  7.26653000
   8.24766000 10.84170000  4.43109000
  13.96960000  0.14123400  9.18853000
  12.13810000 10.36250000  1.73788000
   8.70994000  7.17988000  9.59750000
   8.19018000  1.23891000  9.30784000
  12.12290000  8.40382000  0.19441100
   1.45399000  6.15672000  2.21440000
  12.94760000  2.89784000  1.44324000
  11.03450000  0.94282600  6.03463000
   6.92156000  2.70427000  6.12393000
  10.61460000  8.42644000  8.99021000
   8.44811000  3.41775000  7.97882000
  13.01910000  4.52812000 10.42530000
   8.71355000  7.99586000  2.19748000
  10.80910000 12.80530000  9.96153000
   9.01251000  2.08683000  2.48880000
   9.12798000  5.06799000  4.55954000
   9.58941000  6.08658000  1.00448000
  14.01340000 11.46750000  0.74341100
   1.23256000  0.99530000  7.82778000
   6.23668000  4.27301000  1.81108000
   6.79669000  8.67309000  9.26569000
  12.50230000  3.34280000  8.43113000
  10.45430000  0.48767200  9.94128000
  14.23610000 14.51186160  4.39263000
   8.43270000 11.95400000  2.43962000
  14.28790000  9.17707000 10.23660000
   5.67733000  8.27890000  6.92996000
   5.38645000  1.98642000  1.55084000
   8.55576000  4.39049000  2.25280000
   3.48073000  0.88846000  8.53616000
  11.86560000  6.22399000  1.11200000



--------------------------------------------------------------------------------------------------------


 k-point     1 :   0.0000 0.0000 0.0000  plane waves:  212237
 k-point     2 :   0.5000 0.0000 0.0000  plane waves:  212274
 k-point     3 :   0.0000 0.5000 0.0000  plane waves:  212274
 k-point     4 :   0.5000 0.5000 0.0000  plane waves:  212356
 k-point     5 :   0.0000 0.0000 0.3333  plane waves:  212224
 k-point     6 :   0.5000 0.0000 0.3333  plane waves:  212324
 k-point     7 :   0.0000 0.5000 0.3333  plane waves:  212324
 k-point     8 :   0.5000 0.5000 0.3333  plane waves:  212352

 maximum and minimum number of plane-waves per node :     13340    13209

 maximum number of plane-waves:    212356
 maximum index in each direction: 
   IXMAX=   41   IYMAX=   41   IZMAX=   30
   IXMIN=  -41   IYMIN=  -41   IZMIN=  -30


 parallel 3D FFT for wavefunctions:
    minimum data exchange during FFTs selected (reduces bandwidth)
 parallel 3D FFT for charge:
    minimum data exchange during FFTs selected (reduces bandwidth)


 total amount of memory used by VASP MPI-rank0   185481. kBytes
=======================================================================

   base                                    :      30000. kBytes
   nonl-proj                               :      33399. kBytes
   fftplans                                :      40957. kBytes
   grid                                    :      31575. kBytes
   one-center                              :         18. kBytes
   wavefun                                 :      49532. kBytes

     INWAV:  cpu time      9.0604: real time      9.0633
 Broyden mixing: mesh for mixing (old mesh)
   NGX = 83   NGY = 83   NGZ = 61
  (NGX  =336   NGY  =336   NGZ  =240)
  gives a total of 420229 points

 initial charge density was supplied:
 number of electron     365.9999999 magnetization 
 keeping initial charge density in first step


--------------------------------------------------------------------------------------------------------


 Maximum index for augmentation-charges        11205 (set IRDMAX)


--------------------------------------------------------------------------------------------------------


 First call to EWALD:  gamma=   0.135
 Maximum number of real-space cells   3x   3x   3
 Maximum number of reciprocal cells   3x   3x   2

    FEWALD:  cpu time      0.0174: real time      0.0177


--------------------------------------- Ionic step        1  -------------------------------------------




--------------------------------------- Iteration      1(   1)  ---------------------------------------


    POTLOK:  cpu time      0.7222: real time      0.7225
    SETDIJ:  cpu time      1.2630: real time      1.2644
    EDDIAG:  cpu time     19.7390: real time     19.7553
     EDDAV:  cpu time     92.1967: real time     92.2725
       DOS:  cpu time      0.0099: real time      0.0100
    CHARGE:  cpu time      8.8106: real time      8.8160
    MIXING:  cpu time      0.0231: real time      0.0232
    --------------------------------------------
      LOOP:  cpu time    122.7645: real time    122.8640

 eigenvalue-minimisations  :  3744
 total energy-change (2. order) :-0.9434129E+03  (-0.1049926E+01)
 number of electron     365.9999999 magnetization 
 augmentation part      -20.3587202 magnetization 

 Broyden mixing:
  rms(total) = 0.11870E+01    rms(broyden)= 0.49514E+02
  rms(prec ) = 0.12905E+01
  weight for this iteration     100.00
  WARNING: grid for Broyden might be to small

 Free energy of the ion-electron system (eV)
  ---------------------------------------------------
  alpha Z        PSCENC =       125.39962055
  Ewald energy   TEWEN  =     -7003.33301287
  -Hartree energ DENC   =     -3398.49693257
  -exchange      EXHF   =         0.00000000
  -V(xc)+E(xc)   XCENC  =      -443.81929061
  PAW double counting   =     32644.22823493   -31736.37285877
  entropy T*S    EENTRO =        -0.03203287
  eigenvalues    EBANDS =      -535.04537445
  atomic energy  EATOM  =      9404.05877982
  Solvation  Ediel_sol  =         0.00000000
  ---------------------------------------------------
  free energy    TOTEN  =      -943.41286683 eV

  energy without entropy =     -943.38083396  energy(sigma->0) =     -943.39685040


--------------------------------------------------------------------------------------------------------




--------------------------------------- Iteration      1(   2)  ---------------------------------------


    POTLOK:  cpu time      0.7167: real time      0.7223
    SETDIJ:  cpu time      1.2544: real time      1.2550
    EDDIAG:  cpu time     19.8049: real time     19.8215
     EDDAV:  cpu time     91.6903: real time     91.7677
       DOS:  cpu time      0.0041: real time      0.0041
    CHARGE:  cpu time      8.7477: real time      8.7550
    MIXING:  cpu time      0.0179: real time      0.0179
    --------------------------------------------
      LOOP:  cpu time    122.2360: real time    122.3433

 eigenvalue-minimisations  :  3712
 total energy-change (2. order) : 0.6553340E+02  (-0.9583201E+00)
 number of electron     365.9999999 magnetization 
 augmentation part      -20.2738926 magnetization 

 Broyden mixing:
  rms(total) = 0.79214E+00    rms(broyden)= 0.28487E+02
  rms(prec ) = 0.84516E+00
  weight for this iteration     100.00
  WARNING: grid for Broyden might be to small

 eigenvalues of (default mixing * dielectric matrix)
  average eigenvalue GAMMA=   0.6348
  0.6348

 Free energy of the ion-electron system (eV)
  ---------------------------------------------------
  alpha Z        PSCENC =       125.39962055
  Ewald energy   TEWEN  =     -7003.33301287
  -Hartree energ DENC   =     -3389.79806307
  -exchange      EXHF   =         0.00000000
  -V(xc)+E(xc)   XCENC  =      -433.57503458
  PAW double counting   =     39222.88959308   -38314.79888085
  entropy T*S    EENTRO =        -0.02484714
  eigenvalues    EBANDS =      -488.69762626
  atomic energy  EATOM  =      9404.05877982
  Solvation  Ediel_sol  =         0.00000000
  ---------------------------------------------------
  free energy    TOTEN  =      -877.87947132 eV

  energy without entropy =     -877.85462418  energy(sigma->0) =     -877.86704775


--------------------------------------------------------------------------------------------------------




--------------------------------------- Iteration      1(   3)  ---------------------------------------


    POTLOK:  cpu time      0.7029: real time      0.7208
    SETDIJ:  cpu time      1.2535: real time      1.2541
    EDDIAG:  cpu time     19.8657: real time     19.8827
     EDDAV:  cpu time     91.8282: real time     91.9127
       DOS:  cpu time      0.0039: real time      0.0039
    CHARGE:  cpu time      8.8123: real time      8.8195
    MIXING:  cpu time      0.0145: real time      0.0145
    --------------------------------------------
      LOOP:  cpu time    122.4810: real time    122.6082

 eigenvalue-minimisations  :  3712
 total energy-change (2. order) :-0.3477079E+01  (-0.7866069E+00)
 number of electron     365.9999999 magnetization 
 augmentation part      -20.2068897 magnetization 

 Broyden mixing:
  rms(total) = 0.46780E+00    rms(broyden)= 0.20844E+02
  rms(prec ) = 0.51593E+00
  weight for this iteration     100.00
  WARNING: grid for Broyden might be to small

 eigenvalues of (default mixing * dielectric matrix)
  average eigenvalue GAMMA=   0.7046
  0.7851  0.6242

 Free energy of the ion-electron system (eV)
  ---------------------------------------------------
  alpha Z        PSCENC =       125.39962055
  Ewald energy   TEWEN  =     -7003.33301287
  -Hartree energ DENC   =     -3392.79812525
  -exchange      EXHF   =         0.00000000
  -V(xc)+E(xc)   XCENC  =      -438.89699397
  PAW double counting   =     44534.27730325   -43626.27632477
  entropy T*S    EENTRO =        -0.03347234
  eigenvalues    EBANDS =      -483.75432499
  atomic energy  EATOM  =      9404.05877982
  Solvation  Ediel_sol  =         0.00000000
  ---------------------------------------------------
  free energy    TOTEN  =      -881.35655056 eV

  energy without entropy =     -881.32307822  energy(sigma->0) =     -881.33981439


--------------------------------------------------------------------------------------------------------




--------------------------------------- Iteration      1(   4)  ---------------------------------------


    POTLOK:  cpu time      0.7009: real time      0.7185
    SETDIJ:  cpu time      1.2559: real time      1.2565
    EDDIAG:  cpu time     19.8595: real time     19.8769
     EDDAV:  cpu time     93.7714: real time     93.8546
       DOS:  cpu time      0.0035: real time      0.0035
    CHARGE:  cpu time      8.9065: real time      8.9146
    MIXING:  cpu time      0.0149: real time      0.0149
    --------------------------------------------
      LOOP:  cpu time    124.5126: real time    124.6394

 eigenvalue-minimisations  :  3840
 total energy-change (2. order) :-0.3755988E+00  (-0.8450528E-01)
 number of electron     365.9999999 magnetization 
 augmentation part      -20.1929395 magnetization 

 Broyden mixing:
  rms(total) = 0.36995E-01    rms(broyden)= 0.20107E+01
  rms(prec ) = 0.46596E-01
  weight for this iteration     100.00
  WARNING: grid for Broyden might be to small

 eigenvalues of (default mixing * dielectric matrix)
  average eigenvalue GAMMA=   0.9867
  1.6414  0.6965  0.6223

 Free energy of the ion-electron system (eV)
  ---------------------------------------------------
  alpha Z        PSCENC =       125.39962055
  Ewald energy   TEWEN  =     -7003.33301287
  -Hartree energ DENC   =     -3398.30906435
  -exchange      EXHF   =         0.00000000
  -V(xc)+E(xc)   XCENC  =      -439.59460115
  PAW double counting   =     52568.47792714   -51660.53925788
  entropy T*S    EENTRO =        -0.02919677
  eigenvalues    EBANDS =      -477.86334381
  atomic energy  EATOM  =      9404.05877982
  Solvation  Ediel_sol  =         0.00000000
  ---------------------------------------------------
  free energy    TOTEN  =      -881.73214931 eV

  energy without entropy =     -881.70295254  energy(sigma->0) =     -881.71755093


--------------------------------------------------------------------------------------------------------




--------------------------------------- Iteration      1(   5)  ---------------------------------------


    POTLOK:  cpu time      0.7045: real time      0.7213
    SETDIJ:  cpu time      1.2531: real time      1.2537
    EDDIAG:  cpu time     19.9412: real time     19.9564
     EDDAV:  cpu time    104.8390: real time    104.9301
       DOS:  cpu time      0.0036: real time      0.0036
    CHARGE:  cpu time      8.8972: real time      8.9041
    MIXING:  cpu time      0.0147: real time      0.0147
    --------------------------------------------
      LOOP:  cpu time    135.6533: real time    135.7838

 eigenvalue-minimisations  :  4608
 total energy-change (2. order) :-0.3986626E-01  (-0.5681207E-02)
 number of electron     365.9999999 magnetization 
 augmentation part      -20.1952237 magnetization 

 Broyden mixing:
  rms(total) = 0.26510E-01    rms(broyden)= 0.60298E+00
  rms(prec ) = 0.30521E-01
  weight for this iteration     100.00
  WARNING: grid for Broyden might be to small

 eigenvalues of (default mixing * dielectric matrix)
  average eigenvalue GAMMA=   1.1688
  2.4833  0.9200  0.6378  0.6342

 Free energy of the ion-electron system (eV)
  ---------------------------------------------------
  alpha Z        PSCENC =       125.39962055
  Ewald energy   TEWEN  =     -7003.33301287
  -Hartree energ DENC   =     -3398.49400816
  -exchange      EXHF   =         0.00000000
  -V(xc)+E(xc)   XCENC  =      -440.75318209
  PAW double counting   =     52216.29343075   -51308.32237372
  entropy T*S    EENTRO =        -0.03028807
  eigenvalues    EBANDS =      -476.59098179
  atomic energy  EATOM  =      9404.05877982
  Solvation  Ediel_sol  =         0.00000000
  ---------------------------------------------------
  free energy    TOTEN  =      -881.77201558 eV

  energy without entropy =     -881.74172751  energy(sigma->0) =     -881.75687154


--------------------------------------------------------------------------------------------------------




--------------------------------------- Iteration      1(   6)  ---------------------------------------


    POTLOK:  cpu time      0.6993: real time      0.7185
    SETDIJ:  cpu time      1.2553: real time      1.2559
    EDDIAG:  cpu time     19.9341: real time     19.9516
     EDDAV:  cpu time     97.9965: real time     98.0822
       DOS:  cpu time      0.0034: real time      0.0035
    CHARGE:  cpu time      8.7751: real time      8.7824
    MIXING:  cpu time      0.0148: real time      0.0149
    --------------------------------------------
      LOOP:  cpu time    128.6787: real time    128.8089

 eigenvalue-minimisations  :  4128
 total energy-change (2. order) :-0.7187192E-02  (-0.1222766E-02)
 number of electron     365.9999999 magnetization 
 augmentation part      -20.1939371 magnetization 

 Broyden mixing:
  rms(total) = 0.13068E-01    rms(broyden)= 0.57157E+00
  rms(prec ) = 0.15850E-01
  weight for this iteration     100.00
  WARNING: grid for Broyden might be to small

 eigenvalues of (default mixing * dielectric matrix)
  average eigenvalue GAMMA=   1.1394
  2.5385  1.1003  0.7924  0.6330  0.6330

 Free energy of the ion-electron system (eV)
  ---------------------------------------------------
  alpha Z        PSCENC =       125.39962055
  Ewald energy   TEWEN  =     -7003.33301287
  -Hartree energ DENC   =     -3399.06646350
  -exchange      EXHF   =         0.00000000
  -V(xc)+E(xc)   XCENC  =      -440.92634737
  PAW double counting   =     52141.79328153   -51233.79848395
  entropy T*S    EENTRO =        -0.02960990
  eigenvalues    EBANDS =      -475.87696709
  atomic energy  EATOM  =      9404.05877982
  Solvation  Ediel_sol  =         0.00000000
  ---------------------------------------------------
  free energy    TOTEN  =      -881.77920277 eV

  energy without entropy =     -881.74959287  energy(sigma->0) =     -881.76439782


--------------------------------------------------------------------------------------------------------




--------------------------------------- Iteration      1(   7)  ---------------------------------------


    POTLOK:  cpu time      0.7847: real time      0.8028
    SETDIJ:  cpu time      1.2576: real time      1.2580
    EDDIAG:  cpu time     19.9310: real time     19.9483
     EDDAV:  cpu time     98.1236: real time     98.2064
       DOS:  cpu time      0.0033: real time      0.0033
    CHARGE:  cpu time      9.0557: real time      9.0631
    MIXING:  cpu time      0.0150: real time      0.0150
    --------------------------------------------
      LOOP:  cpu time    129.1709: real time    129.2969

 eigenvalue-minimisations  :  4144
 total energy-change (2. order) :-0.1015847E-02  (-0.4392951E-03)
 number of electron     365.9999999 magnetization 
 augmentation part      -20.1927756 magnetization 

 Broyden mixing:
  rms(total) = 0.34670E-02    rms(broyden)= 0.15426E+00
  rms(prec ) = 0.47050E-02
  weight for this iteration     100.00
  WARNING: grid for Broyden might be to small

 eigenvalues of (default mixing * dielectric matrix)
  average eigenvalue GAMMA=   1.1337
  2.5666  1.3946  0.9197  0.6839  0.6315  0.6060

 Free energy of the ion-electron system (eV)
  ---------------------------------------------------
  alpha Z        PSCENC =       125.39962055
  Ewald energy   TEWEN  =     -7003.33301287
  -Hartree energ DENC   =     -3399.46016668
  -exchange      EXHF   =         0.00000000
  -V(xc)+E(xc)   XCENC  =      -440.86961963
  PAW double counting   =     52163.49966284   -51255.48955269
  entropy T*S    EENTRO =        -0.03005373
  eigenvalues    EBANDS =      -475.55587623
  atomic energy  EATOM  =      9404.05877982
  Solvation  Ediel_sol  =         0.00000000
  ---------------------------------------------------
  free energy    TOTEN  =      -881.78021862 eV

  energy without entropy =     -881.75016488  energy(sigma->0) =     -881.76519175


--------------------------------------------------------------------------------------------------------




--------------------------------------- Iteration      1(   8)  ---------------------------------------


    POTLOK:  cpu time      0.7046: real time      0.7234
    SETDIJ:  cpu time      1.2519: real time      1.2524
    EDDIAG:  cpu time     19.9374: real time     19.9552
     EDDAV:  cpu time    101.2948: real time    101.3859
       DOS:  cpu time      0.0040: real time      0.0040
    CHARGE:  cpu time      8.7860: real time      8.7935
    MIXING:  cpu time      0.0153: real time      0.0153
    --------------------------------------------
      LOOP:  cpu time    131.9940: real time    132.1297

 eigenvalue-minimisations  :  4360
 total energy-change (2. order) :-0.9619649E-04  (-0.7306193E-04)
 number of electron     365.9999999 magnetization 
 augmentation part      -20.1932154 magnetization 

 Broyden mixing:
  rms(total) = 0.21265E-02    rms(broyden)= 0.71301E-01
  rms(prec ) = 0.26667E-02
  weight for this iteration     100.00
  WARNING: grid for Broyden might be to small

 eigenvalues of (default mixing * dielectric matrix)
  average eigenvalue GAMMA=   1.2119
  2.6354  2.0899  1.0452  0.8324  0.6516  0.6328  0.5962

 Free energy of the ion-electron system (eV)
  ---------------------------------------------------
  alpha Z        PSCENC =       125.39962055
  Ewald energy   TEWEN  =     -7003.33301287
  -Hartree energ DENC   =     -3399.43277476
  -exchange      EXHF   =         0.00000000
  -V(xc)+E(xc)   XCENC  =      -440.95303487
  PAW double counting   =     52188.47229426   -51280.46076554
  entropy T*S    EENTRO =        -0.02991448
  eigenvalues    EBANDS =      -475.50150693
  atomic energy  EATOM  =      9404.05877982
  Solvation  Ediel_sol  =         0.00000000
  ---------------------------------------------------
  free energy    TOTEN  =      -881.78031481 eV

  energy without entropy =     -881.75040034  energy(sigma->0) =     -881.76535757


--------------------------------------------------------------------------------------------------------




--------------------------------------- Iteration      1(   9)  ---------------------------------------


    POTLOK:  cpu time      0.7043: real time      0.7219
    SETDIJ:  cpu time      1.2541: real time      1.2548
    EDDIAG:  cpu time     19.9161: real time     19.9333
     EDDAV:  cpu time     97.6204: real time     97.7065
       DOS:  cpu time      0.0050: real time      0.0050
    CHARGE:  cpu time      8.7120: real time      8.7200
    MIXING:  cpu time      0.0153: real time      0.0153
    --------------------------------------------
      LOOP:  cpu time    128.2275: real time    128.3570

 eigenvalue-minimisations  :  4104
 total energy-change (2. order) :-0.5916058E-04  (-0.2731477E-04)
 number of electron     365.9999999 magnetization 
 augmentation part      -20.1930947 magnetization 

 Broyden mixing:
  rms(total) = 0.93814E-03    rms(broyden)= 0.41168E-01
  rms(prec ) = 0.13052E-02
  weight for this iteration     100.00
  WARNING: grid for Broyden might be to small

 eigenvalues of (default mixing * dielectric matrix)
  average eigenvalue GAMMA=   1.2690
  2.8316  2.5261  1.1874  0.9873  0.7622  0.6454  0.6280  0.5839

 Free energy of the ion-electron system (eV)
  ---------------------------------------------------
  alpha Z        PSCENC =       125.39962055
  Ewald energy   TEWEN  =     -7003.33301287
  -Hartree energ DENC   =     -3399.41846062
  -exchange      EXHF   =         0.00000000
  -V(xc)+E(xc)   XCENC  =      -440.95974429
  PAW double counting   =     52178.87186371   -51270.85840416
  entropy T*S    EENTRO =        -0.02999532
  eigenvalues    EBANDS =      -475.51102080
  atomic energy  EATOM  =      9404.05877982
  Solvation  Ediel_sol  =         0.00000000
  ---------------------------------------------------
  free energy    TOTEN  =      -881.78037397 eV

  energy without entropy =     -881.75037865  energy(sigma->0) =     -881.76537631


--------------------------------------------------------------------------------------------------------




--------------------------------------- Iteration      1(  10)  ---------------------------------------


    POTLOK:  cpu time      0.7011: real time      0.7217
    SETDIJ:  cpu time      1.2534: real time      1.2539
    EDDIAG:  cpu time     19.9416: real time     19.9587
     EDDAV:  cpu time     98.1923: real time     98.2762
       DOS:  cpu time      0.0058: real time      0.0058
    CHARGE:  cpu time      8.9042: real time      8.9121
    MIXING:  cpu time      0.0160: real time      0.0160
    --------------------------------------------
      LOOP:  cpu time    129.0143: real time    129.1443

 eigenvalue-minimisations  :  4144
 total energy-change (2. order) :-0.2278412E-04  (-0.8431479E-05)
 number of electron     365.9999999 magnetization 
 augmentation part      -20.1931512 magnetization 

 Broyden mixing:
  rms(total) = 0.53697E-03    rms(broyden)= 0.21936E-01
  rms(prec ) = 0.79625E-03
  weight for this iteration     100.00
  WARNING: grid for Broyden might be to small

 eigenvalues of (default mixing * dielectric matrix)
  average eigenvalue GAMMA=   1.3102
  3.2416  2.6013  1.5090  1.0428  0.8878  0.6904  0.6340  0.6215  0.5637

 Free energy of the ion-electron system (eV)
  ---------------------------------------------------
  alpha Z        PSCENC =       125.39962055
  Ewald energy   TEWEN  =     -7003.33301287
  -Hartree energ DENC   =     -3399.38479894
  -exchange      EXHF   =         0.00000000
  -V(xc)+E(xc)   XCENC  =      -440.97408567
  PAW double counting   =     52174.92079962   -51266.90660943
  entropy T*S    EENTRO =        -0.02997596
  eigenvalues    EBANDS =      -475.53111389
  atomic energy  EATOM  =      9404.05877982
  Solvation  Ediel_sol  =         0.00000000
  ---------------------------------------------------
  free energy    TOTEN  =      -881.78039676 eV

  energy without entropy =     -881.75042080  energy(sigma->0) =     -881.76540878


--------------------------------------------------------------------------------------------------------




--------------------------------------- Iteration      1(  11)  ---------------------------------------


    POTLOK:  cpu time      0.7068: real time      0.7164
    SETDIJ:  cpu time      1.2526: real time      1.2535
    EDDIAG:  cpu time     19.9629: real time     19.9800
     EDDAV:  cpu time     96.8166: real time     96.8999
       DOS:  cpu time      0.0059: real time      0.0059
    CHARGE:  cpu time      8.8857: real time      8.8935
    MIXING:  cpu time      0.0162: real time      0.0162
    --------------------------------------------
      LOOP:  cpu time    127.6467: real time    127.7654

 eigenvalue-minimisations  :  4040
 total energy-change (2. order) :-0.1338137E-04  (-0.3464352E-05)
 number of electron     365.9999999 magnetization 
 augmentation part      -20.1932227 magnetization 

 Broyden mixing:
  rms(total) = 0.24385E-03    rms(broyden)= 0.15615E-01
  rms(prec ) = 0.45081E-03
  weight for this iteration     100.00
  WARNING: grid for Broyden might be to small

 eigenvalues of (default mixing * dielectric matrix)
  average eigenvalue GAMMA=   1.3019
  3.4373  2.6088  1.6298  1.0829  1.0048  0.7811  0.6677  0.6214  0.6214  0.5635

 Free energy of the ion-electron system (eV)
  ---------------------------------------------------
  alpha Z        PSCENC =       125.39962055
  Ewald energy   TEWEN  =     -7003.33301287
  -Hartree energ DENC   =     -3399.32907290
  -exchange      EXHF   =         0.00000000
  -V(xc)+E(xc)   XCENC  =      -440.98617486
  PAW double counting   =     52176.51073641   -51268.49694006
  entropy T*S    EENTRO =        -0.02995256
  eigenvalues    EBANDS =      -475.57439367
  atomic energy  EATOM  =      9404.05877982
  Solvation  Ediel_sol  =         0.00000000
  ---------------------------------------------------
  free energy    TOTEN  =      -881.78041014 eV

  energy without entropy =     -881.75045758  energy(sigma->0) =     -881.76543386


--------------------------------------------------------------------------------------------------------




--------------------------------------- Iteration      1(  12)  ---------------------------------------


    POTLOK:  cpu time      0.7029: real time      0.7194
    SETDIJ:  cpu time      1.2540: real time      1.2545
    EDDIAG:  cpu time     19.9372: real time     19.9540
     EDDAV:  cpu time     98.1497: real time     98.2313
       DOS:  cpu time      0.0041: real time      0.0041
    CHARGE:  cpu time      8.7943: real time      8.8017
    MIXING:  cpu time      0.0162: real time      0.0162
    --------------------------------------------
      LOOP:  cpu time    128.8583: real time    128.9811

 eigenvalue-minimisations  :  4152
 total energy-change (2. order) :-0.3780544E-05  (-0.1130885E-05)
 number of electron     365.9999999 magnetization 
 augmentation part      -20.1932576 magnetization 

 Broyden mixing:
  rms(total) = 0.16338E-03    rms(broyden)= 0.55083E-02
  rms(prec ) = 0.28983E-03
  weight for this iteration     100.00
  WARNING: grid for Broyden might be to small

 eigenvalues of (default mixing * dielectric matrix)
  average eigenvalue GAMMA=   1.3336
  3.6235  2.5959  1.9104  1.3664  1.0958  0.9094  0.7287  0.6459  0.6254  0.6099
  0.5585

 Free energy of the ion-electron system (eV)
  ---------------------------------------------------
  alpha Z        PSCENC =       125.39962055
  Ewald energy   TEWEN  =     -7003.33301287
  -Hartree energ DENC   =     -3399.29990501
  -exchange      EXHF   =         0.00000000
  -V(xc)+E(xc)   XCENC  =      -440.99268139
  PAW double counting   =     52176.83870041   -51268.82516792
  entropy T*S    EENTRO =        -0.02999285
  eigenvalues    EBANDS =      -475.59675466
  atomic energy  EATOM  =      9404.05877982
  Solvation  Ediel_sol  =         0.00000000
  ---------------------------------------------------
  free energy    TOTEN  =      -881.78041392 eV

  energy without entropy =     -881.75042107  energy(sigma->0) =     -881.76541749


--------------------------------------------------------------------------------------------------------




--------------------------------------- Iteration      1(  13)  ---------------------------------------


    POTLOK:  cpu time      0.6998: real time      0.7191
    SETDIJ:  cpu time      1.2528: real time      1.2534
    EDDIAG:  cpu time     19.8771: real time     19.8945
     EDDAV:  cpu time     81.6931: real time     81.7675
       DOS:  cpu time      0.0035: real time      0.0035
    CHARGE:  cpu time      8.6352: real time      8.6426
    MIXING:  cpu time      0.0167: real time      0.0167
    --------------------------------------------
      LOOP:  cpu time    112.1782: real time    112.2972

 eigenvalue-minimisations  :  2984
 total energy-change (2. order) :-0.2918234E-05  (-0.2992194E-06)
 number of electron     365.9999999 magnetization 
 augmentation part      -20.1932661 magnetization 

 Broyden mixing:
  rms(total) = 0.10122E-03    rms(broyden)= 0.26125E-02
  rms(prec ) = 0.16765E-03
  weight for this iteration     100.00
  WARNING: grid for Broyden might be to small

 eigenvalues of (default mixing * dielectric matrix)
  average eigenvalue GAMMA=   1.3490
  3.7862  2.5034  2.5034  1.4654  1.0884  0.9460  0.8050  0.6869  0.6401  0.6260
  0.5868  0.5504

 Free energy of the ion-electron system (eV)
  ---------------------------------------------------
  alpha Z        PSCENC =       125.39962055
  Ewald energy   TEWEN  =     -7003.33301287
  -Hartree energ DENC   =     -3399.27903804
  -exchange      EXHF   =         0.00000000
  -V(xc)+E(xc)   XCENC  =      -440.99498910
  PAW double counting   =     52175.93894396   -51267.92561190
  entropy T*S    EENTRO =        -0.02996992
  eigenvalues    EBANDS =      -475.61513935
  atomic energy  EATOM  =      9404.05877982
  Solvation  Ediel_sol  =         0.00000000
  ---------------------------------------------------
  free energy    TOTEN  =      -881.78041684 eV

  energy without entropy =     -881.75044692  energy(sigma->0) =     -881.76543188


--------------------------------------------------------------------------------------------------------




--------------------------------------- Iteration      1(  14)  ---------------------------------------


    POTLOK:  cpu time      0.7200: real time      0.7201
    SETDIJ:  cpu time      1.2548: real time      1.2557
    EDDIAG:  cpu time     19.8787: real time     19.8955
     EDDAV:  cpu time     78.4930: real time     78.5602
       DOS:  cpu time      0.0058: real time      0.0058
    CHARGE:  cpu time      8.6964: real time      8.7034
    MIXING:  cpu time      0.0167: real time      0.0167
    --------------------------------------------
      LOOP:  cpu time    109.0653: real time    109.1574

 eigenvalue-minimisations  :  2752
 total energy-change (2. order) :-0.1275446E-05  (-0.1462253E-06)
 number of electron     365.9999999 magnetization 
 augmentation part      -20.1932590 magnetization 

 Broyden mixing:
  rms(total) = 0.62620E-04    rms(broyden)= 0.23676E-02
  rms(prec ) = 0.94023E-04
  weight for this iteration     100.00
  WARNING: grid for Broyden might be to small

 eigenvalues of (default mixing * dielectric matrix)
  average eigenvalue GAMMA=   1.3557
  3.8469  2.6120  2.6120  1.3630  1.3630  1.0840  0.8971  0.7738  0.6775  0.6370
  0.6260  0.5800  0.5515

 Free energy of the ion-electron system (eV)
  ---------------------------------------------------
  alpha Z        PSCENC =       125.39962055
  Ewald energy   TEWEN  =     -7003.33301287
  -Hartree energ DENC   =     -3399.26667644
  -exchange      EXHF   =         0.00000000
  -V(xc)+E(xc)   XCENC  =      -440.99417652
  PAW double counting   =     52176.25010417   -51268.23687022
  entropy T*S    EENTRO =        -0.02997689
  eigenvalues    EBANDS =      -475.62820972
  atomic energy  EATOM  =      9404.05877982
  Solvation  Ediel_sol  =         0.00000000
  ---------------------------------------------------
  free energy    TOTEN  =      -881.78041811 eV

  energy without entropy =     -881.75044122  energy(sigma->0) =     -881.76542967


--------------------------------------------------------------------------------------------------------




--------------------------------------- Iteration      1(  15)  ---------------------------------------


    POTLOK:  cpu time      0.7051: real time      0.7234
    SETDIJ:  cpu time      1.2542: real time      1.2547
    EDDIAG:  cpu time     19.9355: real time     19.9537
     EDDAV:  cpu time     76.1642: real time     76.2307
       DOS:  cpu time      0.0032: real time      0.0032
    --------------------------------------------
      LOOP:  cpu time     98.0628: real time     98.1662

 eigenvalue-minimisations  :  2592
 total energy-change (2. order) :-0.3542591E-06  (-0.3846588E-07)
 number of electron     365.9999999 magnetization 
 augmentation part      -20.1932590 magnetization 

 Free energy of the ion-electron system (eV)
  ---------------------------------------------------
  alpha Z        PSCENC =       125.39962055
  Ewald energy   TEWEN  =     -7003.33301287
  -Hartree energ DENC   =     -3399.25884349
[...]
   -.451E+00 0.967E+02 0.635E+01   0.169E+01 -.941E+02 -.629E+01   -.184E+01 -.273E+01 0.928E+00   0.409E-04 0.102E-03 0.749E-05
   0.382E+00 0.807E+01 -.876E+01   -.104E+01 -.647E+01 0.730E+01   0.292E+00 -.857E+00 0.139E+01   -.249E-04 -.100E-04 0.308E-04
   -.732E+02 -.239E+02 -.198E+02   0.710E+02 0.229E+02 0.170E+02   0.191E+01 0.119E+01 0.373E+01   -.266E-04 -.324E-04 0.196E-04
   0.559E+02 0.999E+02 -.215E+02   -.550E+02 -.976E+02 0.194E+02   0.320E+00 -.287E+01 0.269E+01   0.542E-04 0.166E-03 0.133E-03
   0.158E+02 -.162E+01 -.374E+01   -.151E+02 0.101E+01 0.314E+01   -.924E+00 0.303E+00 0.105E+01   0.450E-04 -.113E-04 -.120E-04
   -.370E+02 -.942E+02 -.381E+02   0.368E+02 0.944E+02 0.361E+02   0.244E-01 -.673E+00 0.893E+00   -.193E-05 -.160E-03 -.105E-04
   0.685E+02 0.644E+02 0.476E+01   -.713E+02 -.645E+02 -.768E+01   0.880E+00 0.923E+00 0.233E+01   0.301E-03 0.153E-03 0.114E-03
   -.416E+02 -.317E+02 0.123E+02   0.398E+02 0.320E+02 -.129E+02   0.143E+01 -.161E+01 0.880E+00   0.382E-04 -.185E-04 -.383E-04
   0.279E+01 0.685E+02 -.133E+02   -.390E+01 -.687E+02 0.132E+02   0.132E+01 0.514E+00 0.122E+01   0.393E-04 0.564E-04 0.185E-04
   0.131E+02 -.122E+02 -.170E+02   -.101E+02 0.110E+02 0.167E+02   -.200E+01 0.112E+01 0.106E+01   -.210E-04 0.139E-05 -.199E-05
   0.829E+02 -.183E+02 -.311E+02   -.803E+02 0.179E+02 0.299E+02   -.175E+01 -.775E+00 0.249E+01   0.876E-04 -.580E-04 0.907E-04
   -.724E+02 0.515E+02 0.255E+01   0.707E+02 -.510E+02 -.327E+01   0.180E+01 -.168E+00 0.906E-01   -.523E-04 0.722E-04 0.758E-05
   -.473E+02 0.665E+01 -.132E+02   0.481E+02 -.497E+01 0.138E+02   -.447E+00 -.184E+01 -.160E+01   -.535E-04 -.375E-04 0.610E-04
   0.109E+02 -.160E+02 0.103E+02   -.111E+02 0.157E+02 -.117E+02   0.242E-01 -.768E+00 0.181E+01   -.150E-04 -.404E-04 0.446E-05
   0.610E+02 0.213E+02 0.770E+01   -.606E+02 -.241E+02 -.704E+01   0.666E+00 0.225E+01 -.118E+01   0.113E-04 0.277E-04 -.114E-04
   -.240E+02 -.214E+02 -.590E+01   0.255E+02 0.207E+02 0.588E+01   -.145E+01 0.113E+01 0.371E+00   -.241E-04 0.795E-05 0.432E-04
   -.229E+02 -.889E+02 -.421E+02   0.239E+02 0.873E+02 0.401E+02   -.156E+01 0.137E+01 0.191E+01   -.348E-05 -.322E-04 0.120E-04
   -.813E+01 -.105E+01 -.582E+01   0.789E+01 0.855E-01 0.501E+01   -.172E+00 -.463E-01 0.713E+00   0.148E-04 -.603E-05 0.249E-04
   0.206E+01 0.989E+01 -.269E+00   -.307E+01 -.124E+02 -.428E+00   0.109E+01 0.321E+01 0.130E+01   0.913E-05 0.959E-05 -.380E-05
   0.305E+02 0.535E+02 -.193E+02   -.301E+02 -.523E+02 0.169E+02   -.306E+00 -.133E+01 0.257E+01   -.358E-05 -.204E-04 0.909E-05
   -.161E+02 -.374E+02 0.288E+02   0.151E+02 0.373E+02 -.284E+02   0.708E+00 -.174E+00 -.806E+00   -.138E-04 0.552E-05 -.388E-04
   0.110E+02 0.276E+02 -.190E+02   -.127E+02 -.263E+02 0.189E+02   0.123E+01 -.260E+01 0.215E+00   -.263E-04 -.174E-05 -.200E-04
   0.635E+01 -.160E+02 0.359E+01   -.510E+01 0.158E+02 -.359E+01   -.173E+01 0.503E+00 0.799E-01   0.425E-04 -.240E-04 -.253E-04
   0.334E+02 -.260E+02 -.717E+01   -.318E+02 0.262E+02 0.748E+01   -.195E+01 -.116E+00 -.103E+01   0.171E-04 -.445E-04 0.503E-04
   0.145E+02 0.322E+02 0.101E+02   -.146E+02 -.299E+02 -.984E+01   0.618E+00 -.261E+01 -.434E+00   -.768E-06 -.690E-05 0.603E-07
   0.167E+01 0.235E+02 -.699E+01   -.254E+01 -.225E+02 0.416E+01   0.397E+00 -.105E+01 0.199E+01   -.390E-04 0.172E-04 -.227E-04
   0.237E+01 -.154E+02 -.289E+01   -.323E+01 0.156E+02 0.161E+01   0.114E+01 -.826E+00 0.522E+00   -.209E-04 0.419E-04 0.133E-04
   0.380E+01 0.690E+01 0.957E+01   -.383E+01 -.651E+01 -.921E+01   -.115E+01 0.258E+00 -.309E+00   -.185E-04 0.402E-04 0.141E-04
   -.132E+03 0.754E+01 -.318E+02   0.128E+03 -.846E+01 0.307E+02   0.392E+01 0.653E+00 0.127E+01   -.137E-03 -.111E-04 0.371E-04
   -.491E+02 0.564E+02 -.141E+02   0.508E+02 -.569E+02 0.143E+02   -.146E+01 0.382E+00 -.585E+00   -.214E-04 0.132E-03 -.728E-05
   0.258E+02 0.129E+02 0.639E+01   -.257E+02 -.106E+02 -.584E+01   -.225E+00 -.234E+01 -.874E+00   -.864E-05 0.781E-05 -.648E-05
   0.661E+02 -.931E+02 0.196E+02   -.650E+02 0.911E+02 -.180E+02   -.120E+00 0.215E+01 -.256E+01   0.128E-03 -.117E-03 -.481E-04
   -.104E+02 -.149E+02 -.697E+01   0.722E+01 0.123E+02 0.681E+01   0.289E+01 0.343E+01 -.413E+00   0.476E-04 0.478E-05 0.405E-05
   0.312E+02 0.329E+01 -.523E+00   -.306E+02 -.453E+01 -.405E+00   -.120E+01 0.295E+01 0.648E+00   0.941E-05 -.287E-05 0.775E-05
   -.743E+02 0.521E+02 0.297E+01   0.721E+02 -.537E+02 -.194E+01   0.457E+01 0.260E+01 -.529E+00   -.639E-04 0.549E-04 -.223E-04
   0.723E+02 -.195E+01 -.148E+00   -.726E+02 0.225E+01 0.727E+00   0.863E+00 -.140E+01 -.184E+01   0.160E-03 0.341E-04 0.534E-04
   -.786E+02 -.479E+02 -.269E+02   0.770E+02 0.459E+02 0.260E+02   0.190E+01 0.161E+01 0.172E+01   -.807E-04 -.673E-04 -.179E-04
   0.196E+02 -.102E+03 0.152E+02   -.213E+02 0.992E+02 -.152E+02   0.226E+01 0.232E+01 0.385E+00   0.921E-04 -.798E-04 -.771E-05
   0.482E+02 0.541E+02 0.160E+02   -.452E+02 -.554E+02 -.159E+02   -.257E+01 0.283E+01 -.107E+01   0.441E-04 0.135E-03 0.267E-04
   -.278E+01 0.401E+00 0.140E+02   0.186E+01 -.114E+01 -.129E+02   0.108E+01 0.695E+00 -.378E+00   -.260E-04 0.708E-05 -.247E-04
   -.389E+02 0.109E+03 -.135E+02   0.390E+02 -.112E+03 0.145E+02   0.474E+00 0.343E+01 -.918E+00   -.619E-05 0.243E-03 -.101E-03
   -.157E+02 -.138E+02 -.928E+01   0.149E+02 0.142E+02 0.798E+01   0.209E+01 -.491E+00 0.865E+00   0.492E-05 -.148E-04 0.476E-04
 -----------------------------------------------------------------------------------------------
   -.143E+02 -.663E+01 -.916E+01   -.409E-13 0.226E-12 0.409E-13   0.143E+02 0.661E+01 0.915E+01   0.416E-03 0.759E-04 0.164E-03


 POSITION                                       TOTAL-FORCE (eV/Angst)
 -----------------------------------------------------------------------------------
      5.72567     13.06350      1.44192         0.296741     -0.332523     -0.378704
      4.93418     10.13520      4.68676         0.115050      0.250091     -0.090286
      7.42519      1.16747      0.85036         0.644027     -0.101904      0.326850
      0.18003      2.45903      4.87283        -0.241785     -1.189483     -2.683954
      1.67917     14.17410      5.80320        -0.426835      0.064076     -0.086310
      8.94324     14.37970      5.96272        -0.076737      0.046371      0.098412
     14.34070      1.12483      0.64991         0.616352      0.414402      0.783399
      1.90967      4.48497      0.56094        -0.361812      1.302595     -0.575606
     11.86760     13.99030      2.46330        -1.319504     -0.375919     -0.110780
      0.04191      2.99808      6.96664        -0.337822      1.061528      2.747717
     13.10540     12.48970      9.50596         0.191444     -0.484168     -0.692124
      5.50384      5.56613      3.54799        -1.458543      0.199710     -0.796679
      6.14143      5.98052      7.06140        -0.248604     -0.293132      0.683107
     11.07190      6.67827      7.29028         0.651572      0.496742      0.906865
      1.78309      2.39502      1.26141        -0.746314     -1.492269      0.753782
      9.30524     12.12160      8.38971        -0.670850      0.282070     -1.370634
     14.10760     13.84810      2.13796         0.845581     -0.616960     -0.771840
      8.32838      9.98242      0.78441         0.223334      0.026355      0.576590
      4.20613      4.51138      7.39652        -0.136802     -0.028216      0.611403
      2.16423      2.94670      3.64816         0.373203     -1.187124     -0.255108
      3.86355      4.54396      9.90273        -0.027198      0.371040     -1.492889
     10.64460     12.10990      1.46468        -0.542289      0.312427      1.121970
      5.33244      7.94505      0.19693         0.492685     -0.649293      1.393686
     12.02370      1.17583      8.32356        -0.728999     -0.980933      0.009634
     10.37990      7.09317      5.16743        -1.153865     -0.398675     -0.894817
     12.00480     11.76700      5.69302        -0.475797     -1.835047     -0.882073
      0.55142      5.37182      7.20030        -0.323017     -0.083756      0.420413
      9.83850      9.03944      3.94432        -0.528393      0.371888      0.672991
     13.09170      3.58850      3.72128        -0.633254      0.998241     -0.270738
      2.94874      5.18971      3.87528         0.625695      1.008590      0.526429
      9.69366     12.16750      5.95898        -0.715706     -0.911563      0.408047
      2.63600      5.79427      6.24588         0.000962     -0.045683     -0.300013
      7.78554      1.24150      4.46075        -0.539995      0.509063     -0.312980
     13.48070      5.88945      3.01929         0.292607     -0.401556     -0.876774
      6.24605      9.44017      4.82125         0.044792     -0.505139     -0.533201
     11.12620      3.31080      5.20377        -0.938391      0.174399     -0.692917
      3.36279      7.87792      7.10260        -0.002380      0.845870      0.880789
      1.09614     11.82510      6.48080         0.245877     -0.413520      0.266612
      5.78041      5.59054     10.55900         0.972910     -0.367512      0.278815
      6.32876      7.72496      2.84493        -0.022252      0.831099      0.077867
      0.49944      5.40661      9.63227         0.396703      1.024461      0.318301
      3.43539      7.42595      9.63476        -1.086065     -0.398259     -0.181095
      7.74724     13.79980      7.88706        -0.288558      0.918457      0.506484
     12.15480     13.84490      4.81176        -0.347225      0.663154     -0.308428
      6.79463      4.83419      5.23900         1.353590      0.003667      0.287221
      1.84604      9.71812      6.99008        -0.647365      0.122850      0.133725
     13.46040     11.13400      7.41389         0.529008      1.383797      0.449506
      8.78571     10.00760      9.08880        -0.035805     -0.336308      0.787391
     14.26090      8.99173      7.91468         0.827433      0.810224     -0.625431
     12.61020      7.38789      4.52747         0.509896      1.007372      0.150943
      3.61140      2.17756     10.58330         1.076180     -0.554355     -0.292115
      3.61045      1.21542      4.59033        -0.658998     -0.290039      1.090206
      7.46995      5.31106      8.86870        -0.373116      0.725777     -0.025243
     12.10970      9.72458      3.91217        -0.337421      0.229403      1.109025
      5.59604      0.69821      3.40162         1.225728     -0.637254      0.646627
     11.05920      1.45364      1.38449        -0.279560     -0.334572      0.533741
      1.37040      7.50695      0.22962        -0.195396     -0.561419     -1.127468
      6.99349     13.64760      1.98294        -1.932223      0.906972     -0.479058
     13.41750      7.17798      6.73937        -0.298074     -1.434956      0.319148
      4.51833      2.16736      6.60035         0.303477      0.378188      1.122038
     10.62640      4.29406      7.26653         0.917972     -0.026806      0.784743
      8.24766     10.84170      4.43109         0.776801     -1.196507      1.314323
     13.96960      0.14123      9.18853         0.103015      0.360403     -0.603925
     12.13810     10.36250      1.73788         0.269868     -0.233967     -1.070011
      8.70994      7.17988      9.59750        -0.128617     -1.106118      0.551689
      8.19018      1.23891      9.30784         1.169683     -0.420973     -0.533076
     12.12290      8.40382      0.19441         0.040528      0.562253      0.352821
      1.45399      6.15672      2.21440        -0.672480     -0.343269     -0.094601
     12.94760      2.89784      1.44324        -0.421761     -1.043214     -0.068740
     11.03450      0.94283      6.03463         0.154217      0.836994      0.663009
      6.92156      2.70427      6.12393         0.124389     -0.170677      0.326525
     10.61460      8.42644      8.99021        -0.410620     -0.433707     -0.306983
      8.44811      3.41775      7.97882        -0.453713     -1.431472      0.098439
     13.01910      4.52812     10.42530        -0.551958      0.302130      0.089006
      8.71355      7.99586      2.19748        -0.469110      0.161970     -0.786390
     10.80910     12.80530      9.96153         0.517556     -0.483913     -0.163030
      9.01251      2.08683      2.48880        -0.512003     -0.163021     -0.780863
      9.12798      5.06799      4.55954         0.345187     -0.665309     -0.735238
      9.58941      6.08658      1.00448        -1.232609      0.728083      0.121616
     14.01340     11.46750      0.74341        -0.216778     -0.243085      0.115221
      1.23256      0.99530      7.82778         0.093384     -0.092459     -0.455730
      6.23668      4.27301      1.81108        -0.091048     -0.098234     -0.348830
      6.79669      8.67309      9.26569         1.058943      0.136607     -1.043559
     12.50230      3.34280      8.43113        -0.128154      0.965560     -0.604607
     10.45430      0.48767      9.94128        -0.615218      1.844259     -0.228416
     14.23610     14.51186      4.39263         2.532990      1.150041      0.436988
      8.43270     11.95400      2.43962         0.548682     -1.220432     -1.384717
     14.28790      9.17707     10.23660         0.415584     -0.278479      0.849791
      5.67733      8.27890      6.92996         0.637228     -0.055571      0.406404
      5.38645      1.98642      1.55084         0.402094      1.604498     -1.081275
      8.55576      4.39049      2.25280         0.191058     -0.000392      0.716623
      3.48073      0.88846      8.53616         0.460718      0.602238      0.010393
     11.86560      6.22399      1.11200         1.426275     -0.046770     -0.440063
 -----------------------------------------------------------------------------------
    total drift:                               -0.000266     -0.012753     -0.006983


--------------------------------------------------------------------------------------------------------



  FREE ENERGIE OF THE ION-ELECTRON SYSTEM (eV)
  ---------------------------------------------------
  free  energy   TOTEN  =      -881.78041847 eV

  energy  without entropy=     -881.75044234  energy(sigma->0) =     -881.76543040



--------------------------------------------------------------------------------------------------------


    POTLOK:  cpu time      1.9503: real time      1.9512


--------------------------------------------------------------------------------------------------------


     LOOP+:  cpu time   2049.9938: real time   2051.9600
    4ORBIT:  cpu time      0.0000: real time      0.0000



 total charge

# of ion       s       p       d       tot
------------------------------------------
    1        0.564   0.015   0.000   0.580
    2        0.567   0.015   0.000   0.582
    3        0.756   0.931   0.000   1.686
    4        0.758   0.961   0.000   1.719
    5        0.766   0.807   0.000   1.573
    6        0.753   0.936   0.000   1.689
    7        0.749   0.921   0.000   1.670
    8        0.769   0.952   0.000   1.720
    9        0.762   0.927   0.000   1.689
   10        0.757   0.922   0.000   1.679
   11        0.752   0.917   0.000   1.669
   12        0.754   0.930   0.000   1.684
   13        0.757   0.966   0.000   1.723
   14        0.759   0.887   0.000   1.646
   15        0.750   0.972   0.000   1.723
   16        0.755   0.953   0.000   1.708
   17        0.768   0.897   0.000   1.665
   18        0.805   0.775   0.000   1.580
   19        0.767   0.866   0.000   1.633
   20        0.752   0.882   0.000   1.634
   21        0.756   0.903   0.000   1.659
   22        0.753   0.932   0.000   1.685
   23        0.770   0.872   0.000   1.642
   24        0.753   0.952   0.000   1.705
   25        0.758   0.938   0.000   1.696
   26        0.755   0.907   0.000   1.662
   27        0.750   0.885   0.000   1.635
   28        0.758   0.925   0.000   1.683
   29        0.751   0.908   0.000   1.659
   30        0.752   0.846   0.000   1.599
   31        0.761   0.889   0.000   1.650
   32        0.749   0.931   0.000   1.681
   33        0.755   0.880   0.000   1.635
   34        0.760   0.857   0.000   1.616
   35        0.743   0.876   0.000   1.619
   36        0.756   0.840   0.000   1.597
   37        0.759   0.872   0.000   1.631
   38        0.785   0.809   0.000   1.594
   39        0.758   0.929   0.000   1.687
   40        0.777   0.779   0.000   1.557
   41        0.760   0.900   0.000   1.660
   42        0.785   0.811   0.000   1.596
   43        0.801   0.839   0.000   1.641
   44        0.756   0.991   0.000   1.747
   45        0.757   0.976   0.000   1.732
   46        0.776   0.859   0.000   1.635
   47        0.755   0.880   0.000   1.634
   48        0.769   0.879   0.000   1.648
   49        0.749   0.940   0.000   1.689
   50        0.760   0.919   0.000   1.680
   51        0.772   0.884   0.000   1.655
   52        0.762   0.839   0.000   1.601
   53        0.754   0.944   0.000   1.698
   54        0.761   0.883   0.000   1.643
   55        0.754   0.900   0.000   1.654
   56        0.755   0.902   0.000   1.658
   57        0.759   0.856   0.000   1.615
   58        0.748   0.943   0.000   1.691
   59        0.754   0.900   0.000   1.654
   60        0.758   0.840   0.000   1.598
   61        0.756   0.887   0.000   1.643
   62        0.747   0.897   0.000   1.643
   63        0.751   0.921   0.000   1.672
   64        0.757   0.926   0.000   1.684
   65        0.766   0.884   0.000   1.649
   66        0.756   0.865   0.000   1.622
   67        0.751   0.901   0.000   1.653
   68        0.756   0.858   0.000   1.614
   69        0.754   0.926   0.000   1.679
   70        0.755   0.891   0.000   1.646
   71        0.762   0.882   0.000   1.644
   72        0.757   0.894   0.000   1.651
   73        0.750   0.866   0.000   1.616
   74        0.746   0.929   0.000   1.676
   75        0.761   0.880   0.000   1.640
   76        0.756   1.004   0.000   1.760
   77        0.752   0.890   0.000   1.642
   78        0.768   0.831   0.000   1.599
   79        0.757   0.915   0.000   1.672
   80        0.771   0.836   0.000   1.608
   81        0.754   0.877   0.000   1.631
   82        0.755   0.942   0.000   1.697
   83        0.760   0.871   0.000   1.630
   84        0.757   0.930   0.000   1.687
   85        0.759   0.948   0.000   1.706
   86        0.762   0.915   0.000   1.677
   87        0.751   0.920   0.000   1.672
   88        0.765   0.867   0.000   1.631
   89        0.755   0.880   0.000   1.635
   90        0.751   0.946   0.000   1.697
   91        0.751   0.922   0.000   1.673
   92        0.810   0.795   0.000   1.604
   93        0.753   0.900   0.000   1.653
--------------------------------------------------
tot         70.236  81.647   0.000 151.883


 total amount of memory used by VASP MPI-rank0   185481. kBytes
=======================================================================

   base                                    :      30000. kBytes
   nonl-proj                               :      33399. kBytes
   fftplans                                :      40957. kBytes
   grid                                    :      31575. kBytes
   one-center                              :         18. kBytes
   wavefun                                 :      49532. kBytes

  
  
 General timing and accounting informations for this job:
 ========================================================
  
                  Total CPU time used (sec):     2116.441
                            User time (sec):     2109.367
                          System time (sec):        7.074
                         Elapsed time (sec):     2118.399
  
                   Maximum memory used (kb):      350612.
                   Average memory used (kb):          N/A
  
                          Minor page faults:       263166
                          Major page faults:         1142
                 Voluntary context switches:         2410
