 vasp.6.5.0 16Dec24 (build Jan 20 2025 08:32:48) complex                         
 executed on        HPECrayEX_GCC date 2025.07.25  13:38:21
 running   64 mpi-ranks, with    1 threads/rank, on    1 nodes
 distrk:  each k-point on   64 cores,    1 groups
 distr:  one band on NCORE=  16 cores,    4 groups


--------------------------------------------------------------------------------------------------------


 INCAR:
   SYSTEM = a-Si SPC
   NCORE = 16
   ISTART = 1
   ICHARG = 1
   ISPIN = 1
   ISYM = 1
   EDIFF = 1E-6
   NELM = 150
   EDIFFG = -0.01
   NSW = 0
   ISIF = 2
   IBRION = -1
   PREC = Accurate
   ENCUT = 1200
   KSPACING = 0.23
   KGAMMA = .TRUE.
   METAGGA = SCAN
   LASPH = .TRUE.
   LDIAG = .FALSE.
   LMIXTAU = .TRUE.
   ADDGRID = .TRUE.
   ALGO = Normal
   ISMEAR = 0
   SIGMA = 0.1
   LORBIT = 11
   NEDOS = 2000
   LWAVE = .FALSE.
   LCHARG = .FALSE.

 POTCAR:    PAW_PBE Si_GW 04May2012               
 POTCAR:    PAW_PBE H 15Jun2001                   
 POTCAR:    PAW_PBE Si_GW 04May2012               
   SHA256 =  9ee269d4247e69d62ab9db642b0c3f6e4981ddd1f39659ad08dec53e20e43eb1 Si_GW/POTCAR          
   COPYR  = (c) Copyright 04May2012 Georg Kresse                                                    
   COPYR  = This file is part of the software VASP. Any use, copying, and all other rights are regul
   COPYR  = If you do not have a valid VASP license, you may not use, copy or distribute this file. 
   VRHFIN =Si: s2p2                                                                                 
   LEXCH  = PE                                                                                      
   EATOM  =   103.0669 eV,    7.5752 Ry                                                             
                                                                                                    
   TITEL  = PAW_PBE Si_GW 04May2012                                                                 
   LULTRA =        F    use ultrasoft PP ?                                                          
   IUNSCR =        1    unscreen: 0-lin 1-nonlin 2-no                                               
   RPACOR =    1.500    partial core radius                                                         
   POMASS =   28.085; ZVAL   =    4.000    mass and valenz                                          
   RCORE  =    1.900    outmost cutoff radius                                                       
   RWIGS  =    2.480; RWIGS  =    1.312    wigner-seitz radius (au A)                               
   ENMAX  =  245.345; ENMIN  =  184.009 eV                                                          
   ICORE  =        3    local potential                                                             
   LCOR   =        T    correct aug charges                                                         
   LPAW   =        T    paw PP                                                                      
   EAUG   =  412.952                                                                                
   DEXC   =    0.000                                                                                
   RMAX   =    1.950    core radius for proj-oper                                                   
   RAUG   =    1.300    factor for augmentation sphere                                              
   RDEP   =    1.993    radius for radial grids                                                     
   RDEPT  =    2.000    core radius for aug-charge                                                  
                                                                                                    
   Atomic configuration                                                                             
    7 entries                                                                                       
     n  l   j            E        occ.                                                              
     1  0  0.50     -1785.8828   2.0000                                                             
     2  0  0.50      -139.4969   2.0000                                                             
     2  1  1.50       -95.5546   6.0000                                                             
     3  0  0.50       -10.8127   2.0000                                                             
     3  1  0.50        -4.0811   2.0000                                                             
     3  2  1.50        -4.0817   0.0000                                                             
     4  3  2.50        -4.0817   0.0000                                                             
   Description                                                                                      
     l       E           TYP  RCUT    TYP  RCUT                                                     
     0    -10.8127223     23  1.900                                                                 
     0     95.2407820     23  1.900                                                                 
     1     -4.0811372     23  1.900                                                                 
     1     54.4233040     23  1.900                                                                 
     2     -8.1634956     23  1.900                                                                 
     2     81.6349560     23  1.900                                                                 
     3     27.2116520     23  1.900                                                                 
  local pseudopotential read in
  partial core-charges read in
  partial kinetic energy density read in
  kinetic energy density of atom read in
  atomic valenz-charges read in
  non local Contribution for L=           0  read in
    real space projection operators read in
  non local Contribution for L=           0  read in
    real space projection operators read in
  non local Contribution for L=           1  read in
    real space projection operators read in
  non local Contribution for L=           1  read in
    real space projection operators read in
  non local Contribution for L=           2  read in
    real space projection operators read in
  non local Contribution for L=           2  read in
    real space projection operators read in
    PAW grid and wavefunctions read in

   number of l-projection  operators is LMAX  =           6
   number of lm-projection operators is LMMAX =          18

 POTCAR:    PAW_PBE H 15Jun2001                   
   SHA256 =  030f79b5d3ab3cf0e668861823c8fb652ff669f3e15e46930bd03bfd63a607b6 H/POTCAR              
   COPYR  = (c) Copyright 15Jun2001 Georg Kresse                                                    
   COPYR  = This file is part of the software VASP. Any use, copying, and all other rights are regul
   COPYR  = If you do not have a valid VASP license, you may not use, copy or distribute this file. 
   VRHFIN =H: ultrasoft test                                                                        
   LEXCH  = PE                                                                                      
   EATOM  =    12.4884 eV,    0.9179 Ry                                                             
                                                                                                    
   TITEL  = PAW_PBE H 15Jun2001                                                                     
   LULTRA =        F    use ultrasoft PP ?                                                          
   IUNSCR =        0    unscreen: 0-lin 1-nonlin 2-no                                               
   RPACOR =    0.000    partial core radius                                                         
   POMASS =    1.000; ZVAL   =    1.000    mass and valenz                                          
   RCORE  =    1.100    outmost cutoff radius                                                       
   RWIGS  =    0.700; RWIGS  =    0.370    wigner-seitz radius (au A)                               
   ENMAX  =  250.000; ENMIN  =  200.000 eV                                                          
   RCLOC  =    0.701    cutoff for local pot                                                        
   LCOR   =        T    correct aug charges                                                         
   LPAW   =        T    paw PP                                                                      
   EAUG   =  400.000                                                                                
   RMAX   =    1.123    core radius for proj-oper                                                   
   RAUG   =    1.200    factor for augmentation sphere                                              
   RDEP   =    1.112    radius for radial grids                                                     
   RDEPT  =    0.926    core radius for aug-charge                                                  
                                                                                                    
   Atomic configuration                                                                             
    2 entries                                                                                       
     n  l   j            E        occ.                                                              
     1  0  0.50        -6.4927   1.0000                                                             
     2  1  0.50        -3.4015   0.0000                                                             
   Description                                                                                      
     l       E           TYP  RCUT    TYP  RCUT                                                     
     0     -6.4927494     23  1.100                                                                 
     0      6.8029130     23  1.100                                                                 
     1     -4.0817478     23  1.100                                                                 
  local pseudopotential read in
  atomic valenz-charges read in
  non local Contribution for L=           0  read in
    real space projection operators read in
  non local Contribution for L=           0  read in
    real space projection operators read in
  non local Contribution for L=           1  read in
    real space projection operators read in
    PAW grid and wavefunctions read in

   number of l-projection  operators is LMAX  =           3
   number of lm-projection operators is LMMAX =           5

 -----------------------------------------------------------------------------
|                                                                             |
|               ----> ADVICE to this user running VASP <----                  |
|                                                                             |
|     You have a (more or less) 'large supercell' and for larger cells it     |
|     might be more efficient to use real-space projection operators.         |
|     Therefore, try LREAL= Auto in the INCAR file.                           |
|     Mind: For very accurate calculation, you might also keep the            |
|     reciprocal projection scheme (i.e. LREAL=.FALSE.).                      |
|                                                                             |
 -----------------------------------------------------------------------------

 -----------------------------------------------------------------------------
|                                                                             |
|               ----> ADVICE to this user running VASP <----                  |
|                                                                             |
|     You enforced a specific xc type in the INCAR file but a different       |
|     type was found in the POTCAR file.                                      |
|     I HOPE YOU KNOW WHAT YOU ARE DOING!                                     |
|                                                                             |
 -----------------------------------------------------------------------------

  PAW_PBE Si_GW 04May2012               :
 energy of atom  1       EATOM= -103.0669
 kinetic energy error for atom=    0.0001 (will be added to EATOM!!)
  PAW_PBE H 15Jun2001                   :
 energy of atom  2       EATOM=  -12.4884
 kinetic energy error for atom=    0.0000 (will be added to EATOM!!)


 POSCAR: Si H
  positions in cartesian coordinates
  No initial velocities read in


 exchange-correlation table for SCAN
   RHO(1)=    0.500       N(1)  =     2000
   RHO(2)=  100.500       N(2)  =     4000



--------------------------------------------------------------------------------------------------------


 ion  position               nearest neighbor table
   1  0.000  0.000  0.000-  65 1.18  28 2.35  46 2.35  56 2.35   2 2.35
   2  0.125  0.125  0.125-  65 1.18   3 2.35   5 2.35   7 2.35   1 2.35
   3  0.000  0.250  0.250-   2 2.35   4 2.35  38 2.35  40 2.35
   4  0.125  0.375  0.375-   3 2.35  15 2.35  21 2.35  25 2.35
   5  0.250  0.000  0.250-   2 2.35   6 2.35  20 2.35  24 2.35
   6  0.375  0.125  0.375-   5 2.35  15 2.35  35 2.35  41 2.35
   7  0.250  0.250  0.000-   2 2.35   8 2.35  12 2.35  14 2.35
   8  0.375  0.375  0.125-   7 2.35  21 2.35  35 2.35  49 2.35
   9  0.000  0.000  0.500-  10 2.35  20 2.35  38 2.35  64 2.35
  10  0.125  0.125  0.625-   9 2.35  11 2.35  13 2.35  15 2.35
  11  0.000  0.250  0.750-  10 2.35  12 2.35  46 2.35  48 2.35
  12  0.125  0.375  0.875-   7 2.35  11 2.35  17 2.35  29 2.35
  13  0.250  0.000  0.750-  10 2.35  14 2.35  28 2.35  32 2.35
  14  0.375  0.125  0.875-   7 2.35  13 2.35  33 2.35  43 2.35
  15  0.250  0.250  0.500-   4 2.35   6 2.35  10 2.35  16 2.35
  16  0.375  0.375  0.625-  15 2.35  29 2.35  43 2.35  57 2.35
  17  0.000  0.500  0.000-  12 2.35  18 2.35  40 2.35  62 2.35
  18  0.125  0.625  0.125-  17 2.35  19 2.35  21 2.35  23 2.35
  19  0.000  0.750  0.250-  18 2.35  20 2.35  54 2.35  56 2.35
  20  0.125  0.875  0.375-   5 2.35   9 2.35  19 2.35  31 2.35
  21  0.250  0.500  0.250-   4 2.35   8 2.35  18 2.35  22 2.35
  22  0.375  0.625  0.375-  21 2.35  31 2.35  51 2.35  57 2.35
  23  0.250  0.750  0.000-  18 2.35  24 2.35  28 2.35  30 2.35
  24  0.375  0.875  0.125-   5 2.35  23 2.35  33 2.35  51 2.35
  25  0.000  0.500  0.500-   4 2.35  26 2.35  48 2.35  54 2.35
  26  0.125  0.625  0.625-  25 2.35  27 2.35  29 2.35  31 2.35
  27  0.000  0.750  0.750-  26 2.35  28 2.35  62 2.35  64 2.35
  28  0.125  0.875  0.875-   1 2.35  13 2.35  23 2.35  27 2.35
  29  0.250  0.500  0.750-  12 2.35  16 2.35  26 2.35  30 2.35
  30  0.375  0.625  0.875-  23 2.35  29 2.35  49 2.35  59 2.35
  31  0.250  0.750  0.500-  20 2.35  22 2.35  26 2.35  32 2.35
  32  0.375  0.875  0.625-  13 2.35  31 2.35  41 2.35  59 2.35
  33  0.500  0.000  0.000-  14 2.35  24 2.35  34 2.35  60 2.35
  34  0.625  0.125  0.125-  33 2.35  35 2.35  37 2.35  39 2.35
  35  0.500  0.250  0.250-   6 2.35   8 2.35  34 2.35  36 2.35
  36  0.625  0.375  0.375-  35 2.35  47 2.35  53 2.35  57 2.35
  37  0.750  0.000  0.250-  34 2.35  38 2.35  52 2.35  56 2.35
  38  0.875  0.125  0.375-   3 2.35   9 2.35  37 2.35  47 2.35
  39  0.750  0.250  0.000-  34 2.35  40 2.35  44 2.35  46 2.35
  40  0.875  0.375  0.125-   3 2.35  17 2.35  39 2.35  53 2.35
  41  0.500  0.000  0.500-   6 2.35  32 2.35  42 2.35  52 2.35
  42  0.625  0.125  0.625-  41 2.35  43 2.35  45 2.35  47 2.35
  43  0.500  0.250  0.750-  14 2.35  16 2.35  42 2.35  44 2.35
  44  0.625  0.375  0.875-  39 2.35  43 2.35  49 2.35  61 2.35
  45  0.750  0.000  0.750-  42 2.35  46 2.35  60 2.35  64 2.35
  46  0.875  0.125  0.875-   1 2.35  11 2.35  39 2.35  45 2.35
  47  0.750  0.250  0.500-  36 2.35  38 2.35  42 2.35  48 2.35
  48  0.875  0.375  0.625-  11 2.35  25 2.35  47 2.35  61 2.35
  49  0.500  0.500  0.000-   8 2.35  30 2.35  44 2.35  50 2.35
  50  0.625  0.625  0.125-  49 2.35  51 2.35  53 2.35  55 2.35
  51  0.500  0.750  0.250-  22 2.35  24 2.35  50 2.35  52 2.35
  52  0.625  0.875  0.375-  37 2.35  41 2.35  51 2.35  63 2.35
  53  0.750  0.500  0.250-  36 2.35  40 2.35  50 2.35  54 2.35
  54  0.875  0.625  0.375-  19 2.35  25 2.35  53 2.35  63 2.35
  55  0.750  0.750  0.000-  50 2.35  56 2.35  60 2.35  62 2.35
  56  0.875  0.875  0.125-   1 2.35  19 2.35  37 2.35  55 2.35
  57  0.500  0.500  0.500-  16 2.35  22 2.35  36 2.35  58 2.35
  58  0.625  0.625  0.625-  57 2.35  59 2.35  61 2.35  63 2.35
  59  0.500  0.750  0.750-  30 2.35  32 2.35  58 2.35  60 2.35
  60  0.625  0.875  0.875-  33 2.35  45 2.35  55 2.35  59 2.35
  61  0.750  0.500  0.750-  44 2.35  48 2.35  58 2.35  62 2.35
  62  0.875  0.625  0.875-  17 2.35  27 2.35  55 2.35  61 2.35
  63  0.750  0.750  0.500-  52 2.35  54 2.35  58 2.35  64 2.35
  64  0.875  0.875  0.625-   9 2.35  27 2.35  45 2.35  63 2.35
  65  0.062  0.062  0.062-   1 1.18   2 1.18

  LATTYP: Found a simple cubic cell.
 ALAT       =    10.8600000000
  
  Lattice vectors:
  
 A1 = (  10.8600000000,   0.0000000000,   0.0000000000)
 A2 = (   0.0000000000,  10.8600000000,   0.0000000000)
 A3 = (   0.0000000000,   0.0000000000,  10.8600000000)


Analysis of symmetry for initial positions (statically):
=====================================================================
 Subroutine PRICEL returns:
 Original cell was already a primitive cell.
 

 Routine SETGRP: Setting up the symmetry group for a 
 simple cubic supercell.


 Subroutine GETGRP returns: Found 12 space group operations
 (whereof  6 operations were pure point group operations)
 out of a pool of 48 trial point group operations.


The static configuration has the point symmetry C_3v.
 The point group associated with its full space group is D_3d.


Analysis of symmetry for dynamics (positions and initial velocities):
=====================================================================
 Subroutine PRICEL returns:
 Original cell was already a primitive cell.
 

 Routine SETGRP: Setting up the symmetry group for a 
 simple cubic supercell.


 Subroutine GETGRP returns: Found 12 space group operations
 (whereof  6 operations were pure point group operations)
 out of a pool of 48 trial point group operations.


The dynamic configuration has the point symmetry C_3v.
 The point group associated with its full space group is D_3d.


 Subroutine INISYM returns: Found 12 space group operations
 (whereof  6 operations are pure point group operations),
 and found     1 'primitive' translations


----------------------------------------------------------------------------------------

                                     Primitive cell                                     

  volume of cell :    1280.8241

  direct lattice vectors                    reciprocal lattice vectors
    10.860000000  0.000000000  0.000000000     0.092081031  0.000000000  0.000000000
     0.000000000 10.860000000  0.000000000     0.000000000  0.092081031  0.000000000
     0.000000000  0.000000000 10.860000000     0.000000000  0.000000000  0.092081031

  length of vectors
    10.860000000 10.860000000 10.860000000     0.092081031  0.092081031  0.092081031

  position of ions in fractional coordinates (direct lattice)
     0.000000000  0.000000000  0.000000000
     0.125000000  0.125000000  0.125000000
     0.000000000  0.250000000  0.250000000
     0.125000000  0.375000000  0.375000000
     0.250000000  0.000000000  0.250000000
     0.375000000  0.125000000  0.375000000
     0.250000000  0.250000000  0.000000000
     0.375000000  0.375000000  0.125000000
     0.000000000  0.000000000  0.500000000
     0.125000000  0.125000000  0.625000000
     0.000000000  0.250000000  0.750000000
     0.125000000  0.375000000  0.875000000
     0.250000000  0.000000000  0.750000000
     0.375000000  0.125000000  0.875000000
     0.250000000  0.250000000  0.500000000
     0.375000000  0.375000000  0.625000000
     0.000000000  0.500000000  0.000000000
     0.125000000  0.625000000  0.125000000
     0.000000000  0.750000000  0.250000000
     0.125000000  0.875000000  0.375000000
     0.250000000  0.500000000  0.250000000
     0.375000000  0.625000000  0.375000000
     0.250000000  0.750000000  0.000000000
     0.375000000  0.875000000  0.125000000
     0.000000000  0.500000000  0.500000000
     0.125000000  0.625000000  0.625000000
     0.000000000  0.750000000  0.750000000
     0.125000000  0.875000000  0.875000000
     0.250000000  0.500000000  0.750000000
     0.375000000  0.625000000  0.875000000
     0.250000000  0.750000000  0.500000000
     0.375000000  0.875000000  0.625000000
     0.500000000  0.000000000  0.000000000
     0.625000000  0.125000000  0.125000000
     0.500000000  0.250000000  0.250000000
     0.625000000  0.375000000  0.375000000
     0.750000000  0.000000000  0.250000000
     0.875000000  0.125000000  0.375000000
     0.750000000  0.250000000  0.000000000
     0.875000000  0.375000000  0.125000000
     0.500000000  0.000000000  0.500000000
     0.625000000  0.125000000  0.625000000
     0.500000000  0.250000000  0.750000000
     0.625000000  0.375000000  0.875000000
     0.750000000  0.000000000  0.750000000
     0.875000000  0.125000000  0.875000000
     0.750000000  0.250000000  0.500000000
     0.875000000  0.375000000  0.625000000
     0.500000000  0.500000000  0.000000000
     0.625000000  0.625000000  0.125000000
     0.500000000  0.750000000  0.250000000
     0.625000000  0.875000000  0.375000000
     0.750000000  0.500000000  0.250000000
     0.875000000  0.625000000  0.375000000
     0.750000000  0.750000000  0.000000000
     0.875000000  0.875000000  0.125000000
     0.500000000  0.500000000  0.500000000
     0.625000000  0.625000000  0.625000000
     0.500000000  0.750000000  0.750000000
     0.625000000  0.875000000  0.875000000
     0.750000000  0.500000000  0.750000000
     0.875000000  0.625000000  0.875000000
     0.750000000  0.750000000  0.500000000
     0.875000000  0.875000000  0.625000000
     0.062500000  0.062500000  0.062500000

  ion indices of the primitive-cell ions
   primitive index   ion index
                 1           1
                 2           2
                 3           3
                 4           4
                 5           5
                 6           6
                 7           7
                 8           8
                 9           9
                10          10
                11          11
                12          12
                13          13
                14          14
                15          15
                16          16
                17          17
                18          18
                19          19
                20          20
                21          21
                22          22
                23          23
                24          24
                25          25
                26          26
                27          27
                28          28
                29          29
                30          30
                31          31
                32          32
                33          33
                34          34
                35          35
                36          36
                37          37
                38          38
                39          39
                40          40
                41          41
                42          42
                43          43
                44          44
                45          45
                46          46
                47          47
                48          48
                49          49
                50          50
                51          51
                52          52
                53          53
                54          54
                55          55
                56          56
                57          57
                58          58
                59          59
                60          60
                61          61
                62          62
                63          63
                64          64
                65          65

----------------------------------------------------------------------------------------


 -----------------------------------------------------------------------------
|                                                                             |
|           W    W    AA    RRRRR   N    N  II  N    N   GGGG   !!!           |
|           W    W   A  A   R    R  NN   N  II  NN   N  G    G  !!!           |
|           W    W  A    A  R    R  N N  N  II  N N  N  G       !!!           |
|           W WW W  AAAAAA  RRRRR   N  N N  II  N  N N  G  GGG   !            |
|           WW  WW  A    A  R   R   N   NN  II  N   NN  G    G                |
|           W    W  A    A  R    R  N    N  II  N    N   GGGG   !!!           |
|                                                                             |
|     The requested file  could not be found or opened for reading            |
|     k-point information. Automatic k-point generation is used as a          |
|     fallback, which may lead to unwanted results.                           |
|                                                                             |
 -----------------------------------------------------------------------------



Automatic generation of k-mesh.
 Grid dimensions derived from KSPACING:
 generate k-points for:    3    3    3

 Generating k-lattice:

  Cartesian coordinates                     Fractional coordinates (reciprocal lattice)
     0.030693677  0.000000000  0.000000000     0.333333333  0.000000000  0.000000000
     0.000000000  0.030693677  0.000000000     0.000000000  0.333333333  0.000000000
     0.000000000  0.000000000  0.030693677     0.000000000  0.000000000  0.333333333

  Length of vectors
     0.030693677  0.030693677  0.030693677

  Shift w.r.t. Gamma in fractional coordinates (k-lattice)
     0.000000000  0.000000000  0.000000000

 
 Subroutine IBZKPT returns following result:
 ===========================================
 
 Found      6 irreducible k-points:
 
 Following reciprocal coordinates:
            Coordinates               Weight
  0.000000  0.000000  0.000000      1.000000
  0.333333  0.000000  0.000000      6.000000
  0.333333  0.333333  0.000000      6.000000
 -0.333333  0.333333  0.000000      6.000000
  0.333333  0.333333  0.333333      2.000000
 -0.333333  0.333333  0.333333      6.000000
 
 Following cartesian coordinates:
            Coordinates               Weight
  0.000000  0.000000  0.000000      1.000000
  0.030694  0.000000  0.000000      6.000000
  0.030694  0.030694  0.000000      6.000000
 -0.030694  0.030694  0.000000      6.000000
  0.030694  0.030694  0.030694      2.000000
 -0.030694  0.030694  0.030694      6.000000
 


--------------------------------------------------------------------------------------------------------




 Dimension of arrays:
   k-points           NKPTS =      6   k-points in BZ     NKDIM =      6   number of bands    NBANDS=    164
   number of dos      NEDOS =   2000   number of ions     NIONS =     65
   non local maximal  LDIM  =      6   non local SUM 2l+1 LMDIM =     18
   total plane-waves  NPLWV = ******
   max r-space proj   IRMAX =      1   max aug-charges    IRDMAX= 613440
   dimension x,y,z NGX =   126 NGY =  126 NGZ =  126
   dimension x,y,z NGXF=   252 NGYF=  252 NGZF=  252
   support grid    NGXF=   504 NGYF=  504 NGZF=  504
   ions per type =              64   1
   NGX,Y,Z   is equivalent  to a cutoff of  19.29, 19.29, 19.29 a.u.
   NGXF,Y,Z  is equivalent  to a cutoff of  38.58, 38.58, 38.58 a.u.

 SYSTEM =  a-Si SPC                                
 POSCAR =  Si H                                    

 Startparameter for this run:
   NWRITE =      2    write-flag & timer
   PREC   = accura    normal or accurate (medium, high low for compatibility)
   ISTART =      1    job   : 0-new  1-cont  2-samecut
   ICHARG =      1    charge: 1-file 2-atom 10-const
   ISPIN  =      1    spin polarized calculation?
   LNONCOLLINEAR =      F non collinear calculations
   LSORBIT =      F    spin-orbit coupling
   INIWAV =      1    electr: 0-lowe 1-rand  2-diag
   LASPH  =      T    aspherical Exc in radial PAW
 Electronic Relaxation 1
   ENCUT  = 1200.0 eV  88.20 Ry    9.39 a.u.  30.67 30.67 30.67*2*pi/ulx,y,z
   ENINI  = 1200.0     initial cutoff
   ENAUG  =  413.0 eV  augmentation charge cutoff
   NELM   =    150;   NELMIN=  2; NELMDL=  0     # of ELM steps 
   EDIFF  = 0.1E-05   stopping-criterion for ELM
   LREAL  =      F    real-space projection
   NLSPLINE    = F    spline interpolate recip. space projectors
   LCOMPAT=      F    compatible to vasp.4.4
   GGA_COMPAT  = T    GGA compatible to vasp.4.4-vasp.4.6
   LMAXPAW     = -100 max onsite density
   LMAXMIX     =    2 max onsite mixed and CHGCAR
   VOSKOWN=      0    Vosko Wilk Nusair interpolation
   ROPT   =    0.00000   0.00000
 Ionic relaxation
   EDIFFG = -.1E-01   stopping-criterion for IOM
   NSW    =      0    number of steps for IOM
   NBLOCK =      1;   KBLOCK =      1    inner block; outer block 
   IBRION =     -1    ionic relax: 0-MD 1-quasi-New 2-CG
   NFREE  =      0    steps in history (QN), initial steepest desc. (CG)
   ISIF   =      2    stress and relaxation
   IWAVPR =     10    prediction:  0-non 1-charg 2-wave 3-comb
   ISYM   =      1    0-nonsym 1-usesym 2-fastsym
   LCORR  =      T    Harris-Foulkes like correction to forces

   POTIM  = 0.5000    time-step for ionic-motion
   TEIN   =    0.0    initial temperature
   TEBEG  =    0.0;   TEEND  =   0.0 temperature during run
   SMASS  =  -3.00    Nose mass-parameter (am)
   estimated Nose-frequenzy (Omega)   =  0.10E-29 period in steps = 0.13E+47 mass=  -0.270E-26a.u.
   SCALEE = 1.0000    scale energy and forces
   NPACO  =    256;   APACO  = 10.0  distance and # of slots for P.C.
   PSTRESS=    0.0 pullay stress

  Mass of Ions in am
   POMASS =  28.09  1.00
  Ionic Valenz
   ZVAL   =   4.00  1.00
  Atomic Wigner-Seitz radii
   RWIGS  =  -1.00 -1.00
  virtual crystal weights 
   VCA    =   1.00  1.00
   NELECT =     257.0000    total number of electrons
   NUPDOWN=      -1.0000    fix difference up-down

 DOS related values:
   EMIN   =  10.00;   EMAX   =-10.00  energy-range for DOS
   EFERMI =   0.00;   METHOD = LEGACY      
   ISMEAR =     0;   SIGMA  =   0.10  broadening in eV -4-tet -1-fermi 0-gaus
   EFERMI_NEDOS =   21; number of points for ismear=-14 and -15

 Electronic relaxation 2 (details)
   IALGO  =     38    algorithm
   LDIAG  =      F    sub-space diagonalisation (order eigenvalues)
   LSUBROT=      F    optimize rotation matrix (better conditioning)
   TURBO    =      0    0=normal 1=particle mesh
   IRESTART =      0    0=no restart 2=restart with 2 vectors
   NREBOOT  =      0    no. of reboots
   NMIN     =      0    reboot dimension
   EREF     =   0.00    reference energy to select bands
   IMIX   =      4    mixing-type and parameters
     AMIX     =   0.40;   BMIX     =  1.00
     AMIX_MAG =   1.60;   BMIX_MAG =  1.00
     AMIN     =   0.10
     WC   =   100.;   INIMIX=   1;  MIXPRE=   1;  MAXMIX= -45

 Intra band minimization:
   WEIMIN = 0.0000     energy-eigenvalue tresh-hold
   EBREAK =  0.15E-08  absolut break condition
   DEPER  =   0.30     relativ break condition  

   TIME   =   0.40     timestep for ELM

  volume/ion in A,a.u.               =      19.70       132.98
  Fermi-wavevector in a.u.,A,eV,Ry     =   0.958420  1.811152 12.497899  0.918570
  Thomas-Fermi vector in A             =   2.087526

 Write flags
   LWAVE        =      F    write WAVECAR
   LDOWNSAMPLE  =      F    k-point downsampling of WAVECAR
   LCHARG       =      F    write CHGCAR
   LVTOT        =      F    write LOCPOT, total local potential
   LVHAR        =      F    write LOCPOT, Hartree potential only
   WRT_POTENTIAL= false  ! write potential to hdf5 file
   LELF         =      F    write electronic localiz. function (ELF)
   LORBIT       =     11    0 simple, 1 ext, 2 COOP (PROOUT), +10 PAW based schemes


 Python interface
   PLUGINS active      =      F    recompile with -DPLUGINS to activate

 Dipole corrections
   LMONO      =      F    monopole corrections only (constant potential shift)
   LDIPOL     =      F    correct potential (dipole corrections)
   IDIPOL     =      0    1-x, 2-y, 3-z, 4-all directions 
   EPSILON    =  1.0000000 bulk dielectric constant
   LVACPOTAV  =      F  vacuum potentials using an averaging scheme for the charge density
   VACPOTFLAT =  0.1000000 required flatness to determine vacuum potential

Coulomb truncation method
  LTRUNCATE          =      F  Coulomb kernel truncation to be used
  IDIMENSIONALITY    =      3  Dimensionality of cutoff (0 molecules / 2 surfaces)
  ISURFACE           =     -1  Direction of surface normal
  LCOARSEN           =      F  Coarsen the charge grid before padding, preferred


 Exchange correlation treatment:
   METAGGA = SCAN    functional components
   XC_C    = 1    coefficients multiplying the functional components
   LIBXC   =     F    Libxc                    
   VOSKOWN =     0    Vosko Wilk Nusair interpolation
   LHFCALC =     F    Hartree Fock is set to
   LHFONE  =     F    Hartree Fock one center treatment
   AEXX    =    0.0000 exact exchange contribution

 Parameters of functionals:
   SCAN:
     P1 =  0.000000E+00
     P2 =  0.000000E+00
     P3 =  0.000000E+00

 Accuracy and mixing parameters for tau-dependent meta-GGA functionals:
   LMAXTAU = 6
   LMIXTAU = T

 Van der Waals corrections
   IVDW    =     0    specifies the selected vdW correction

 Linear response parameters
   LEPSILON=     F    determine dielectric tensor
   LRPA    =     F    only Hartree local field effects (RPA)
   LNABLA  =     F    use nabla operator in PAW spheres
   LVEL    =     F    velocity operator in full k-point grid
   CSHIFT  =0.1000    complex shift for real part using Kramers Kronig
   OMEGAMAX=  -1.0    maximum frequency
   DEG_THRESHOLD= 0.2000000E-02 threshold for treating states as degnerate
   RTIME   =   -0.100 relaxation time in fs
  (WPLASMAI=    0.000 imaginary part of plasma frequency in eV, 0.658/RTIME)
   DFIELD  = 0.0000000 0.0000000 0.0000000 field for delta impulse in time

  Optional k-point grid parameters
   LKPOINTS_OPT  =     F    use optional k-point grid
   KPOINTS_OPT_MODE=     1    mode for optional k-point grid

 Orbital magnetization related:
   ORBITALMAG=     F  switch on orbital magnetization
   LCHIMAG   =     F  perturbation theory with respect to B field
   DQ        =  0.001000  dq finite difference perturbation B field
   LLRAUG    =     F  two centre corrections for induced B field
   LBONE     =     F  B-component reconstruction in AE one-centre
   LVGVCALC  =     T  calculate vGv susceptibility
   LVGVAPPL  =     F  apply vGv susceptibility instead of pGv for G=0

 Random number generation:
   RANDOM_GENERATOR = DEFAULT
   PCG_SEED         = not used


--------------------------------------------------------------------------------------------------------


 Static calculation
 charge density and potential will be updated during run
 non-spin polarized calculation
 Variant of blocked Davidson
 perform Loewdin sub-space diagonalisation
    ordering is kept fixed
    before iterative eigenvector-optimisation
 modified Broyden-mixing scheme, WC =      100.0
 initial mixing is a Kerker type mixing with AMIX =  0.4000 and BMIX =      1.0000
 Hartree-type preconditioning will be used
 using additional bands           35
 reciprocal scheme for non local part
 use partial core corrections
 calculate Harris-corrections to forces   (improved forces if not selfconsistent)
 use gradient corrections 
 use of overlap-Matrix (Vanderbilt PP)
 Gauss-broadening in eV      SIGMA  =   0.10


--------------------------------------------------------------------------------------------------------


  energy-cutoff  :     1200.00
  volume of cell :     1280.82
      direct lattice vectors                 reciprocal lattice vectors
    10.860000000  0.000000000  0.000000000     0.092081031  0.000000000  0.000000000
     0.000000000 10.860000000  0.000000000     0.000000000  0.092081031  0.000000000
     0.000000000  0.000000000 10.860000000     0.000000000  0.000000000  0.092081031

  length of vectors
    10.860000000 10.860000000 10.860000000     0.092081031  0.092081031  0.092081031



 old parameters found on file WAVECAR:
  energy-cutoff  :     1200.00
  volume of cell :     1280.82
      direct lattice vectors                 reciprocal lattice vectors
    10.860000000  0.000000000  0.000000000     0.092081031  0.000000000  0.000000000
     0.000000000 10.860000000  0.000000000     0.000000000  0.092081031  0.000000000
     0.000000000  0.000000000 10.860000000     0.000000000  0.000000000  0.092081031

  length of vectors


 k-points in units of 2pi/SCALE and weight: read from INCAR                         
   0.00000000  0.00000000  0.00000000       0.037
   0.03069368  0.00000000  0.00000000       0.222
   0.03069368  0.03069368  0.00000000       0.222
  -0.03069368  0.03069368  0.00000000       0.222
   0.03069368  0.03069368  0.03069368       0.074
  -0.03069368  0.03069368  0.03069368       0.222

 k-points in reciprocal lattice and weights: read from INCAR                         
   0.00000000  0.00000000  0.00000000       0.037
   0.33333333  0.00000000  0.00000000       0.222
   0.33333333  0.33333333  0.00000000       0.222
  -0.33333333  0.33333333  0.00000000       0.222
   0.33333333  0.33333333  0.33333333       0.074
  -0.33333333  0.33333333  0.33333333       0.222

 position of ions in fractional coordinates (direct lattice) 
   0.00000000  0.00000000  0.00000000
   0.12500000  0.12500000  0.12500000
   0.00000000  0.25000000  0.25000000
   0.12500000  0.37500000  0.37500000
   0.25000000  0.00000000  0.25000000
   0.37500000  0.12500000  0.37500000
   0.25000000  0.25000000  0.00000000
   0.37500000  0.37500000  0.12500000
   0.00000000  0.00000000  0.50000000
   0.12500000  0.12500000  0.62500000
   0.00000000  0.25000000  0.75000000
   0.12500000  0.37500000  0.87500000
   0.25000000  0.00000000  0.75000000
   0.37500000  0.12500000  0.87500000
   0.25000000  0.25000000  0.50000000
   0.37500000  0.37500000  0.62500000
   0.00000000  0.50000000  0.00000000
   0.12500000  0.62500000  0.12500000
   0.00000000  0.75000000  0.25000000
   0.12500000  0.87500000  0.37500000
   0.25000000  0.50000000  0.25000000
   0.37500000  0.62500000  0.37500000
   0.25000000  0.75000000  0.00000000
   0.37500000  0.87500000  0.12500000
   0.00000000  0.50000000  0.50000000
   0.12500000  0.62500000  0.62500000
   0.00000000  0.75000000  0.75000000
   0.12500000  0.87500000  0.87500000
   0.25000000  0.50000000  0.75000000
   0.37500000  0.62500000  0.87500000
   0.25000000  0.75000000  0.50000000
   0.37500000  0.87500000  0.62500000
   0.50000000  0.00000000  0.00000000
   0.62500000  0.12500000  0.12500000
   0.50000000  0.25000000  0.25000000
   0.62500000  0.37500000  0.37500000
   0.75000000  0.00000000  0.25000000
   0.87500000  0.12500000  0.37500000
   0.75000000  0.25000000  0.00000000
   0.87500000  0.37500000  0.12500000
   0.50000000  0.00000000  0.50000000
   0.62500000  0.12500000  0.62500000
   0.50000000  0.25000000  0.75000000
   0.62500000  0.37500000  0.87500000
   0.75000000  0.00000000  0.75000000
   0.87500000  0.12500000  0.87500000
   0.75000000  0.25000000  0.50000000
   0.87500000  0.37500000  0.62500000
   0.50000000  0.50000000  0.00000000
   0.62500000  0.62500000  0.12500000
   0.50000000  0.75000000  0.25000000
   0.62500000  0.87500000  0.37500000
   0.75000000  0.50000000  0.25000000
   0.87500000  0.62500000  0.37500000
   0.75000000  0.75000000  0.00000000
   0.87500000  0.87500000  0.12500000
   0.50000000  0.50000000  0.50000000
   0.62500000  0.62500000  0.62500000
   0.50000000  0.75000000  0.75000000
   0.62500000  0.87500000  0.87500000
   0.75000000  0.50000000  0.75000000
   0.87500000  0.62500000  0.87500000
   0.75000000  0.75000000  0.50000000
   0.87500000  0.87500000  0.62500000
   0.06250000  0.06250000  0.06250000

 position of ions in cartesian coordinates  (Angst):
   0.00000000  0.00000000  0.00000000
   1.35750000  1.35750000  1.35750000
   0.00000000  2.71500000  2.71500000
   1.35750000  4.07250000  4.07250000
   2.71500000  0.00000000  2.71500000
   4.07250000  1.35750000  4.07250000
   2.71500000  2.71500000  0.00000000
   4.07250000  4.07250000  1.35750000
   0.00000000  0.00000000  5.43000000
   1.35750000  1.35750000  6.78750000
   0.00000000  2.71500000  8.14500000
   1.35750000  4.07250000  9.50250000
   2.71500000  0.00000000  8.14500000
   4.07250000  1.35750000  9.50250000
   2.71500000  2.71500000  5.43000000
   4.07250000  4.07250000  6.78750000
   0.00000000  5.43000000  0.00000000
   1.35750000  6.78750000  1.35750000
   0.00000000  8.14500000  2.71500000
   1.35750000  9.50250000  4.07250000
   2.71500000  5.43000000  2.71500000
   4.07250000  6.78750000  4.07250000
   2.71500000  8.14500000  0.00000000
   4.07250000  9.50250000  1.35750000
   0.00000000  5.43000000  5.43000000
   1.35750000  6.78750000  6.78750000
   0.00000000  8.14500000  8.14500000
   1.35750000  9.50250000  9.50250000
   2.71500000  5.43000000  8.14500000
   4.07250000  6.78750000  9.50250000
   2.71500000  8.14500000  5.43000000
   4.07250000  9.50250000  6.78750000
   5.43000000  0.00000000  0.00000000
   6.78750000  1.35750000  1.35750000
   5.43000000  2.71500000  2.71500000
   6.78750000  4.07250000  4.07250000
   8.14500000  0.00000000  2.71500000
   9.50250000  1.35750000  4.07250000
   8.14500000  2.71500000  0.00000000
   9.50250000  4.07250000  1.35750000
   5.43000000  0.00000000  5.43000000
   6.78750000  1.35750000  6.78750000
   5.43000000  2.71500000  8.14500000
   6.78750000  4.07250000  9.50250000
   8.14500000  0.00000000  8.14500000
   9.50250000  1.35750000  9.50250000
   8.14500000  2.71500000  5.43000000
   9.50250000  4.07250000  6.78750000
   5.43000000  5.43000000  0.00000000
   6.78750000  6.78750000  1.35750000
   5.43000000  8.14500000  2.71500000
   6.78750000  9.50250000  4.07250000
   8.14500000  5.43000000  2.71500000
   9.50250000  6.78750000  4.07250000
   8.14500000  8.14500000  0.00000000
   9.50250000  9.50250000  1.35750000
   5.43000000  5.43000000  5.43000000
   6.78750000  6.78750000  6.78750000
   5.43000000  8.14500000  8.14500000
   6.78750000  9.50250000  9.50250000
   8.14500000  5.43000000  8.14500000
   9.50250000  6.78750000  9.50250000
   8.14500000  8.14500000  5.43000000
   9.50250000  9.50250000  6.78750000
   0.67875000  0.67875000  0.67875000



--------------------------------------------------------------------------------------------------------


 k-point     1 :   0.0000 0.0000 0.0000  plane waves:  120713
 k-point     2 :   0.3333 0.0000 0.0000  plane waves:  120938
 k-point     3 :   0.3333 0.3333 0.0000  plane waves:  120876
 k-point     4 :  -0.3333 0.3333 0.0000  plane waves:  120876
 k-point     5 :   0.3333 0.3333 0.3333  plane waves:  120885
 k-point     6 :  -0.3333 0.3333 0.3333  plane waves:  120885

 maximum and minimum number of plane-waves per node :      7592     7522

 maximum number of plane-waves:    120938
 maximum index in each direction: 
   IXMAX=   31   IYMAX=   30   IZMAX=   30
   IXMIN=  -31   IYMIN=  -31   IZMIN=  -31


 parallel 3D FFT for wavefunctions:
    minimum data exchange during FFTs selected (reduces bandwidth)
 parallel 3D FFT for charge:
    minimum data exchange during FFTs selected (reduces bandwidth)


 total amount of memory used by VASP MPI-rank0   147363. kBytes
=======================================================================

   base                                    :      30000. kBytes
   nonl-proj                               :      20948. kBytes
   fftplans                                :      40723. kBytes
   grid                                    :      25513. kBytes
   one-center                              :         77. kBytes
   wavefun                                 :      30102. kBytes

     INWAV:  cpu time      1.8464: real time      1.8470
 Broyden mixing: mesh for mixing (old mesh)
   NGX = 61   NGY = 61   NGZ = 61
  (NGX  =252   NGY  =252   NGZ  =252)
  gives a total of 226981 points

 initial charge density was supplied:
 number of electron     256.9999999 magnetization 
 keeping initial charge density in first step


--------------------------------------------------------------------------------------------------------


 Maximum index for augmentation-charges         8553 (set IRDMAX)


--------------------------------------------------------------------------------------------------------


 First call to EWALD:  gamma=   0.163
 Maximum number of real-space cells   3x   3x   3
 Maximum number of reciprocal cells   3x   3x   3

    FEWALD:  cpu time      0.0073: real time      0.0074


--------------------------------------- Ionic step        1  -------------------------------------------




--------------------------------------- Iteration      1(   1)  ---------------------------------------


    POTLOK:  cpu time      0.6940: real time      0.6943
    SETDIJ:  cpu time      1.9527: real time      1.9538
    EDDIAG:  cpu time     10.3636: real time     10.3692
     EDDAV:  cpu time     66.5828: real time     66.6233
       DOS:  cpu time      0.0057: real time      0.0059
    CHARGE:  cpu time     10.3349: real time     10.3403
    MIXING:  cpu time      0.0191: real time      0.0191
    --------------------------------------------
      LOOP:  cpu time     89.9527: real time     90.0059

 eigenvalue-minimisations  :  3000
 total energy-change (2. order) :-0.6805572E+03  (-0.5968818E+00)
 number of electron     256.9999999 magnetization 
 augmentation part      -14.9862589 magnetization 

 Broyden mixing:
  rms(total) = 0.89332E-01    rms(broyden)= 0.71277E+02
  rms(prec ) = 0.72369E+00
  weight for this iteration     100.00
  WARNING: grid for Broyden might be to small

 Free energy of the ion-electron system (eV)
  ---------------------------------------------------
  alpha Z        PSCENC =       196.09192235
  Ewald energy   TEWEN  =     -7306.73091871
  -Hartree energ DENC   =      -489.89034268
  -exchange      EXHF   =         0.00000000
  -V(xc)+E(xc)   XCENC  =      -305.62201279
  PAW double counting   =      7989.81293492    -7337.23063799
  entropy T*S    EENTRO =        -0.02404177
  eigenvalues    EBANDS =       -35.72991521
  atomic energy  EATOM  =      6608.76585177
  Solvation  Ediel_sol  =         0.00000000
  ---------------------------------------------------
  free energy    TOTEN  =      -680.55716010 eV

  energy without entropy =     -680.53311833  energy(sigma->0) =     -680.54513922


--------------------------------------------------------------------------------------------------------




--------------------------------------- Iteration      1(   2)  ---------------------------------------


    POTLOK:  cpu time      0.6966: real time      0.7047
    SETDIJ:  cpu time      1.9476: real time      1.9485
    EDDIAG:  cpu time     10.4166: real time     10.4229
     EDDAV:  cpu time     54.7101: real time     54.7445
       DOS:  cpu time      0.0039: real time      0.0039
    CHARGE:  cpu time     10.3841: real time     10.3897
    MIXING:  cpu time      0.0181: real time      0.0181
    --------------------------------------------
      LOOP:  cpu time     78.1769: real time     78.2323

 eigenvalue-minimisations  :  2208
 total energy-change (2. order) : 0.4517737E+02  (-0.6285908E+00)
 number of electron     256.9999999 magnetization 
 augmentation part      -14.9091016 magnetization 

 Broyden mixing:
  rms(total) = 0.96789E-01    rms(broyden)= 0.41527E+02
  rms(prec ) = 0.43216E+00
  weight for this iteration     100.00
  WARNING: grid for Broyden might be to small

 eigenvalues of (default mixing * dielectric matrix)
  average eigenvalue GAMMA=   0.6318
  0.6318

 Free energy of the ion-electron system (eV)
  ---------------------------------------------------
  alpha Z        PSCENC =       196.09192235
  Ewald energy   TEWEN  =     -7306.73091871
  -Hartree energ DENC   =      -486.32502011
  -exchange      EXHF   =         0.00000000
  -V(xc)+E(xc)   XCENC  =      -299.98128248
  PAW double counting   =      8019.42436367    -7367.11263231
  entropy T*S    EENTRO =        -0.02416985
  eigenvalues    EBANDS =         0.51209086
  atomic energy  EATOM  =      6608.76585177
  Solvation  Ediel_sol  =         0.00000000
  ---------------------------------------------------
  free energy    TOTEN  =      -635.37979481 eV

  energy without entropy =     -635.35562496  energy(sigma->0) =     -635.36770989


--------------------------------------------------------------------------------------------------------




--------------------------------------- Iteration      1(   3)  ---------------------------------------


    POTLOK:  cpu time      0.7055: real time      0.7058
    SETDIJ:  cpu time      1.9466: real time      1.9475
    EDDIAG:  cpu time     10.4129: real time     10.4194
     EDDAV:  cpu time     53.2290: real time     53.2680
       DOS:  cpu time      0.0048: real time      0.0048
    CHARGE:  cpu time     10.3354: real time     10.3413
    MIXING:  cpu time      0.0170: real time      0.0170
    --------------------------------------------
      LOOP:  cpu time     76.6512: real time     76.7039

 eigenvalue-minimisations  :  2112
 total energy-change (2. order) :-0.2839389E+01  (-0.5407047E+00)
 number of electron     256.9999999 magnetization 
 augmentation part      -14.8715062 magnetization 

 Broyden mixing:
  rms(total) = 0.10239E+00    rms(broyden)= 0.88749E+00
  rms(prec ) = 0.12466E+00
  weight for this iteration     100.00
  WARNING: grid for Broyden might be to small

 eigenvalues of (default mixing * dielectric matrix)
  average eigenvalue GAMMA=   0.6616
  0.7004  0.6229

 Free energy of the ion-electron system (eV)
  ---------------------------------------------------
  alpha Z        PSCENC =       196.09192235
  Ewald energy   TEWEN  =     -7306.73091871
  -Hartree energ DENC   =      -487.77698837
  -exchange      EXHF   =         0.00000000
  -V(xc)+E(xc)   XCENC  =      -304.75492508
  PAW double counting   =      8058.92034734    -7406.64666289
  entropy T*S    EENTRO =        -0.02414706
  eigenvalues    EBANDS =         3.93633653
  atomic energy  EATOM  =      6608.76585177
  Solvation  Ediel_sol  =         0.00000000
  ---------------------------------------------------
  free energy    TOTEN  =      -638.21918412 eV

  energy without entropy =     -638.19503706  energy(sigma->0) =     -638.20711059


--------------------------------------------------------------------------------------------------------




--------------------------------------- Iteration      1(   4)  ---------------------------------------


    POTLOK:  cpu time      0.7070: real time      0.7080
    SETDIJ:  cpu time      1.9458: real time      1.9470
    EDDIAG:  cpu time     10.4170: real time     10.4239
     EDDAV:  cpu time     58.8269: real time     58.8689
       DOS:  cpu time      0.0054: real time      0.0054
    CHARGE:  cpu time     10.3297: real time     10.3360
    MIXING:  cpu time      0.0171: real time      0.0171
    --------------------------------------------
      LOOP:  cpu time     82.2489: real time     82.3063

 eigenvalue-minimisations  :  2480
 total energy-change (2. order) :-0.2088952E+00  (-0.5125521E-01)
 number of electron     256.9999999 magnetization 
 augmentation part      -14.8737690 magnetization 

 Broyden mixing:
  rms(total) = 0.12338E+00    rms(broyden)= 0.11851E+01
  rms(prec ) = 0.15120E+00
  weight for this iteration     100.00
  WARNING: grid for Broyden might be to small

 eigenvalues of (default mixing * dielectric matrix)
  average eigenvalue GAMMA=   0.6144
  0.8443  0.6340  0.3648

 Free energy of the ion-electron system (eV)
  ---------------------------------------------------
  alpha Z        PSCENC =       196.09192235
  Ewald energy   TEWEN  =     -7306.73091871
  -Hartree energ DENC   =      -487.36859229
  -exchange      EXHF   =         0.00000000
  -V(xc)+E(xc)   XCENC  =      -306.81870338
  PAW double counting   =      8052.23377177    -7399.96209097
  entropy T*S    EENTRO =        -0.02416474
  eigenvalues    EBANDS =         5.38484489
  atomic energy  EATOM  =      6608.76585177
  Solvation  Ediel_sol  =         0.00000000
  ---------------------------------------------------
  free energy    TOTEN  =      -638.42807932 eV

  energy without entropy =     -638.40391458  energy(sigma->0) =     -638.41599695


--------------------------------------------------------------------------------------------------------




--------------------------------------- Iteration      1(   5)  ---------------------------------------


    POTLOK:  cpu time      0.7038: real time      0.7042
    SETDIJ:  cpu time      1.9433: real time      1.9445
    EDDIAG:  cpu time     10.4489: real time     10.4564
     EDDAV:  cpu time     60.3065: real time     60.3474
       DOS:  cpu time      0.0056: real time      0.0056
    CHARGE:  cpu time     10.2874: real time     10.2930
    MIXING:  cpu time      0.0172: real time      0.0173
    --------------------------------------------
      LOOP:  cpu time     83.7127: real time     83.7684

 eigenvalue-minimisations  :  2584
 total energy-change (2. order) : 0.8238407E-03  (-0.8972330E-02)
 number of electron     256.9999999 magnetization 
 augmentation part      -14.8697821 magnetization 

 Broyden mixing:
  rms(total) = 0.59510E-01    rms(broyden)= 0.15101E+01
  rms(prec ) = 0.76602E-01
  weight for this iteration     100.00
  WARNING: grid for Broyden might be to small

 eigenvalues of (default mixing * dielectric matrix)
  average eigenvalue GAMMA=   0.6906
  1.1808  0.6274  0.6274  0.3268

 Free energy of the ion-electron system (eV)
  ---------------------------------------------------
  alpha Z        PSCENC =       196.09192235
  Ewald energy   TEWEN  =     -7306.73091871
  -Hartree energ DENC   =      -489.80127436
  -exchange      EXHF   =         0.00000000
  -V(xc)+E(xc)   XCENC  =      -305.26265746
  PAW double counting   =      8128.64021241    -7476.42754762
  entropy T*S    EENTRO =        -0.02412115
  eigenvalues    EBANDS =         6.32127729
  atomic energy  EATOM  =      6608.76585177
  Solvation  Ediel_sol  =         0.00000000
  ---------------------------------------------------
  free energy    TOTEN  =      -638.42725548 eV

  energy without entropy =     -638.40313432  energy(sigma->0) =     -638.41519490


--------------------------------------------------------------------------------------------------------




--------------------------------------- Iteration      1(   6)  ---------------------------------------


    POTLOK:  cpu time      0.7054: real time      0.7062
    SETDIJ:  cpu time      1.9444: real time      1.9453
    EDDIAG:  cpu time     10.4362: real time     10.4435
     EDDAV:  cpu time     62.4991: real time     62.5402
       DOS:  cpu time      0.0048: real time      0.0048
    CHARGE:  cpu time     10.3077: real time     10.3122
    MIXING:  cpu time      0.0174: real time      0.0174
    --------------------------------------------
      LOOP:  cpu time     85.9148: real time     85.9695

 eigenvalue-minimisations  :  2728
 total energy-change (2. order) :-0.2687956E-02  (-0.8065344E-03)
 number of electron     256.9999999 magnetization 
 augmentation part      -14.8692027 magnetization 

 Broyden mixing:
  rms(total) = 0.47775E-01    rms(broyden)= 0.53975E+00
  rms(prec ) = 0.61148E-01
  weight for this iteration     100.00
  WARNING: grid for Broyden might be to small

 eigenvalues of (default mixing * dielectric matrix)
  average eigenvalue GAMMA=   0.9348
  2.0972  0.9312  0.3591  0.6544  0.6321

 Free energy of the ion-electron system (eV)
  ---------------------------------------------------
  alpha Z        PSCENC =       196.09192235
  Ewald energy   TEWEN  =     -7306.73091871
  -Hartree energ DENC   =      -490.75018797
  -exchange      EXHF   =         0.00000000
  -V(xc)+E(xc)   XCENC  =      -305.33507789
  PAW double counting   =      8141.61197669    -7489.41911196
  entropy T*S    EENTRO =        -0.02412688
  eigenvalues    EBANDS =         7.35972918
  atomic energy  EATOM  =      6608.76585177
  Solvation  Ediel_sol  =         0.00000000
  ---------------------------------------------------
  free energy    TOTEN  =      -638.42994343 eV

  energy without entropy =     -638.40581655  energy(sigma->0) =     -638.41787999


--------------------------------------------------------------------------------------------------------




--------------------------------------- Iteration      1(   7)  ---------------------------------------


    POTLOK:  cpu time      0.7061: real time      0.7072
    SETDIJ:  cpu time      1.9484: real time      1.9493
    EDDIAG:  cpu time     10.4682: real time     10.4748
     EDDAV:  cpu time     63.3917: real time     63.4352
       DOS:  cpu time      0.0044: real time      0.0044
    CHARGE:  cpu time     10.3138: real time     10.3189
    MIXING:  cpu time      0.0179: real time      0.0179
    --------------------------------------------
      LOOP:  cpu time     86.8506: real time     86.9076

 eigenvalue-minimisations  :  2800
 total energy-change (2. order) :-0.4160058E-03  (-0.1232166E-03)
 number of electron     256.9999999 magnetization 
 augmentation part      -14.8682207 magnetization 

 Broyden mixing:
  rms(total) = 0.43866E-01    rms(broyden)= 0.64262E+00
  rms(prec ) = 0.56165E-01
  weight for this iteration     100.00
  WARNING: grid for Broyden might be to small

 eigenvalues of (default mixing * dielectric matrix)
  average eigenvalue GAMMA=   0.9932
  2.3355  1.1680  0.3547  0.8177  0.6608  0.6227

 Free energy of the ion-electron system (eV)
  ---------------------------------------------------
  alpha Z        PSCENC =       196.09192235
  Ewald energy   TEWEN  =     -7306.73091871
  -Hartree energ DENC   =      -491.15830264
  -exchange      EXHF   =         0.00000000
  -V(xc)+E(xc)   XCENC  =      -305.38430859
  PAW double counting   =      8142.33638485    -7490.15030711
  entropy T*S    EENTRO =        -0.02412919
  eigenvalues    EBANDS =         7.82344785
  atomic energy  EATOM  =      6608.76585177
  Solvation  Ediel_sol  =         0.00000000
  ---------------------------------------------------
  free energy    TOTEN  =      -638.43035944 eV

  energy without entropy =     -638.40623024  energy(sigma->0) =     -638.41829484


--------------------------------------------------------------------------------------------------------




--------------------------------------- Iteration      1(   8)  ---------------------------------------


    POTLOK:  cpu time      0.7055: real time      0.7062
    SETDIJ:  cpu time      1.9472: real time      1.9480
    EDDIAG:  cpu time     10.4477: real time     10.4544
     EDDAV:  cpu time     56.8554: real time     56.8929
       DOS:  cpu time      0.0047: real time      0.0047
    CHARGE:  cpu time     10.3143: real time     10.3201
    MIXING:  cpu time      0.0178: real time      0.0178
    --------------------------------------------
      LOOP:  cpu time     80.2925: real time     80.3441

 eigenvalue-minimisations  :  2344
 total energy-change (2. order) : 0.2827059E-03  (-0.1901128E-03)
 number of electron     256.9999999 magnetization 
 augmentation part      -14.8652647 magnetization 

 Broyden mixing:
  rms(total) = 0.30425E-01    rms(broyden)= 0.39926E+00
  rms(prec ) = 0.38935E-01
  weight for this iteration     100.00
  WARNING: grid for Broyden might be to small

 eigenvalues of (default mixing * dielectric matrix)
  average eigenvalue GAMMA=   1.0316
  2.4615  1.4147  0.9937  0.3573  0.7377  0.6280  0.6280

 Free energy of the ion-electron system (eV)
  ---------------------------------------------------
  alpha Z        PSCENC =       196.09192235
  Ewald energy   TEWEN  =     -7306.73091871
  -Hartree energ DENC   =      -492.36951323
  -exchange      EXHF   =         0.00000000
  -V(xc)+E(xc)   XCENC  =      -305.25579944
  PAW double counting   =      8147.08594868    -7494.91743354
  entropy T*S    EENTRO =        -0.02413463
  eigenvalues    EBANDS =         8.92400002
  atomic energy  EATOM  =      6608.76585177
  Solvation  Ediel_sol  =         0.00000000
  ---------------------------------------------------
  free energy    TOTEN  =      -638.43007673 eV

  energy without entropy =     -638.40594211  energy(sigma->0) =     -638.41800942


--------------------------------------------------------------------------------------------------------




--------------------------------------- Iteration      1(   9)  ---------------------------------------


    POTLOK:  cpu time      0.7050: real time      0.7056
    SETDIJ:  cpu time      1.9451: real time      1.9462
    EDDIAG:  cpu time     10.4711: real time     10.4782
     EDDAV:  cpu time     67.3900: real time     67.4334
       DOS:  cpu time      0.0052: real time      0.0052
    CHARGE:  cpu time     10.3095: real time     10.3144
    MIXING:  cpu time      0.0183: real time      0.0183
    --------------------------------------------
      LOOP:  cpu time     90.8444: real time     90.9014

 eigenvalue-minimisations  :  3056
 total energy-change (2. order) :-0.8482766E-07  (-0.2772801E-04)
 number of electron     256.9999999 magnetization 
 augmentation part      -14.8643289 magnetization 

 Broyden mixing:
  rms(total) = 0.25828E-01    rms(broyden)= 0.35463E+00
  rms(prec ) = 0.33096E-01
  weight for this iteration     100.00
  WARNING: grid for Broyden might be to small

 eigenvalues of (default mixing * dielectric matrix)
  average eigenvalue GAMMA=   1.0344
  2.5592  1.5801  1.0134  0.3562  0.8476  0.6583  0.6583  0.6017

 Free energy of the ion-electron system (eV)
  ---------------------------------------------------
  alpha Z        PSCENC =       196.09192235
  Ewald energy   TEWEN  =     -7306.73091871
  -Hartree energ DENC   =      -492.77083803
  -exchange      EXHF   =         0.00000000
  -V(xc)+E(xc)   XCENC  =      -305.21323193
  PAW double counting   =      8148.74937403    -7496.58562019
  entropy T*S    EENTRO =        -0.02413315
  eigenvalues    EBANDS =         9.28751706
  atomic energy  EATOM  =      6608.76585177
  Solvation  Ediel_sol  =         0.00000000
  ---------------------------------------------------
  free energy    TOTEN  =      -638.43007682 eV

  energy without entropy =     -638.40594366  energy(sigma->0) =     -638.41801024


--------------------------------------------------------------------------------------------------------




--------------------------------------- Iteration      1(  10)  ---------------------------------------


    POTLOK:  cpu time      0.7042: real time      0.7054
    SETDIJ:  cpu time      1.9465: real time      1.9473
    EDDIAG:  cpu time     10.4362: real time     10.4436
     EDDAV:  cpu time     55.1344: real time     55.1693
       DOS:  cpu time      0.0051: real time      0.0051
    CHARGE:  cpu time     10.3414: real time     10.3474
    MIXING:  cpu time      0.0183: real time      0.0183
    --------------------------------------------
      LOOP:  cpu time     78.5860: real time     78.6362

 eigenvalue-minimisations  :  2240
 total energy-change (2. order) : 0.3371207E-03  (-0.1526066E-03)
 number of electron     256.9999999 magnetization 
 augmentation part      -14.8613063 magnetization 

 Broyden mixing:
  rms(total) = 0.12837E-01    rms(broyden)= 0.17800E+00
  rms(prec ) = 0.16417E-01
  weight for this iteration     100.00
  WARNING: grid for Broyden might be to small

 eigenvalues of (default mixing * dielectric matrix)
  average eigenvalue GAMMA=   1.0784
  2.6324  1.4349  1.2688  1.2688  0.3567  0.8288  0.6743  0.6205  0.6205

 Free energy of the ion-electron system (eV)
  ---------------------------------------------------
  alpha Z        PSCENC =       196.09192235
  Ewald energy   TEWEN  =     -7306.73091871
  -Hartree energ DENC   =      -493.92095813
  -exchange      EXHF   =         0.00000000
  -V(xc)+E(xc)   XCENC  =      -305.06667348
  PAW double counting   =      8152.68251536    -7500.53159300
  entropy T*S    EENTRO =        -0.02413165
  eigenvalues    EBANDS =        10.30424579
  atomic energy  EATOM  =      6608.76585177
  Solvation  Ediel_sol  =         0.00000000
  ---------------------------------------------------
  free energy    TOTEN  =      -638.42973969 eV

  energy without entropy =     -638.40560805  energy(sigma->0) =     -638.41767387


--------------------------------------------------------------------------------------------------------




--------------------------------------- Iteration      1(  11)  ---------------------------------------


    POTLOK:  cpu time      0.7064: real time      0.7071
    SETDIJ:  cpu time      1.9493: real time      1.9503
    EDDIAG:  cpu time     10.4579: real time     10.4651
     EDDAV:  cpu time     61.2087: real time     61.2534
       DOS:  cpu time      0.0050: real time      0.0050
    CHARGE:  cpu time     10.3539: real time     10.3598
    MIXING:  cpu time      0.0187: real time      0.0187
    --------------------------------------------
      LOOP:  cpu time     84.6998: real time     84.7595

 eigenvalue-minimisations  :  2648
 total energy-change (2. order) : 0.1047081E-03  (-0.9970341E-04)
 number of electron     256.9999999 magnetization 
 augmentation part      -14.8589744 magnetization 

 Broyden mixing:
  rms(total) = 0.26501E-02    rms(broyden)= 0.36168E-01
  rms(prec ) = 0.33801E-02
  weight for this iteration     100.00
  WARNING: grid for Broyden might be to small

 eigenvalues of (default mixing * dielectric matrix)
  average eigenvalue GAMMA=   1.4759
  5.6213  2.4686  1.6220  1.1084  0.9437  0.3566  0.7349  0.6478  0.6331  0.6228

 Free energy of the ion-electron system (eV)
  ---------------------------------------------------
  alpha Z        PSCENC =       196.09192235
  Ewald energy   TEWEN  =     -7306.73091871
  -Hartree energ DENC   =      -494.82149103
  -exchange      EXHF   =         0.00000000
  -V(xc)+E(xc)   XCENC  =      -304.95131828
  PAW double counting   =      8155.87571173    -7503.73506163
  entropy T*S    EENTRO =        -0.02413144
  eigenvalues    EBANDS =        11.09980025
  atomic energy  EATOM  =      6608.76585177
  Solvation  Ediel_sol  =         0.00000000
  ---------------------------------------------------
  free energy    TOTEN  =      -638.42963499 eV

  energy without entropy =     -638.40550355  energy(sigma->0) =     -638.41756927


--------------------------------------------------------------------------------------------------------




--------------------------------------- Iteration      1(  12)  ---------------------------------------


    POTLOK:  cpu time      0.7054: real time      0.7063
    SETDIJ:  cpu time      1.9466: real time      1.9476
    EDDIAG:  cpu time     10.4320: real time     10.4391
     EDDAV:  cpu time     66.7431: real time     66.7894
       DOS:  cpu time      0.0028: real time      0.0028
    CHARGE:  cpu time     10.3892: real time     10.3950
    MIXING:  cpu time      0.0190: real time      0.0190
    --------------------------------------------
      LOOP:  cpu time     90.2380: real time     90.2993

 eigenvalue-minimisations  :  2992
 total energy-change (2. order) :-0.1189412E-04  (-0.7889640E-05)
 number of electron     256.9999999 magnetization 
 augmentation part      -14.8584755 magnetization 

 Broyden mixing:
  rms(total) = 0.34828E-03    rms(broyden)= 0.65711E-02
  rms(prec ) = 0.43757E-03
  weight for this iteration     100.00
  WARNING: grid for Broyden might be to small

 eigenvalues of (default mixing * dielectric matrix)
  average eigenvalue GAMMA=   1.4841
  6.5438  2.4856  1.5659  1.0385  0.3566  0.9015  0.7673  0.7673  0.6554  0.6287
  0.6149

 Free energy of the ion-electron system (eV)
  ---------------------------------------------------
  alpha Z        PSCENC =       196.09192235
  Ewald energy   TEWEN  =     -7306.73091871
  -Hartree energ DENC   =      -495.02695350
  -exchange      EXHF   =         0.00000000
  -V(xc)+E(xc)   XCENC  =      -304.93297306
  PAW double counting   =      8156.59674534    -7504.45789758
  entropy T*S    EENTRO =        -0.02413157
  eigenvalues    EBANDS =        11.28870808
  atomic energy  EATOM  =      6608.76585177
  Solvation  Ediel_sol  =         0.00000000
  ---------------------------------------------------
  free energy    TOTEN  =      -638.42964688 eV

  energy without entropy =     -638.40551531  energy(sigma->0) =     -638.41758109


--------------------------------------------------------------------------------------------------------




--------------------------------------- Iteration      1(  13)  ---------------------------------------


    POTLOK:  cpu time      0.7087: real time      0.7096
    SETDIJ:  cpu time      1.9498: real time      1.9507
    EDDIAG:  cpu time     10.4529: real time     10.4602
     EDDAV:  cpu time     47.1463: real time     47.1795
       DOS:  cpu time      0.0044: real time      0.0044
    CHARGE:  cpu time     10.3661: real time     10.3723
    MIXING:  cpu time      0.0190: real time      0.0190
    --------------------------------------------
      LOOP:  cpu time     70.6473: real time     70.6957

 eigenvalue-minimisations  :  1696
 total energy-change (2. order) :-0.1251620E-04  (-0.2407251E-06)
 number of electron     256.9999999 magnetization 
 augmentation part      -14.8584468 magnetization 

 Broyden mixing:
  rms(total) = 0.16786E-03    rms(broyden)= 0.39239E-02
  rms(prec ) = 0.20298E-03
  weight for this iteration     100.00
  WARNING: grid for Broyden might be to small

 eigenvalues of (default mixing * dielectric matrix)
  average eigenvalue GAMMA=   1.4631
  6.6729  2.4927  1.5350  1.0733  1.0733  0.9731  0.3566  0.7995  0.6937  0.6185
  0.6331  0.6354

 Free energy of the ion-electron system (eV)
  ---------------------------------------------------
  alpha Z        PSCENC =       196.09192235
  Ewald energy   TEWEN  =     -7306.73091871
  -Hartree energ DENC   =      -495.06343536
  -exchange      EXHF   =         0.00000000
  -V(xc)+E(xc)   XCENC  =      -304.93110354
  PAW double counting   =      8156.71396696    -7504.57490588
  entropy T*S    EENTRO =        -0.02413161
  eigenvalues    EBANDS =        11.32309463
  atomic energy  EATOM  =      6608.76585177
  Solvation  Ediel_sol  =         0.00000000
  ---------------------------------------------------
  free energy    TOTEN  =      -638.42965940 eV

  energy without entropy =     -638.40552779  energy(sigma->0) =     -638.41759359


--------------------------------------------------------------------------------------------------------




--------------------------------------- Iteration      1(  14)  ---------------------------------------


    POTLOK:  cpu time      0.7017: real time      0.7077
    SETDIJ:  cpu time      1.9450: real time      1.9459
    EDDIAG:  cpu time     10.4445: real time     10.4516
     EDDAV:  cpu time     42.9583: real time     42.9872
       DOS:  cpu time      0.0046: real time      0.0046
    CHARGE:  cpu time     10.3294: real time     10.3348
    MIXING:  cpu time      0.0194: real time      0.0194
    --------------------------------------------
      LOOP:  cpu time     66.4028: real time     66.4512

 eigenvalue-minimisations  :  1432
 total energy-change (2. order) :-0.9323496E-05  (-0.1204996E-06)
 number of electron     256.9999999 magnetization 
 augmentation part      -14.8584464 magnetization 

 Broyden mixing:
  rms(total) = 0.13093E-03    rms(broyden)= 0.35986E-02
  rms(prec ) = 0.16803E-03
  weight for this iteration     100.00
  WARNING: grid for Broyden might be to small

 eigenvalues of (default mixing * dielectric matrix)
  average eigenvalue GAMMA=   1.4682
  6.8068  2.5019  1.4738  1.3412  1.3412  1.0727  0.3566  0.8844  0.7493  0.6600
  0.6600  0.6190  0.6190

 Free energy of the ion-electron system (eV)
  ---------------------------------------------------
  alpha Z        PSCENC =       196.09192235
  Ewald energy   TEWEN  =     -7306.73091871
  -Hartree energ DENC   =      -495.04483713
  -exchange      EXHF   =         0.00000000
  -V(xc)+E(xc)   XCENC  =      -304.93551190
  PAW double counting   =      8156.66648425    -7504.52674866
  entropy T*S    EENTRO =        -0.02413175
  eigenvalues    EBANDS =        11.30822106
  atomic energy  EATOM  =      6608.76585177
  Solvation  Ediel_sol  =         0.00000000
  ---------------------------------------------------
  free energy    TOTEN  =      -638.42966872 eV

  energy without entropy =     -638.40553697  energy(sigma->0) =     -638.41760285


--------------------------------------------------------------------------------------------------------




--------------------------------------- Iteration      1(  15)  ---------------------------------------


    POTLOK:  cpu time      0.7057: real time      0.7064
    SETDIJ:  cpu time      1.9482: real time      1.9492
    EDDIAG:  cpu time     10.4409: real time     10.4480
     EDDAV:  cpu time     42.5247: real time     42.5550
       DOS:  cpu time      0.0042: real time      0.0042
    CHARGE:  cpu time     10.3573: real time     10.3633
    MIXING:  cpu time      0.0196: real time      0.0197
    --------------------------------------------
      LOOP:  cpu time     66.0007: real time     66.0458

 eigenvalue-minimisations  :  1392
 total energy-change (2. order) :-0.2413997E-05  (-0.6282089E-07)
 number of electron     256.9999999 magnetization 
 augmentation part      -14.8584488 magnetization 

 Broyden mixing:
  rms(total) = 0.57432E-04    rms(broyden)= 0.64752E-03
  rms(prec ) = 0.73908E-04
  weight for this iteration     100.00
  WARNING: grid for Broyden might be to small

 eigenvalues of (default mixing * dielectric matrix)
  average eigenvalue GAMMA=   1.4376
  6.8107  2.5055  1.5491  1.4609  1.2148  1.2148  0.3566  0.9440  0.8266  0.7224
  0.6569  0.6245  0.6202  0.6202

 Free energy of the ion-electron system (eV)
  ---------------------------------------------------
  alpha Z        PSCENC =       196.09192235
  Ewald energy   TEWEN  =     -7306.73091871
  -Hartree energ DENC   =      -495.05174863
  -exchange      EXHF   =         0.00000000
  -V(xc)+E(xc)   XCENC  =      -304.93423069
  PAW double counting   =      8156.70452234    -7504.56473766
  entropy T*S    EENTRO =        -0.02413176
  eigenvalues    EBANDS =        11.31379985
  atomic energy  EATOM  =      6608.76585177
  Solvation  Ediel_sol  =         0.00000000
  ---------------------------------------------------
  free energy    TOTEN  =      -638.42967113 eV

  energy without entropy =     -638.40553938  energy(sigma->0) =     -638.41760525


--------------------------------------------------------------------------------------------------------




--------------------------------------- Iteration      1(  16)  ---------------------------------------


    POTLOK:  cpu time      0.7047: real time      0.7053
    SETDIJ:  cpu time      1.9484: real time      1.9493
    EDDIAG:  cpu time     10.4556: real time     10.4638
     EDDAV:  cpu time     42.4518: real time     42.4825
       DOS:  cpu time      0.0042: real time      0.0042
    --------------------------------------------
      LOOP:  cpu time     55.5652: real time     55.6056

 eigenvalue-minimisations  :  1392
 total energy-change (2. order) : 0.2652787E-06  (-0.4481775E-07)
 number of electron     256.9999999 magnetization 
 augmentation part      -14.8584488 magnetization 

 Free energy of the ion-electron system (eV)
  ---------------------------------------------------
  alpha Z        PSCENC =       196.09192235
  Ewald energy   TEWEN  =     -7306.73091871
  -Hartree energ DENC   =      -495.06404470
  -exchange      EXHF   =         0.00000000
  -V(xc)+E(xc)   XCENC  =      -304.93191862
  PAW double counting   =      8156.76025406    -7504.62059388
  entropy T*S    EENTRO =        -0.02413175
  eigenvalues    EBANDS =        11.32390861
  atomic energy  EATOM  =      6608.76585177
  Solvation  Ediel_sol  =         0.00000000
  ---------------------------------------------------
  free energy    TOTEN  =      -638.42967087 eV

  energy without entropy =     -638.40553912  energy(sigma->0) =     -638.41760499


--------------------------------------------------------------------------------------------------------




 average (electrostatic) potential at core
  the test charge radii are     1.1243  0.5201
  (the norm of the test charge is              1.0000)
       1 -70.6419       2 -70.6422       3 -69.5413       4 -69.4158       5 -69.5413
       6 -69.4158       7 -69.5411       8 -69.4157       9 -69.3008      10 -69.3008
      11 -69.3432      12 -69.3433      13 -69.3432      14 -69.3433      15 -69.3173
      16 -69.2958      17 -69.3008      18 -69.3008      19 -69.3432      20 -69.3433
      21 -69.3173      22 -69.2958      23 -69.3432      24 -69.3433      25 -69.3748
      26 -69.3747      27 -69.4159      28 -69.5414      29 -69.3191      30 -69.3192
      31 -69.3191      32 -69.3192      33 -69.3008      34 -69.3008      35 -69.3173
      36 -69.2959      37 -69.3433      38 -69.3434      39 -69.3433      40 -69.3434
      41 -69.3747      42 -69.3748      43 -69.3192      44 -69.3192      45 -69.4159
      46 -69.5415      47 -69.3192      48 -69.3192      49 -69.3747      50 -69.3748
      51 -69.3191      52 -69.3192      53 -69.3192      54 -69.3192      55 -69.4160
      56 -69.5416      57 -69.2744      58 -69.2745      59 -69.2958      60 -69.3174
      61 -69.2958      62 -69.3174      63 -69.2958      64 -69.3174      65 -44.3710



 E-fermi :   6.2656     XC(G=0):  -9.8113     alpha+bet :-11.6374

 WARNING: Could not determine fundamental gap because eigenvalues are not
     sorted.

 Fermi energy:         6.2655983455

 k-point     1 :       0.0000    0.0000    0.0000
  band No.  band energies     occupation 
      1     -10.0571      2.00000
      2      -6.9938      2.00000
      3      -6.0034      2.00000
      4      -5.9489      2.00000
      5      -5.9488      2.00000
      6      -5.9359      2.00000
      7      -5.9358      2.00000
      8      -5.6793      2.00000
      9      -5.0680      2.00000
     10      -4.9703      2.00000
     11      -4.9702      2.00000
     12      -4.9585      2.00000
     13      -4.9585      2.00000
     14      -4.9409      2.00000
     15      -4.9283      2.00000
     16      -4.9283      2.00000
     17      -4.9243      2.00000
     18      -4.9243      2.00000
     19      -4.9191      2.00000
     20      -4.7000      2.00000
     21      -4.6535      2.00000
     22      -4.6440      2.00000
     23      -4.6440      2.00000
     24      -3.9297      2.00000
     25      -2.8943      2.00000
     26      -2.7695      2.00000
     27      -2.7695      2.00000
     28      -2.7644      2.00000
     29      -2.7643      2.00000
     30      -2.6549      2.00000
     31      -2.6231      2.00000
     32      -2.5974      2.00000
     33      -2.5974      2.00000
     34      -2.5912      2.00000
     35      -2.5911      2.00000
     36      -2.5592      2.00000
     37      -2.5591      2.00000
     38      -2.5579      2.00000
     39      -2.5579      2.00000
     40      -2.5528      2.00000
     41      -2.5522      2.00000
     42      -1.9923      2.00000
     43      -1.8830      2.00000
     44      -1.8830      2.00000
     45      -1.8679      2.00000
     46      -1.2151      2.00000
     47      -0.4372      2.00000
     48      -0.3398      2.00000
[...]
    10.860000000  0.000000000  0.000000000     0.092081031  0.000000000  0.000000000
     0.000000000 10.860000000  0.000000000     0.000000000  0.092081031  0.000000000
     0.000000000  0.000000000 10.860000000     0.000000000  0.000000000  0.092081031

  length of vectors
    10.860000000 10.860000000 10.860000000     0.092081031  0.092081031  0.092081031


 FORCES acting on ions
    electron-ion (+dipol)            ewald-force                    non-local-force                 convergence-correction
 -----------------------------------------------------------------------------------------------
   0.198E+02 0.198E+02 0.198E+02   -.239E+02 -.239E+02 -.239E+02   -.332E+01 -.332E+01 -.332E+01   0.979E-05 0.979E-05 0.979E-05
   -.198E+02 -.198E+02 -.198E+02   0.239E+02 0.239E+02 0.239E+02   0.332E+01 0.332E+01 0.332E+01   -.979E-05 -.979E-05 -.979E-05
   0.363E+00 -.344E+01 -.344E+01   -.142E+01 0.417E+01 0.417E+01   0.607E+00 -.705E+00 -.705E+00   0.210E-04 -.599E-04 -.599E-04
   0.304E+00 -.833E+00 -.833E+00   0.304E+00 0.119E+01 0.119E+01   -.352E+00 -.364E+00 -.364E+00   0.254E-04 -.349E-04 -.349E-04
   -.344E+01 0.363E+00 -.344E+01   0.417E+01 -.142E+01 0.417E+01   -.705E+00 0.607E+00 -.705E+00   -.599E-04 0.210E-04 -.599E-04
   -.833E+00 0.304E+00 -.833E+00   0.119E+01 0.304E+00 0.119E+01   -.364E+00 -.352E+00 -.364E+00   -.349E-04 0.254E-04 -.349E-04
   -.344E+01 -.344E+01 0.363E+00   0.417E+01 0.417E+01 -.142E+01   -.705E+00 -.705E+00 0.607E+00   -.599E-04 -.599E-04 0.210E-04
   -.833E+00 -.833E+00 0.304E+00   0.119E+01 0.119E+01 0.304E+00   -.364E+00 -.364E+00 -.352E+00   -.349E-04 -.349E-04 0.254E-04
   0.388E+00 0.388E+00 -.934E+00   -.352E+00 -.352E+00 0.985E+00   -.158E-01 -.158E-01 -.394E-01   0.163E-04 0.163E-04 -.263E-04
   -.388E+00 -.388E+00 0.934E+00   0.352E+00 0.352E+00 -.985E+00   0.158E-01 0.158E-01 0.394E-01   -.163E-04 -.163E-04 0.263E-04
   0.773E+00 -.144E+01 0.211E+01   -.544E+00 0.157E+01 -.231E+01   -.139E+00 -.116E+00 0.162E+00   0.320E-04 -.502E-04 0.600E-04
   -.773E+00 -.211E+01 0.144E+01   0.544E+00 0.231E+01 -.157E+01   0.139E+00 -.162E+00 0.116E+00   -.320E-04 -.600E-04 0.502E-04
   -.144E+01 0.773E+00 0.211E+01   0.157E+01 -.544E+00 -.231E+01   -.116E+00 -.139E+00 0.162E+00   -.502E-04 0.320E-04 0.600E-04
   -.211E+01 -.773E+00 0.144E+01   0.231E+01 0.544E+00 -.157E+01   -.162E+00 0.139E+00 0.116E+00   -.600E-04 -.320E-04 0.502E-04
   -.616E+00 -.616E+00 -.411E+00   0.629E+00 0.629E+00 0.531E+00   -.206E-01 -.206E-01 -.868E-01   -.141E-04 -.141E-04 -.350E-04
   -.353E+00 -.353E+00 0.201E+00   0.425E+00 0.425E+00 -.231E+00   -.580E-01 -.580E-01 0.734E-02   0.179E-05 0.179E-05 -.214E-05
   0.388E+00 -.934E+00 0.388E+00   -.352E+00 0.985E+00 -.352E+00   -.158E-01 -.394E-01 -.158E-01   0.163E-04 -.263E-04 0.163E-04
   -.388E+00 0.934E+00 -.388E+00   0.352E+00 -.985E+00 0.352E+00   0.158E-01 0.394E-01 0.158E-01   -.163E-04 0.263E-04 -.163E-04
   0.773E+00 0.211E+01 -.144E+01   -.544E+00 -.231E+01 0.157E+01   -.139E+00 0.162E+00 -.116E+00   0.320E-04 0.600E-04 -.502E-04
   -.773E+00 0.144E+01 -.211E+01   0.544E+00 -.157E+01 0.231E+01   0.139E+00 0.116E+00 -.162E+00   -.320E-04 0.502E-04 -.600E-04
   -.616E+00 -.411E+00 -.616E+00   0.629E+00 0.531E+00 0.629E+00   -.206E-01 -.868E-01 -.206E-01   -.141E-04 -.350E-04 -.141E-04
   -.353E+00 0.201E+00 -.353E+00   0.425E+00 -.231E+00 0.425E+00   -.580E-01 0.734E-02 -.580E-01   0.179E-05 -.214E-05 0.179E-05
   -.144E+01 0.211E+01 0.773E+00   0.157E+01 -.231E+01 -.544E+00   -.116E+00 0.162E+00 -.139E+00   -.502E-04 0.600E-04 0.320E-04
   -.211E+01 0.144E+01 -.773E+00   0.231E+01 -.157E+01 0.544E+00   -.162E+00 0.116E+00 0.139E+00   -.600E-04 0.502E-04 -.320E-04
   -.135E+00 -.181E+00 -.181E+00   -.145E+00 0.269E+00 0.269E+00   0.161E+00 -.905E-01 -.905E-01   -.502E-05 -.536E-05 -.536E-05
   0.136E+00 0.181E+00 0.181E+00   0.145E+00 -.269E+00 -.269E+00   -.161E+00 0.905E-01 0.905E-01   0.502E-05 0.536E-05 0.536E-05
   -.304E+00 0.834E+00 0.834E+00   -.304E+00 -.119E+01 -.119E+01   0.352E+00 0.364E+00 0.364E+00   -.254E-04 0.349E-04 0.349E-04
   -.362E+00 0.344E+01 0.344E+01   0.142E+01 -.417E+01 -.417E+01   -.607E+00 0.705E+00 0.705E+00   -.210E-04 0.599E-04 0.599E-04
   -.319E+00 -.336E+00 0.541E+00   0.449E+00 0.334E+00 -.576E+00   -.841E-01 -.205E-01 0.451E-01   0.973E-05 0.248E-05 0.180E-05
   -.541E+00 0.336E+00 0.319E+00   0.576E+00 -.334E+00 -.449E+00   -.451E-01 0.205E-01 0.841E-01   -.180E-05 -.248E-05 -.973E-05
   -.319E+00 0.541E+00 -.336E+00   0.449E+00 -.576E+00 0.334E+00   -.841E-01 0.451E-01 -.205E-01   0.973E-05 0.180E-05 0.248E-05
   -.541E+00 0.319E+00 0.336E+00   0.576E+00 -.449E+00 -.334E+00   -.451E-01 0.841E-01 0.205E-01   -.180E-05 -.973E-05 -.248E-05
   -.934E+00 0.388E+00 0.388E+00   0.985E+00 -.352E+00 -.352E+00   -.394E-01 -.158E-01 -.158E-01   -.263E-04 0.163E-04 0.163E-04
   0.934E+00 -.388E+00 -.388E+00   -.985E+00 0.352E+00 0.352E+00   0.394E-01 0.158E-01 0.158E-01   0.263E-04 -.163E-04 -.163E-04
   -.411E+00 -.616E+00 -.616E+00   0.531E+00 0.629E+00 0.629E+00   -.868E-01 -.206E-01 -.206E-01   -.350E-04 -.141E-04 -.141E-04
   0.201E+00 -.353E+00 -.353E+00   -.231E+00 0.425E+00 0.425E+00   0.734E-02 -.580E-01 -.580E-01   -.214E-05 0.179E-05 0.179E-05
   0.211E+01 0.773E+00 -.144E+01   -.231E+01 -.544E+00 0.157E+01   0.162E+00 -.139E+00 -.116E+00   0.600E-04 0.320E-04 -.502E-04
   0.144E+01 -.773E+00 -.211E+01   -.157E+01 0.544E+00 0.231E+01   0.116E+00 0.139E+00 -.162E+00   0.502E-04 -.320E-04 -.600E-04
   0.211E+01 -.144E+01 0.773E+00   -.231E+01 0.157E+01 -.544E+00   0.162E+00 -.116E+00 -.139E+00   0.600E-04 -.502E-04 0.320E-04
   0.144E+01 -.211E+01 -.773E+00   -.157E+01 0.231E+01 0.544E+00   0.116E+00 -.162E+00 0.139E+00   0.502E-04 -.600E-04 -.320E-04
   -.181E+00 -.135E+00 -.181E+00   0.269E+00 -.145E+00 0.269E+00   -.905E-01 0.161E+00 -.905E-01   -.536E-05 -.502E-05 -.536E-05
   0.181E+00 0.136E+00 0.181E+00   -.269E+00 0.145E+00 -.269E+00   0.905E-01 -.161E+00 0.905E-01   0.536E-05 0.502E-05 0.536E-05
   -.336E+00 -.319E+00 0.541E+00   0.334E+00 0.449E+00 -.576E+00   -.205E-01 -.841E-01 0.451E-01   0.248E-05 0.973E-05 0.180E-05
   0.336E+00 -.541E+00 0.319E+00   -.334E+00 0.576E+00 -.449E+00   0.205E-01 -.451E-01 0.841E-01   -.248E-05 -.180E-05 -.973E-05
   0.834E+00 -.304E+00 0.834E+00   -.119E+01 -.304E+00 -.119E+01   0.364E+00 0.352E+00 0.364E+00   0.349E-04 -.254E-04 0.349E-04
   0.344E+01 -.362E+00 0.344E+01   -.417E+01 0.142E+01 -.417E+01   0.705E+00 -.607E+00 0.705E+00   0.599E-04 -.210E-04 0.599E-04
   0.541E+00 -.319E+00 -.336E+00   -.576E+00 0.449E+00 0.334E+00   0.451E-01 -.841E-01 -.205E-01   0.180E-05 0.973E-05 0.248E-05
   0.319E+00 -.541E+00 0.336E+00   -.449E+00 0.576E+00 -.334E+00   0.841E-01 -.451E-01 0.205E-01   -.973E-05 -.180E-05 -.248E-05
   -.181E+00 -.181E+00 -.135E+00   0.269E+00 0.269E+00 -.145E+00   -.905E-01 -.905E-01 0.161E+00   -.536E-05 -.536E-05 -.502E-05
   0.181E+00 0.181E+00 0.136E+00   -.269E+00 -.269E+00 0.145E+00   0.905E-01 0.905E-01 -.161E+00   0.536E-05 0.536E-05 0.502E-05
   -.336E+00 0.541E+00 -.319E+00   0.334E+00 -.576E+00 0.449E+00   -.205E-01 0.451E-01 -.841E-01   0.248E-05 0.180E-05 0.973E-05
   0.336E+00 0.319E+00 -.541E+00   -.334E+00 -.449E+00 0.576E+00   0.205E-01 0.841E-01 -.451E-01   -.248E-05 -.973E-05 -.180E-05
   0.541E+00 -.336E+00 -.319E+00   -.576E+00 0.334E+00 0.449E+00   0.451E-01 -.205E-01 -.841E-01   0.180E-05 0.248E-05 0.973E-05
   0.319E+00 0.336E+00 -.541E+00   -.449E+00 -.334E+00 0.576E+00   0.841E-01 0.205E-01 -.451E-01   -.973E-05 -.248E-05 -.180E-05
   0.834E+00 0.834E+00 -.304E+00   -.119E+01 -.119E+01 -.304E+00   0.364E+00 0.364E+00 0.352E+00   0.349E-04 0.349E-04 -.254E-04
   0.344E+01 0.344E+01 -.362E+00   -.417E+01 -.417E+01 0.142E+01   0.705E+00 0.705E+00 -.607E+00   0.599E-04 0.599E-04 -.210E-04
   -.117E+00 -.117E+00 -.117E+00   0.134E+00 0.134E+00 0.134E+00   -.121E-01 -.121E-01 -.121E-01   0.147E-05 0.147E-05 0.147E-05
   0.117E+00 0.117E+00 0.117E+00   -.134E+00 -.134E+00 -.134E+00   0.121E-01 0.121E-01 0.121E-01   -.147E-05 -.147E-05 -.147E-05
   -.201E+00 0.353E+00 0.353E+00   0.231E+00 -.425E+00 -.425E+00   -.734E-02 0.580E-01 0.580E-01   0.214E-05 -.179E-05 -.179E-05
   0.411E+00 0.616E+00 0.616E+00   -.531E+00 -.629E+00 -.629E+00   0.868E-01 0.206E-01 0.206E-01   0.350E-04 0.141E-04 0.141E-04
   0.353E+00 -.201E+00 0.353E+00   -.425E+00 0.231E+00 -.425E+00   0.580E-01 -.734E-02 0.580E-01   -.179E-05 0.214E-05 -.179E-05
   0.616E+00 0.411E+00 0.616E+00   -.629E+00 -.531E+00 -.629E+00   0.206E-01 0.868E-01 0.206E-01   0.141E-04 0.350E-04 0.141E-04
   0.353E+00 0.353E+00 -.201E+00   -.425E+00 -.425E+00 0.231E+00   0.580E-01 0.580E-01 -.734E-02   -.179E-05 -.179E-05 0.214E-05
   0.616E+00 0.616E+00 0.411E+00   -.629E+00 -.629E+00 -.531E+00   0.206E-01 0.206E-01 0.868E-01   0.141E-04 0.141E-04 0.350E-04
   0.162E-08 0.162E-08 -.104E-08   0.163E-13 0.819E-14 0.915E-14   0.577E-21 -.500E-19 0.526E-19   0.186E-13 0.144E-13 -.326E-14
 -----------------------------------------------------------------------------------------------
   0.385E-02 0.385E-02 0.385E-02   -.798E-13 0.851E-13 0.138E-14   0.138E-14 0.520E-15 0.971E-15   0.158E-13 -.658E-13 -.250E-12


 POSITION                                       TOTAL-FORCE (eV/Angst)
 -----------------------------------------------------------------------------------
      0.00000      0.00000      0.00000        -7.504508     -7.504508     -7.504508
      1.35750      1.35750      1.35750         7.504508      7.504508      7.504508
      0.00000      2.71500      2.71500        -0.405751     -0.032267     -0.032267
      1.35750      4.07250      4.07250         0.233381     -0.033978     -0.033978
      2.71500      0.00000      2.71500        -0.032267     -0.405751     -0.032267
      4.07250      1.35750      4.07250        -0.033978      0.233381     -0.033978
      2.71500      2.71500      0.00000        -0.032267     -0.032267     -0.405751
      4.07250      4.07250      1.35750        -0.033978     -0.033978      0.233381
      0.00000      0.00000      5.43000         0.019771      0.019771      0.007646
      1.35750      1.35750      6.78750        -0.019771     -0.019771     -0.007646
      0.00000      2.71500      8.14500         0.080189      0.003445     -0.025824
      1.35750      4.07250      9.50250        -0.080189      0.025824     -0.003445
      2.71500      0.00000      8.14500         0.003445      0.080189     -0.025824
      4.07250      1.35750      9.50250         0.025824     -0.080189     -0.003445
      2.71500      2.71500      5.43000        -0.009472     -0.009472      0.025828
      4.07250      4.07250      6.78750         0.009404      0.009404     -0.022641
      0.00000      5.43000      0.00000         0.019771      0.007646      0.019771
      1.35750      6.78750      1.35750        -0.019771     -0.007646     -0.019771
      0.00000      8.14500      2.71500         0.080189     -0.025824      0.003445
      1.35750      9.50250      4.07250        -0.080189     -0.003445      0.025824
      2.71500      5.43000      2.71500        -0.009472      0.025828     -0.009472
      4.07250      6.78750      4.07250         0.009404     -0.022641      0.009404
      2.71500      8.14500      0.00000         0.003445     -0.025824      0.080189
      4.07250      9.50250      1.35750         0.025824     -0.003445     -0.080189
      0.00000      5.43000      5.43000        -0.108964     -0.010378     -0.010378
      1.35750      6.78750      6.78750         0.108964      0.010378      0.010378
      0.00000      8.14500      8.14500        -0.233381      0.033978      0.033978
      1.35750      9.50250      9.50250         0.405751      0.032267      0.032267
      2.71500      5.43000      8.14500         0.040327     -0.024036      0.013861
      4.07250      6.78750      9.50250        -0.013861      0.024036     -0.040327
      2.71500      8.14500      5.43000         0.040327      0.013861     -0.024036
      4.07250      9.50250      6.78750        -0.013861     -0.040327      0.024036
      5.43000      0.00000      0.00000         0.007646      0.019771      0.019771
      6.78750      1.35750      1.35750        -0.007646     -0.019771     -0.019771
      5.43000      2.71500      2.71500         0.025828     -0.009472     -0.009472
      6.78750      4.07250      4.07250        -0.022641      0.009404      0.009404
      8.14500      0.00000      2.71500        -0.025824      0.080189      0.003445
      9.50250      1.35750      4.07250        -0.003445     -0.080189      0.025824
      8.14500      2.71500      0.00000        -0.025824      0.003445      0.080189
      9.50250      4.07250      1.35750        -0.003445      0.025824     -0.080189
      5.43000      0.00000      5.43000        -0.010378     -0.108964     -0.010378
      6.78750      1.35750      6.78750         0.010378      0.108964      0.010378
      5.43000      2.71500      8.14500        -0.024036      0.040327      0.013861
      6.78750      4.07250      9.50250         0.024036     -0.013861     -0.040327
      8.14500      0.00000      8.14500         0.033978     -0.233381      0.033978
      9.50250      1.35750      9.50250         0.032267      0.405751      0.032267
      8.14500      2.71500      5.43000         0.013861      0.040327     -0.024036
      9.50250      4.07250      6.78750        -0.040327     -0.013861      0.024036
      5.43000      5.43000      0.00000        -0.010378     -0.010378     -0.108964
      6.78750      6.78750      1.35750         0.010378      0.010378      0.108964
      5.43000      8.14500      2.71500        -0.024036      0.013861      0.040327
      6.78750      9.50250      4.07250         0.024036     -0.040327     -0.013861
      8.14500      5.43000      2.71500         0.013861     -0.024036      0.040327
      9.50250      6.78750      4.07250        -0.040327      0.024036     -0.013861
      8.14500      8.14500      0.00000         0.033978      0.033978     -0.233381
      9.50250      9.50250      1.35750         0.032267      0.032267      0.405751
      5.43000      5.43000      5.43000         0.004347      0.004347      0.004347
      6.78750      6.78750      6.78750        -0.004347     -0.004347     -0.004347
      5.43000      8.14500      8.14500         0.022641     -0.009404     -0.009404
      6.78750      9.50250      9.50250        -0.025828      0.009472      0.009472
      8.14500      5.43000      8.14500        -0.009404      0.022641     -0.009404
      9.50250      6.78750      9.50250         0.009472     -0.025828      0.009472
      8.14500      8.14500      5.43000        -0.009404     -0.009404      0.022641
      9.50250      9.50250      6.78750         0.009472      0.009472     -0.025828
      0.67875      0.67875      0.67875        -0.000000     -0.000000     -0.000000
 -----------------------------------------------------------------------------------
    total drift:                                0.003848      0.003848      0.003850


--------------------------------------------------------------------------------------------------------



  FREE ENERGIE OF THE ION-ELECTRON SYSTEM (eV)
  ---------------------------------------------------
  free  energy   TOTEN  =      -638.42967087 eV

  energy  without entropy=     -638.40553912  energy(sigma->0) =     -638.41760499



--------------------------------------------------------------------------------------------------------


    POTLOK:  cpu time      2.6385: real time      2.6398


--------------------------------------------------------------------------------------------------------


     LOOP+:  cpu time   1395.0056: real time   1395.9305
    4ORBIT:  cpu time      0.0000: real time      0.0000



 total charge

# of ion       s       p       d       tot
------------------------------------------
    1        0.749   1.053   0.147   1.949
    2        0.749   1.053   0.147   1.949
    3        0.724   0.938   0.066   1.728
    4        0.724   0.936   0.066   1.726
    5        0.724   0.938   0.066   1.728
    6        0.724   0.936   0.066   1.726
    7        0.724   0.938   0.066   1.728
    8        0.724   0.936   0.066   1.726
    9        0.723   0.939   0.066   1.729
   10        0.723   0.939   0.066   1.729
   11        0.724   0.939   0.066   1.729
   12        0.724   0.939   0.066   1.729
   13        0.724   0.939   0.066   1.729
   14        0.724   0.939   0.066   1.729
   15        0.724   0.939   0.066   1.729
   16        0.723   0.939   0.066   1.728
   17        0.723   0.939   0.066   1.729
   18        0.723   0.939   0.066   1.729
   19        0.724   0.939   0.066   1.729
   20        0.724   0.939   0.066   1.729
   21        0.724   0.939   0.066   1.729
   22        0.723   0.939   0.066   1.728
   23        0.724   0.939   0.066   1.729
   24        0.724   0.939   0.066   1.729
   25        0.724   0.937   0.066   1.727
   26        0.724   0.937   0.066   1.727
   27        0.724   0.936   0.066   1.726
   28        0.724   0.938   0.066   1.728
   29        0.724   0.939   0.066   1.728
   30        0.724   0.939   0.066   1.728
   31        0.724   0.939   0.066   1.728
   32        0.724   0.939   0.066   1.728
   33        0.723   0.939   0.066   1.729
   34        0.723   0.939   0.066   1.729
   35        0.724   0.939   0.066   1.729
   36        0.723   0.939   0.066   1.728
   37        0.724   0.939   0.066   1.729
   38        0.724   0.939   0.066   1.729
   39        0.724   0.939   0.066   1.729
   40        0.724   0.939   0.066   1.729
   41        0.724   0.937   0.066   1.727
   42        0.724   0.937   0.066   1.727
   43        0.724   0.939   0.066   1.728
   44        0.724   0.939   0.066   1.728
   45        0.724   0.936   0.066   1.726
   46        0.724   0.938   0.066   1.728
   47        0.724   0.939   0.066   1.728
   48        0.724   0.939   0.066   1.728
   49        0.724   0.937   0.066   1.727
   50        0.724   0.937   0.066   1.727
   51        0.724   0.939   0.066   1.728
   52        0.724   0.939   0.066   1.728
   53        0.724   0.939   0.066   1.728
   54        0.724   0.939   0.066   1.728
   55        0.724   0.936   0.066   1.726
   56        0.724   0.938   0.066   1.728
   57        0.723   0.939   0.066   1.728
   58        0.723   0.939   0.066   1.728
   59        0.723   0.939   0.066   1.728
   60        0.724   0.939   0.066   1.729
   61        0.723   0.939   0.066   1.728
   62        0.724   0.939   0.066   1.729
   63        0.723   0.939   0.066   1.728
   64        0.724   0.939   0.066   1.729
   65        0.937   0.055   0.000   0.992
--------------------------------------------------
tot         47.306  60.343   4.382 112.031


 total amount of memory used by VASP MPI-rank0   147363. kBytes
=======================================================================

   base                                    :      30000. kBytes
   nonl-proj                               :      20948. kBytes
   fftplans                                :      40723. kBytes
   grid                                    :      25513. kBytes
   one-center                              :         77. kBytes
   wavefun                                 :      30102. kBytes

  
  
 General timing and accounting informations for this job:
 ========================================================
  
                  Total CPU time used (sec):     1430.893
                            User time (sec):     1403.834
                          System time (sec):       27.059
                         Elapsed time (sec):     1431.991
  
                   Maximum memory used (kb):      636684.
                   Average memory used (kb):          N/A
  
                          Minor page faults:      2311169
                          Major page faults:         1154
                 Voluntary context switches:          984
