 vasp.6.5.0 16Dec24 (build Jan 20 2025 08:32:48) complex                         
 executed on        HPECrayEX_GCC date 2025.07.21  14:44:25
 running  128 mpi-ranks, with    1 threads/rank, on    1 nodes
 distrk:  each k-point on  128 cores,    1 groups
 distr:  one band on NCORE=  16 cores,    8 groups


--------------------------------------------------------------------------------------------------------


 INCAR:
   SYSTEM = a-Si SPC
   NCORE = 16
   ISTART = 1
   ICHARG = 1
   ISPIN = 1
   ISYM = 1
   EDIFF = 1E-6
   NELM = 150
   EDIFFG = -0.01
   NSW = 0
   ISIF = 2
   IBRION = -1
   PREC = Accurate
   ENCUT = 1200
   KSPACING = 0.23
   KGAMMA = .TRUE.
   METAGGA = SCAN
   LASPH = .TRUE.
   LDIAG = .FALSE.
   LMIXTAU = .TRUE.
   ADDGRID = .TRUE.
   ALGO = Normal
   ISMEAR = 0
   SIGMA = 0.1
   LORBIT = 11
   NEDOS = 2000
   LWAVE = .FALSE.
   LCHARG = .FALSE.

 POTCAR:    PAW_PBE H 15Jun2001                   
 POTCAR:    PAW_PBE Si 05Jan2001                  
 POTCAR:    PAW_PBE H 15Jun2001                   
   SHA256 =  030f79b5d3ab3cf0e668861823c8fb652ff669f3e15e46930bd03bfd63a607b6 H/POTCAR              
   COPYR  = (c) Copyright 15Jun2001 Georg Kresse                                                    
   COPYR  = This file is part of the software VASP. Any use, copying, and all other rights are regul
   COPYR  = If you do not have a valid VASP license, you may not use, copy or distribute this file. 
   VRHFIN =H: ultrasoft test                                                                        
   LEXCH  = PE                                                                                      
   EATOM  =    12.4884 eV,    0.9179 Ry                                                             
                                                                                                    
   TITEL  = PAW_PBE H 15Jun2001                                                                     
   LULTRA =        F    use ultrasoft PP ?                                                          
   IUNSCR =        0    unscreen: 0-lin 1-nonlin 2-no                                               
   RPACOR =    0.000    partial core radius                                                         
   POMASS =    1.000; ZVAL   =    1.000    mass and valenz                                          
   RCORE  =    1.100    outmost cutoff radius                                                       
   RWIGS  =    0.700; RWIGS  =    0.370    wigner-seitz radius (au A)                               
   ENMAX  =  250.000; ENMIN  =  200.000 eV                                                          
   RCLOC  =    0.701    cutoff for local pot                                                        
   LCOR   =        T    correct aug charges                                                         
   LPAW   =        T    paw PP                                                                      
   EAUG   =  400.000                                                                                
   RMAX   =    1.123    core radius for proj-oper                                                   
   RAUG   =    1.200    factor for augmentation sphere                                              
   RDEP   =    1.112    radius for radial grids                                                     
   RDEPT  =    0.926    core radius for aug-charge                                                  
                                                                                                    
   Atomic configuration                                                                             
    2 entries                                                                                       
     n  l   j            E        occ.                                                              
     1  0  0.50        -6.4927   1.0000                                                             
     2  1  0.50        -3.4015   0.0000                                                             
   Description                                                                                      
     l       E           TYP  RCUT    TYP  RCUT                                                     
     0     -6.4927494     23  1.100                                                                 
     0      6.8029130     23  1.100                                                                 
     1     -4.0817478     23  1.100                                                                 
  local pseudopotential read in
  atomic valenz-charges read in
  non local Contribution for L=           0  read in
    real space projection operators read in
  non local Contribution for L=           0  read in
    real space projection operators read in
  non local Contribution for L=           1  read in
    real space projection operators read in
    PAW grid and wavefunctions read in

   number of l-projection  operators is LMAX  =           3
   number of lm-projection operators is LMMAX =           5

 POTCAR:    PAW_PBE Si 05Jan2001                  
   SHA256 =  79d9987ad8750f624c4d6acb2a16d13abf6a777132adc04dc6c8399be72b42bb Si/POTCAR             
   COPYR  = (c) Copyright 05Jan2001 Georg Kresse                                                    
   COPYR  = This file is part of the software VASP. Any use, copying, and all other rights are regul
   COPYR  = If you do not have a valid VASP license, you may not use, copy or distribute this file. 
   VRHFIN =Si: s2p2                                                                                 
   LEXCH  = PE                                                                                      
   EATOM  =   103.0669 eV,    7.5752 Ry                                                             
                                                                                                    
   TITEL  = PAW_PBE Si 05Jan2001                                                                    
   LULTRA =        F    use ultrasoft PP ?                                                          
   IUNSCR =        1    unscreen: 0-lin 1-nonlin 2-no                                               
   RPACOR =    1.500    partial core radius                                                         
   POMASS =   28.085; ZVAL   =    4.000    mass and valenz                                          
   RCORE  =    1.900    outmost cutoff radius                                                       
   RWIGS  =    2.480; RWIGS  =    1.312    wigner-seitz radius (au A)                               
   ENMAX  =  245.345; ENMIN  =  184.009 eV                                                          
   ICORE  =        2    local potential                                                             
   LCOR   =        T    correct aug charges                                                         
   LPAW   =        T    paw PP                                                                      
   EAUG   =  322.069                                                                                
   DEXC   =    0.000                                                                                
   RMAX   =    1.950    core radius for proj-oper                                                   
   RAUG   =    1.300    factor for augmentation sphere                                              
   RDEP   =    1.993    radius for radial grids                                                     
   RDEPT  =    1.837    core radius for aug-charge                                                  
                                                                                                    
   Atomic configuration                                                                             
    6 entries                                                                                       
     n  l   j            E        occ.                                                              
     1  0  0.50     -1785.8828   2.0000                                                             
     2  0  0.50      -139.4969   2.0000                                                             
     2  1  1.50       -95.5546   6.0000                                                             
     3  0  0.50       -10.8127   2.0000                                                             
     3  1  0.50        -4.0811   2.0000                                                             
     3  2  1.50        -4.0817   0.0000                                                             
   Description                                                                                      
     l       E           TYP  RCUT    TYP  RCUT                                                     
     0    -10.8127223     23  1.900                                                                 
     0     -7.6451159     23  1.900                                                                 
     1     -4.0811372     23  1.900                                                                 
     1      2.4879257     23  1.900                                                                 
     2     -4.0817478      7  1.900                                                                 
  local pseudopotential read in
  partial core-charges read in
  partial kinetic energy density read in
  atomic valenz-charges read in
  non local Contribution for L=           0  read in
    real space projection operators read in
  non local Contribution for L=           0  read in
    real space projection operators read in
  non local Contribution for L=           1  read in
    real space projection operators read in
  non local Contribution for L=           1  read in
    real space projection operators read in
    PAW grid and wavefunctions read in

   number of l-projection  operators is LMAX  =           4
   number of lm-projection operators is LMMAX =           8

 -----------------------------------------------------------------------------
|                                                                             |
|               ----> ADVICE to this user running VASP <----                  |
|                                                                             |
|     You have a (more or less) 'large supercell' and for larger cells it     |
|     might be more efficient to use real-space projection operators.         |
|     Therefore, try LREAL= Auto in the INCAR file.                           |
|     Mind: For very accurate calculation, you might also keep the            |
|     reciprocal projection scheme (i.e. LREAL=.FALSE.).                      |
|                                                                             |
 -----------------------------------------------------------------------------

 -----------------------------------------------------------------------------
|                                                                             |
|               ----> ADVICE to this user running VASP <----                  |
|                                                                             |
|     You enforced a specific xc type in the INCAR file but a different       |
|     type was found in the POTCAR file.                                      |
|     I HOPE YOU KNOW WHAT YOU ARE DOING!                                     |
|                                                                             |
 -----------------------------------------------------------------------------

  PAW_PBE H 15Jun2001                   :
 energy of atom  1       EATOM=  -12.4884
 kinetic energy error for atom=    0.0000 (will be added to EATOM!!)
  PAW_PBE Si 05Jan2001                  :
 energy of atom  2       EATOM= -103.0669
 kinetic energy error for atom=    0.0001 (will be added to EATOM!!)


 POSCAR:  H Si
  positions in cartesian coordinates
  No initial velocities read in


 exchange-correlation table for SCAN
   RHO(1)=    0.500       N(1)  =     2000
   RHO(2)=  100.500       N(2)  =     4000



--------------------------------------------------------------------------------------------------------


 ion  position               nearest neighbor table
   1  0.218  0.757  0.557-   5 1.45
   2  0.025  0.116  0.444-  33 1.53
   3  0.317  0.133  0.408-   4 1.50
   4  0.247  0.126  0.449-   3 1.50  10 2.30  41 2.33  33 2.39
   5  0.177  0.846  0.570-   1 1.45  35 2.32  29 2.42
   6  0.078  0.614  0.511-  30 2.27   9 2.34   8 2.36  56 2.48
   7  0.966  0.361  0.466-  16 2.29  56 2.31  15 2.34  32 2.35
   8  0.003  0.750  0.485-  38 2.28  29 2.33   6 2.36  66 2.37
   9  0.234  0.595  0.492-   6 2.34  14 2.36  19 2.37  60 2.44
  10  0.275  0.981  0.480-   4 2.30  50 2.32  35 2.32  49 2.33
  11  0.082  0.400  0.577-  45 2.37  30 2.41  16 2.44
  12  0.515  0.844  0.483-  40 2.35  57 2.35  50 2.37  71 2.41
  13  0.477  0.115  0.495-  22 2.24  50 2.29  21 2.31  68 2.35
  14  0.265  0.446  0.461-  17 2.30  62 2.35  45 2.35   9 2.36
  15  0.064  0.317  0.400-  62 2.28  33 2.29   7 2.34
  16  0.981  0.283  0.541-   7 2.29  11 2.44  20 2.48  67 2.49
  17  0.422  0.444  0.447-  14 2.30  61 2.40  31 2.42
  18  0.693  0.876  0.568-  69 2.23  57 2.28  46 2.31
  19  0.345  0.578  0.557-  36 2.36   9 2.37  48 2.39  31 2.53
  20  0.079  0.145  0.552-  55 2.25  16 2.48  41 2.50
  21  0.623  0.099  0.529-  13 2.31  53 2.37  46 2.40  64 2.47
  22  0.513  0.205  0.429-  13 2.24  61 2.26  43 2.44
  23  0.904  0.983  0.391-  59 2.25  47 2.39
  24  0.587  0.357  0.539-  61 2.13  53 2.28  42 2.34  39 2.40
  25  0.846  0.570  0.491-  26 2.30  38 2.33  56 2.38  54 2.47
  26  0.707  0.541  0.453-  25 2.30  63 2.31  42 2.42  27 2.43
  27  0.669  0.658  0.391-  26 2.43  44 2.43
  28  0.966  0.966  0.616-  55 2.52
  29  0.073  0.890  0.504-   8 2.33   5 2.42  55 2.44  49 2.56
  30  0.029  0.556  0.586-   6 2.27  54 2.32  11 2.41
  31  0.476  0.577  0.494-  42 2.34  17 2.42  71 2.43  19 2.53
  32  0.827  0.336  0.423-  63 2.26   7 2.35  37 2.35
  33  0.100  0.166  0.415-   2 1.53  15 2.29   4 2.39
  34  0.015  0.595  0.378-  56 2.32  66 2.36
  35  0.298  0.950  0.565-   5 2.32  10 2.32  51 2.34  58 2.39
  36  0.327  0.429  0.591-  39 2.33  19 2.36  45 2.44
  37  0.798  0.177  0.429-  32 2.35  43 2.41  47 2.45
  38  0.849  0.730  0.497-   8 2.28  69 2.31  25 2.33  44 2.43
  39  0.449  0.325  0.585-  36 2.33  68 2.36  24 2.40
  40  0.644  0.903  0.441-  44 2.28  46 2.29  12 2.35
  41  0.233  0.206  0.525-  45 2.25   4 2.33  68 2.46  20 2.50
  42  0.612  0.515  0.527-  52 2.33  24 2.34  31 2.34  26 2.42
  43  0.654  0.164  0.384-  37 2.41  22 2.44
  44  0.748  0.787  0.431-  59 2.22  40 2.28  38 2.43  27 2.43
  45  0.218  0.360  0.532-  41 2.25  14 2.35  11 2.37  36 2.44
  46  0.724  0.978  0.503-  40 2.29  18 2.31  47 2.35  21 2.40
  47  0.862  0.042  0.472-  46 2.35  55 2.37  23 2.39  37 2.45
  48  0.376  0.694  0.619-  51 2.28  70 2.33  19 2.39
  49  0.202  0.856  0.441-  10 2.33  60 2.39  29 2.56
  50  0.431  0.978  0.461-  13 2.29  10 2.32  12 2.37
  51  0.403  0.845  0.600-  48 2.28  57 2.30  35 2.34  70 3.05
  52  0.639  0.575  0.607-  65 2.23  70 2.26  42 2.33
  53  0.683  0.240  0.561-  67 2.26  24 2.28  21 2.37  64 3.14
  54  0.871  0.532  0.580-  30 2.32  65 2.34  25 2.47
  55  0.988  0.028  0.528-  20 2.25  47 2.37  29 2.44  28 2.52
  56  0.985  0.517  0.453-   7 2.31  34 2.32  25 2.38   6 2.48
  57  0.548  0.816  0.569-  18 2.28  51 2.30  70 2.33  12 2.35
  58  0.332  0.073  0.621-  35 2.39  68 2.40
  59  0.864  0.834  0.383-  44 2.22  23 2.25  66 2.39
  60  0.280  0.712  0.431-  71 2.36  49 2.39   9 2.44
  61  0.551  0.344  0.461-  24 2.13  22 2.26  63 2.39  17 2.40
  62  0.186  0.413  0.386-  15 2.28  14 2.35
  63  0.684  0.397  0.418-  32 2.26  26 2.31  61 2.39
  64  0.588  0.077  0.620-  21 2.47  53 3.14
  65  0.776  0.638  0.622-  52 2.23  69 2.33  54 2.34
  66  0.006  0.754  0.395-  34 2.36   8 2.37  59 2.39
  67  0.830  0.268  0.585-  53 2.26  16 2.49
  68  0.388  0.182  0.560-  13 2.35  39 2.36  58 2.40  41 2.46
  69  0.806  0.774  0.578-  18 2.23  38 2.31  65 2.33
  70  0.536  0.688  0.622-  52 2.26  48 2.33  57 2.33  51 3.05
  71  0.441  0.713  0.444-  60 2.36  12 2.41  31 2.43

  LATTYP: Found a simple tetragonal cell.
 ALAT       =    14.5249511617
 C/A-ratio  =     1.8219643980
  
  Lattice vectors:
  
 A1 = (  14.5249511617,   0.0000000000,   0.0000000000)
 A2 = (   0.0000000000,  14.5249511617,   0.0000000000)
 A3 = (   0.0000000000,   0.0000000000,  26.4639439000)


Analysis of symmetry for initial positions (statically):
=====================================================================
 Subroutine PRICEL returns:
 Original cell was already a primitive cell.
 

 Routine SETGRP: Setting up the symmetry group for a 
 simple tetragonal supercell.


 Subroutine GETGRP returns: Found  1 space group operations
 (whereof  1 operations were pure point group operations)
 out of a pool of 16 trial point group operations.


The static configuration has the point symmetry C_1 .


Analysis of symmetry for dynamics (positions and initial velocities):
=====================================================================
 Subroutine PRICEL returns:
 Original cell was already a primitive cell.
 

 Routine SETGRP: Setting up the symmetry group for a 
 simple tetragonal supercell.


 Subroutine GETGRP returns: Found  1 space group operations
 (whereof  1 operations were pure point group operations)
 out of a pool of 16 trial point group operations.


The dynamic configuration has the point symmetry C_1 .


 Subroutine INISYM returns: Found  1 space group operations
 (whereof  1 operations are pure point group operations),
 and found     1 'primitive' translations


----------------------------------------------------------------------------------------

                                     Primitive cell                                     

  volume of cell :    5583.2096

  direct lattice vectors                    reciprocal lattice vectors
    14.524951162  0.000000000  0.000000000     0.068847047  0.000000000  0.000000000
     0.000000000 14.524951162  0.000000000     0.000000000  0.068847047  0.000000000
     0.000000000  0.000000000 26.463943900     0.000000000  0.000000000  0.037787263

  length of vectors
    14.524951162 14.524951162 26.463943900     0.068847047  0.068847047  0.037787263

  position of ions in fractional coordinates (direct lattice)
     0.217633778  0.757310636  0.557160110
     0.024751822  0.115674744  0.444447129
     0.316769396  0.133140551  0.407843250
     0.246667955  0.126054813  0.449202279
     0.177429856  0.845648282  0.570237526
     0.077657404  0.614433047  0.510952334
     0.965572954  0.361303797  0.465784085
     0.002538852  0.750487893  0.484840202
     0.234232113  0.594845374  0.492224211
     0.275130701  0.980574726  0.479679973
     0.082334872  0.399657798  0.576660227
     0.514661971  0.843527793  0.483277698
     0.477072172  0.115452368  0.495223008
     0.265496934  0.445688934  0.460903860
     0.064393814  0.317187297  0.400205613
     0.980595380  0.283289765  0.540688265
     0.421601418  0.444425591  0.447472378
     0.692842261  0.875576094  0.567941950
     0.344953311  0.578085937  0.557130258
     0.079421954  0.145431126  0.551627299
     0.622671285  0.099471591  0.529096644
     0.513324273  0.204771084  0.428995918
     0.903514226  0.983342377  0.391068653
     0.587342422  0.357225298  0.538770939
     0.846219713  0.569926873  0.490583110
     0.706604785  0.540870665  0.453047510
     0.669422561  0.658148168  0.390882513
     0.966123730  0.965827688  0.616120710
     0.072796114  0.890481479  0.503649945
     0.028705294  0.556138187  0.585801344
     0.475834302  0.577075951  0.494036488
     0.826680921  0.335509562  0.422764042
     0.099673313  0.165590230  0.414647338
     0.015042736  0.595020245  0.377872627
     0.298248163  0.949517823  0.564748548
     0.326743956  0.428844127  0.591328109
     0.798240205  0.176702832  0.428663012
     0.848753284  0.729627238  0.496952531
     0.448876552  0.325183193  0.585327869
     0.644018000  0.903300800  0.441152836
     0.232918511  0.206397940  0.524817614
     0.612042678  0.514875397  0.526826007
     0.654066227  0.164101757  0.383867988
     0.747823513  0.787204024  0.430731109
     0.218043418  0.360333742  0.531749688
     0.724436171  0.977986077  0.503385435
     0.861916840  0.042355461  0.472155773
     0.375997133  0.694315588  0.618785090
     0.202145258  0.856051071  0.440859607
     0.431270297  0.977979192  0.461214472
     0.402627171  0.845083736  0.599953052
     0.638977708  0.574941004  0.607296250
     0.683406084  0.239548482  0.560782019
     0.870832532  0.532241377  0.580484676
     0.988003322  0.028150663  0.528164432
     0.985435327  0.517467489  0.452590285
     0.547696162  0.816202400  0.568943312
     0.332299224  0.073228473  0.621263934
     0.864257639  0.834150825  0.382708108
     0.279982353  0.712443015  0.431263909
     0.550791525  0.344000468  0.461273042
     0.186311126  0.412969375  0.385689523
     0.684250149  0.397323195  0.417532396
     0.588470137  0.077233995  0.619636059
     0.776140303  0.638000080  0.622007587
     0.005667716  0.753944015  0.395437465
     0.829751499  0.268480765  0.584768240
     0.387797517  0.181525567  0.559928405
     0.806130077  0.773627386  0.577705423
     0.536123662  0.688460835  0.622127373
     0.440541929  0.713007561  0.444244590

  ion indices of the primitive-cell ions
   primitive index   ion index
                 1           1
                 2           2
                 3           3
                 4           4
                 5           5
                 6           6
                 7           7
                 8           8
                 9           9
                10          10
                11          11
                12          12
                13          13
                14          14
                15          15
                16          16
                17          17
                18          18
                19          19
                20          20
                21          21
                22          22
                23          23
                24          24
                25          25
                26          26
                27          27
                28          28
                29          29
                30          30
                31          31
                32          32
                33          33
                34          34
                35          35
                36          36
                37          37
                38          38
                39          39
                40          40
                41          41
                42          42
                43          43
                44          44
                45          45
                46          46
                47          47
                48          48
                49          49
                50          50
                51          51
                52          52
                53          53
                54          54
                55          55
                56          56
                57          57
                58          58
                59          59
                60          60
                61          61
                62          62
                63          63
                64          64
                65          65
                66          66
                67          67
                68          68
                69          69
                70          70
                71          71

----------------------------------------------------------------------------------------


 -----------------------------------------------------------------------------
|                                                                             |
|           W    W    AA    RRRRR   N    N  II  N    N   GGGG   !!!           |
|           W    W   A  A   R    R  NN   N  II  NN   N  G    G  !!!           |
|           W    W  A    A  R    R  N N  N  II  N N  N  G       !!!           |
|           W WW W  AAAAAA  RRRRR   N  N N  II  N  N N  G  GGG   !            |
|           WW  WW  A    A  R   R   N   NN  II  N   NN  G    G                |
|           W    W  A    A  R    R  N    N  II  N    N   GGGG   !!!           |
|                                                                             |
|     The requested file  could not be found or opened for reading            |
|     k-point information. Automatic k-point generation is used as a          |
|     fallback, which may lead to unwanted results.                           |
|                                                                             |
 -----------------------------------------------------------------------------



Automatic generation of k-mesh.
 Grid dimensions derived from KSPACING:
 generate k-points for:    2    2    2

 Generating k-lattice:

  Cartesian coordinates                     Fractional coordinates (reciprocal lattice)
     0.034423524  0.000000000  0.000000000     0.500000000  0.000000000  0.000000000
     0.000000000  0.034423524  0.000000000     0.000000000  0.500000000  0.000000000
     0.000000000  0.000000000  0.018893631     0.000000000  0.000000000  0.500000000

  Length of vectors
     0.034423524  0.034423524  0.018893631

  Shift w.r.t. Gamma in fractional coordinates (k-lattice)
     0.000000000  0.000000000  0.000000000

 
 Subroutine IBZKPT returns following result:
 ===========================================
 
 Found      8 irreducible k-points:
 
 Following reciprocal coordinates:
            Coordinates               Weight
  0.000000  0.000000  0.000000      1.000000
  0.500000  0.000000  0.000000      1.000000
  0.000000  0.500000  0.000000      1.000000
  0.500000  0.500000  0.000000      1.000000
  0.000000  0.000000  0.500000      1.000000
  0.500000  0.000000  0.500000      1.000000
  0.000000  0.500000  0.500000      1.000000
  0.500000  0.500000  0.500000      1.000000
 
 Following cartesian coordinates:
            Coordinates               Weight
  0.000000  0.000000  0.000000      1.000000
  0.034424  0.000000  0.000000      1.000000
  0.000000  0.034424  0.000000      1.000000
  0.034424  0.034424  0.000000      1.000000
  0.000000  0.000000  0.018894      1.000000
  0.034424  0.000000  0.018894      1.000000
  0.000000  0.034424  0.018894      1.000000
  0.034424  0.034424  0.018894      1.000000
 


--------------------------------------------------------------------------------------------------------




 Dimension of arrays:
   k-points           NKPTS =      8   k-points in BZ     NKDIM =      8   number of bands    NBANDS=    176
   number of dos      NEDOS =   2000   number of ions     NIONS =     71
   non local maximal  LDIM  =      4   non local SUM 2l+1 LMDIM =      8
   total plane-waves  NPLWV = ******
   max r-space proj   IRMAX =      1   max aug-charges    IRDMAX= 405797
   dimension x,y,z NGX =   168 NGY =  168 NGZ =  300
   dimension x,y,z NGXF=   336 NGYF=  336 NGZF=  600
   support grid    NGXF=   672 NGYF=  672 NGZF= 1200
   ions per type =               3  68
   NGX,Y,Z   is equivalent  to a cutoff of  19.23, 19.23, 18.85 a.u.
   NGXF,Y,Z  is equivalent  to a cutoff of  38.46, 38.46, 37.69 a.u.

 SYSTEM =  a-Si SPC                                
 POSCAR =   H Si                                   

 Startparameter for this run:
   NWRITE =      2    write-flag & timer
   PREC   = accura    normal or accurate (medium, high low for compatibility)
   ISTART =      1    job   : 0-new  1-cont  2-samecut
   ICHARG =      1    charge: 1-file 2-atom 10-const
   ISPIN  =      1    spin polarized calculation?
   LNONCOLLINEAR =      F non collinear calculations
   LSORBIT =      F    spin-orbit coupling
   INIWAV =      1    electr: 0-lowe 1-rand  2-diag
   LASPH  =      T    aspherical Exc in radial PAW
 Electronic Relaxation 1
   ENCUT  = 1200.0 eV  88.20 Ry    9.39 a.u.  41.03 41.03 74.75*2*pi/ulx,y,z
   ENINI  = 1200.0     initial cutoff
   ENAUG  =  400.0 eV  augmentation charge cutoff
   NELM   =    150;   NELMIN=  2; NELMDL=  0     # of ELM steps 
   EDIFF  = 0.1E-05   stopping-criterion for ELM
   LREAL  =      F    real-space projection
   NLSPLINE    = F    spline interpolate recip. space projectors
   LCOMPAT=      F    compatible to vasp.4.4
   GGA_COMPAT  = T    GGA compatible to vasp.4.4-vasp.4.6
   LMAXPAW     = -100 max onsite density
   LMAXMIX     =    2 max onsite mixed and CHGCAR
   VOSKOWN=      0    Vosko Wilk Nusair interpolation
   ROPT   =    0.00000   0.00000
 Ionic relaxation
   EDIFFG = -.1E-01   stopping-criterion for IOM
   NSW    =      0    number of steps for IOM
   NBLOCK =      1;   KBLOCK =      1    inner block; outer block 
   IBRION =     -1    ionic relax: 0-MD 1-quasi-New 2-CG
   NFREE  =      0    steps in history (QN), initial steepest desc. (CG)
   ISIF   =      2    stress and relaxation
   IWAVPR =     10    prediction:  0-non 1-charg 2-wave 3-comb
   ISYM   =      1    0-nonsym 1-usesym 2-fastsym
   LCORR  =      T    Harris-Foulkes like correction to forces

   POTIM  = 0.5000    time-step for ionic-motion
   TEIN   =    0.0    initial temperature
   TEBEG  =    0.0;   TEEND  =   0.0 temperature during run
   SMASS  =  -3.00    Nose mass-parameter (am)
   estimated Nose-frequenzy (Omega)   =  0.10E-29 period in steps = 0.13E+47 mass=  -0.482E-26a.u.
   SCALEE = 1.0000    scale energy and forces
   NPACO  =    256;   APACO  = 10.0  distance and # of slots for P.C.
   PSTRESS=    0.0 pullay stress

  Mass of Ions in am
   POMASS =   1.00 28.09
  Ionic Valenz
   ZVAL   =   1.00  4.00
  Atomic Wigner-Seitz radii
   RWIGS  =  -1.00 -1.00
  virtual crystal weights 
   VCA    =   1.00  1.00
   NELECT =     275.0000    total number of electrons
   NUPDOWN=      -1.0000    fix difference up-down

 DOS related values:
   EMIN   =  10.00;   EMAX   =-10.00  energy-range for DOS
   EFERMI =   0.00;   METHOD = LEGACY      
   ISMEAR =     0;   SIGMA  =   0.10  broadening in eV -4-tet -1-fermi 0-gaus
   EFERMI_NEDOS =   21; number of points for ismear=-14 and -15

 Electronic relaxation 2 (details)
   IALGO  =     38    algorithm
   LDIAG  =      F    sub-space diagonalisation (order eigenvalues)
   LSUBROT=      F    optimize rotation matrix (better conditioning)
   TURBO    =      0    0=normal 1=particle mesh
   IRESTART =      0    0=no restart 2=restart with 2 vectors
   NREBOOT  =      0    no. of reboots
   NMIN     =      0    reboot dimension
   EREF     =   0.00    reference energy to select bands
   IMIX   =      4    mixing-type and parameters
     AMIX     =   0.40;   BMIX     =  1.00
     AMIX_MAG =   1.60;   BMIX_MAG =  1.00
     AMIN     =   0.10
     WC   =   100.;   INIMIX=   1;  MIXPRE=   1;  MAXMIX= -45

 Intra band minimization:
   WEIMIN = 0.0000     energy-eigenvalue tresh-hold
   EBREAK =  0.14E-08  absolut break condition
   DEPER  =   0.30     relativ break condition  

   TIME   =   0.40     timestep for ELM

  volume/ion in A,a.u.               =      78.64       530.67
  Fermi-wavevector in a.u.,A,eV,Ry     =   0.600101  1.134027  4.899748  0.360121
  Thomas-Fermi vector in A             =   1.651833

 Write flags
   LWAVE        =      F    write WAVECAR
   LDOWNSAMPLE  =      F    k-point downsampling of WAVECAR
   LCHARG       =      F    write CHGCAR
   LVTOT        =      F    write LOCPOT, total local potential
   LVHAR        =      F    write LOCPOT, Hartree potential only
   WRT_POTENTIAL= false  ! write potential to hdf5 file
   LELF         =      F    write electronic localiz. function (ELF)
   LORBIT       =     11    0 simple, 1 ext, 2 COOP (PROOUT), +10 PAW based schemes


 Python interface
   PLUGINS active      =      F    recompile with -DPLUGINS to activate

 Dipole corrections
   LMONO      =      F    monopole corrections only (constant potential shift)
   LDIPOL     =      F    correct potential (dipole corrections)
   IDIPOL     =      0    1-x, 2-y, 3-z, 4-all directions 
   EPSILON    =  1.0000000 bulk dielectric constant
   LVACPOTAV  =      F  vacuum potentials using an averaging scheme for the charge density
   VACPOTFLAT =  0.1000000 required flatness to determine vacuum potential

Coulomb truncation method
  LTRUNCATE          =      F  Coulomb kernel truncation to be used
  IDIMENSIONALITY    =      3  Dimensionality of cutoff (0 molecules / 2 surfaces)
  ISURFACE           =     -1  Direction of surface normal
  LCOARSEN           =      F  Coarsen the charge grid before padding, preferred


 Exchange correlation treatment:
   METAGGA = SCAN    functional components
   XC_C    = 1    coefficients multiplying the functional components
   LIBXC   =     F    Libxc                    
   VOSKOWN =     0    Vosko Wilk Nusair interpolation
   LHFCALC =     F    Hartree Fock is set to
   LHFONE  =     F    Hartree Fock one center treatment
   AEXX    =    0.0000 exact exchange contribution

 Parameters of functionals:
   SCAN:
     P1 =  0.000000E+00
     P2 =  0.000000E+00
     P3 =  0.000000E+00

 Accuracy and mixing parameters for tau-dependent meta-GGA functionals:
   LMAXTAU = 6
   LMIXTAU = T

 Van der Waals corrections
   IVDW    =     0    specifies the selected vdW correction

 Linear response parameters
   LEPSILON=     F    determine dielectric tensor
   LRPA    =     F    only Hartree local field effects (RPA)
   LNABLA  =     F    use nabla operator in PAW spheres
   LVEL    =     F    velocity operator in full k-point grid
   CSHIFT  =0.1000    complex shift for real part using Kramers Kronig
   OMEGAMAX=  -1.0    maximum frequency
   DEG_THRESHOLD= 0.2000000E-02 threshold for treating states as degnerate
   RTIME   =   -0.100 relaxation time in fs
  (WPLASMAI=    0.000 imaginary part of plasma frequency in eV, 0.658/RTIME)
   DFIELD  = 0.0000000 0.0000000 0.0000000 field for delta impulse in time

  Optional k-point grid parameters
   LKPOINTS_OPT  =     F    use optional k-point grid
   KPOINTS_OPT_MODE=     1    mode for optional k-point grid

 Orbital magnetization related:
   ORBITALMAG=     F  switch on orbital magnetization
   LCHIMAG   =     F  perturbation theory with respect to B field
   DQ        =  0.001000  dq finite difference perturbation B field
   LLRAUG    =     F  two centre corrections for induced B field
   LBONE     =     F  B-component reconstruction in AE one-centre
   LVGVCALC  =     T  calculate vGv susceptibility
   LVGVAPPL  =     F  apply vGv susceptibility instead of pGv for G=0

 Random number generation:
   RANDOM_GENERATOR = DEFAULT
   PCG_SEED         = not used


--------------------------------------------------------------------------------------------------------


 Static calculation
 charge density and potential will be updated during run
 non-spin polarized calculation
 Variant of blocked Davidson
 perform Loewdin sub-space diagonalisation
    ordering is kept fixed
    before iterative eigenvector-optimisation
 modified Broyden-mixing scheme, WC =      100.0
 initial mixing is a Kerker type mixing with AMIX =  0.4000 and BMIX =      1.0000
 Hartree-type preconditioning will be used
 using additional bands           38
 reciprocal scheme for non local part
 use partial core corrections
 calculate Harris-corrections to forces   (improved forces if not selfconsistent)
 use gradient corrections 
 use of overlap-Matrix (Vanderbilt PP)
 Gauss-broadening in eV      SIGMA  =   0.10


--------------------------------------------------------------------------------------------------------


  energy-cutoff  :     1200.00
  volume of cell :     5583.21
      direct lattice vectors                 reciprocal lattice vectors
    14.524951162  0.000000000  0.000000000     0.068847047  0.000000000  0.000000000
     0.000000000 14.524951162  0.000000000     0.000000000  0.068847047  0.000000000
     0.000000000  0.000000000 26.463943900     0.000000000  0.000000000  0.037787263

  length of vectors
    14.524951162 14.524951162 26.463943900     0.068847047  0.068847047  0.037787263



 old parameters found on file WAVECAR:
  energy-cutoff  :     1200.00
  volume of cell :     5583.21
      direct lattice vectors                 reciprocal lattice vectors
    14.524951162  0.000000000  0.000000000     0.068847047  0.000000000  0.000000000
     0.000000000 14.524951162  0.000000000     0.000000000  0.068847047  0.000000000
     0.000000000  0.000000000 26.463943900     0.000000000  0.000000000  0.037787263

  length of vectors


 k-points in units of 2pi/SCALE and weight: read from INCAR                         
   0.00000000  0.00000000  0.00000000       0.125
   0.03442352  0.00000000  0.00000000       0.125
   0.00000000  0.03442352  0.00000000       0.125
   0.03442352  0.03442352  0.00000000       0.125
   0.00000000  0.00000000  0.01889363       0.125
   0.03442352  0.00000000  0.01889363       0.125
   0.00000000  0.03442352  0.01889363       0.125
   0.03442352  0.03442352  0.01889363       0.125

 k-points in reciprocal lattice and weights: read from INCAR                         
   0.00000000  0.00000000  0.00000000       0.125
   0.50000000  0.00000000  0.00000000       0.125
   0.00000000  0.50000000  0.00000000       0.125
   0.50000000  0.50000000  0.00000000       0.125
   0.00000000  0.00000000  0.50000000       0.125
   0.50000000  0.00000000  0.50000000       0.125
   0.00000000  0.50000000  0.50000000       0.125
   0.50000000  0.50000000  0.50000000       0.125

 position of ions in fractional coordinates (direct lattice) 
   0.21763378  0.75731064  0.55716011
   0.02475182  0.11567474  0.44444713
   0.31676940  0.13314055  0.40784325
   0.24666796  0.12605481  0.44920228
   0.17742986  0.84564828  0.57023753
   0.07765740  0.61443305  0.51095233
   0.96557295  0.36130380  0.46578409
   0.00253885  0.75048789  0.48484020
   0.23423211  0.59484537  0.49222421
   0.27513070  0.98057473  0.47967997
   0.08233487  0.39965780  0.57666023
   0.51466197  0.84352779  0.48327770
   0.47707217  0.11545237  0.49522301
   0.26549693  0.44568893  0.46090386
   0.06439381  0.31718730  0.40020561
   0.98059538  0.28328976  0.54068826
   0.42160142  0.44442559  0.44747238
   0.69284226  0.87557609  0.56794195
   0.34495331  0.57808594  0.55713026
   0.07942195  0.14543113  0.55162730
   0.62267128  0.09947159  0.52909664
   0.51332427  0.20477108  0.42899592
   0.90351423  0.98334238  0.39106865
   0.58734242  0.35722530  0.53877094
   0.84621971  0.56992687  0.49058311
   0.70660479  0.54087067  0.45304751
   0.66942256  0.65814817  0.39088251
   0.96612373  0.96582769  0.61612071
   0.07279611  0.89048148  0.50364995
   0.02870529  0.55613819  0.58580134
   0.47583430  0.57707595  0.49403649
   0.82668092  0.33550956  0.42276404
   0.09967331  0.16559023  0.41464734
   0.01504274  0.59502025  0.37787263
   0.29824816  0.94951782  0.56474855
   0.32674396  0.42884413  0.59132811
   0.79824021  0.17670283  0.42866301
   0.84875328  0.72962724  0.49695253
   0.44887655  0.32518319  0.58532787
   0.64401800  0.90330080  0.44115284
   0.23291851  0.20639794  0.52481761
   0.61204268  0.51487540  0.52682601
   0.65406623  0.16410176  0.38386799
   0.74782351  0.78720402  0.43073111
   0.21804342  0.36033374  0.53174969
   0.72443617  0.97798608  0.50338543
   0.86191684  0.04235546  0.47215577
   0.37599713  0.69431559  0.61878509
   0.20214526  0.85605107  0.44085961
   0.43127030  0.97797919  0.46121447
   0.40262717  0.84508374  0.59995305
   0.63897771  0.57494100  0.60729625
   0.68340608  0.23954848  0.56078202
   0.87083253  0.53224138  0.58048468
   0.98800332  0.02815066  0.52816443
   0.98543533  0.51746749  0.45259028
   0.54769616  0.81620240  0.56894331
   0.33229922  0.07322847  0.62126393
   0.86425764  0.83415083  0.38270811
   0.27998235  0.71244302  0.43126391
   0.55079152  0.34400047  0.46127304
   0.18631113  0.41296937  0.38568952
   0.68425015  0.39732319  0.41753240
   0.58847014  0.07723399  0.61963606
   0.77614030  0.63800008  0.62200759
   0.00566772  0.75394402  0.39543747
   0.82975150  0.26848077  0.58476824
   0.38779752  0.18152557  0.55992841
   0.80613008  0.77362739  0.57770542
   0.53612366  0.68846083  0.62212737
   0.44054193  0.71300756  0.44424459

 position of ions in cartesian coordinates  (Angst):
   3.16112000 10.99990000 14.74465390
   0.35951900  1.68017000 11.76182390
   4.60106000  1.93386000 10.79314090
   3.58284000  1.83094000 11.88766390
   2.57716000 12.28300000 15.09073390
   1.12797000  8.92461000 13.52181390
  14.02490000  5.24792000 12.32648390
   0.03687670 10.90080000 12.83078390
   3.40221000  8.64010000 13.02619390
   3.99626000 14.24280000 12.69422390
   1.19591000  5.80501000 15.26070390
   7.47544000 12.25220000 12.78943390
   6.92945000  1.67694000 13.10555390
   3.85633000  6.47361000 12.19733390
   0.93531700  4.60713000 10.59101890
  14.24310000  4.11477000 14.30874390
   6.12374000  6.45526000 11.84188390
  10.06350000 12.71770000 15.02998390
   5.01043000  8.39667000 14.74386390
   1.15360000  2.11238000 14.59823390
   9.04427000  1.44482000 14.00198390
   7.45601000  2.97429000 11.35292390
  13.12350000 14.28300000 10.34921890
   8.53112000  5.18868000 14.25800390
  12.29130000  8.27816000 12.98276390
  10.26340000  7.85612000 11.98942390
   9.72333000  9.55957000 10.34429290
  14.03290000 14.02860000 16.30498390
   1.05736000 12.93420000 13.32856390
   0.41694300  8.07788000 15.50261390
   6.91147000  8.38200000 13.07415390
  12.00750000  4.87326000 11.18800390
   1.44775000  2.40519000 10.97320390
   0.21849500  8.64264000 10.00000000
   4.33204000 13.79170000 14.94547390
   4.74594000  6.22894000 15.64887390
  11.59440000  2.56660000 11.34411390
  12.32810000 10.59780000 13.15132390
   6.51991000  4.72327000 15.49008390
   9.35433000 13.12040000 11.67464390
   3.38313000  2.99792000 13.88874390
   8.88989000  7.47854000 13.94189390
   9.50028000  2.38357000 10.15866090
  10.86210000 11.43410000 11.39884390
   3.16707000  5.23383000 14.07219390
  10.52240000 14.20520000 13.32156390
  12.51930000  0.61521100 12.49510390
   5.46134000 10.08490000 16.37549390
   2.93615000 12.43410000 11.66688390
   6.26418000 14.20510000 12.20555390
   5.84814000 12.27480000 15.87712390
   9.28112000  8.35099000 16.07145390
   9.92644000  3.47943000 14.84050390
  12.64880000  7.73078000 15.36191390
  14.35070000  0.40888700 13.97731390
  14.31340000  7.51619000 11.97732390
   7.95526000 11.85530000 15.05648390
   4.82663000  1.06364000 16.44109390
  12.55330000 12.11600000 10.12796590
   4.06673000 10.34820000 11.41294390
   8.00022000  4.99659000 12.20710390
   2.70616000  5.99836000 10.20686590
   9.93870000  5.77110000 11.04955390
   8.54750000  1.12182000 16.39801390
  11.27340000  9.26692000 16.46077390
   0.08232330 10.95100000 10.46483490
  12.05210000  3.89967000 15.47527390
   5.63274000  2.63665000 14.81791390
  11.70900000 11.23690000 15.28836390
   7.78717000  9.99986000 16.46394390
   6.39885000 10.35640000 11.75646390



--------------------------------------------------------------------------------------------------------


 k-point     1 :   0.0000 0.0000 0.0000  plane waves:  526693
 k-point     2 :   0.5000 0.0000 0.0000  plane waves:  526918
 k-point     3 :   0.0000 0.5000 0.0000  plane waves:  526918
 k-point     4 :   0.5000 0.5000 0.0000  plane waves:  527004
 k-point     5 :   0.0000 0.0000 0.5000  plane waves:  526814
 k-point     6 :   0.5000 0.0000 0.5000  plane waves:  527184
 k-point     7 :   0.0000 0.5000 0.5000  plane waves:  527184
 k-point     8 :   0.5000 0.5000 0.5000  plane waves:  527056

 maximum and minimum number of plane-waves per node :     33036    32820

 maximum number of plane-waves:    527184
 maximum index in each direction: 
   IXMAX=   41   IYMAX=   41   IZMAX=   74
   IXMIN=  -41   IYMIN=  -41   IZMIN=  -75


 parallel 3D FFT for wavefunctions:
    minimum data exchange during FFTs selected (reduces bandwidth)
 parallel 3D FFT for charge:
    minimum data exchange during FFTs selected (reduces bandwidth)


 total amount of memory used by VASP MPI-rank0   375118. kBytes
=======================================================================

   base                                    :      30000. kBytes
   nonl-proj                               :      71262. kBytes
   fftplans                                :     102073. kBytes
   grid                                    :      78750. kBytes
   one-center                              :         15. kBytes
   wavefun                                 :      93018. kBytes

     INWAV:  cpu time     27.8774: real time     27.8948
 Broyden mixing: mesh for mixing (old mesh)
   NGX = 83   NGY = 83   NGZ =149
  (NGX  =336   NGY  =336   NGZ  =600)
  gives a total of ****** points

 initial charge density was supplied:
 number of electron     274.9999999 magnetization 
 keeping initial charge density in first step


--------------------------------------------------------------------------------------------------------


 Maximum index for augmentation-charges        11267 (set IRDMAX)


--------------------------------------------------------------------------------------------------------


 First call to EWALD:  gamma=   0.100
 Maximum number of real-space cells   3x   3x   2
 Maximum number of reciprocal cells   2x   2x   4

    FEWALD:  cpu time      0.0131: real time      0.0132


--------------------------------------- Ionic step        1  -------------------------------------------




--------------------------------------- Iteration      1(   1)  ---------------------------------------


    POTLOK:  cpu time      2.0036: real time      2.0045
    SETDIJ:  cpu time      1.4112: real time      1.4122
    EDDIAG:  cpu time     54.5102: real time     54.5413
     EDDAV:  cpu time    241.1275: real time    241.2794
       DOS:  cpu time      0.0087: real time      0.0088
    CHARGE:  cpu time     30.9254: real time     30.9533
    MIXING:  cpu time      0.0493: real time      0.0493
    --------------------------------------------
      LOOP:  cpu time    330.0359: real time    330.2489

 eigenvalue-minimisations  :  2816
 total energy-change (2. order) :-0.6751126E+03  (-0.7972974E+00)
 number of electron     274.9999999 magnetization 
 augmentation part      -15.6616689 magnetization 

 Broyden mixing:
  rms(total) = 0.96505E+00    rms(broyden)= 0.22170E+02
  rms(prec ) = 0.99155E+00
  weight for this iteration     100.00
  WARNING: grid for Broyden might be to small

 Free energy of the ion-electron system (eV)
  ---------------------------------------------------
  alpha Z        PSCENC =        28.54719548
  Ewald energy   TEWEN  =     32935.63012881
  -Hartree energ DENC   =    -39003.58729193
  -exchange      EXHF   =         0.00000000
  -V(xc)+E(xc)   XCENC  =      -340.58285132
  PAW double counting   =     22916.95600108   -22238.29980113
  entropy T*S    EENTRO =        -0.20104550
  eigenvalues    EBANDS =     -2019.58488031
  atomic energy  EATOM  =      7046.00991905
  Solvation  Ediel_sol  =         0.00000000
  ---------------------------------------------------
  free energy    TOTEN  =      -675.11262578 eV

  energy without entropy =     -674.91158027  energy(sigma->0) =     -675.01210303


--------------------------------------------------------------------------------------------------------




--------------------------------------- Iteration      1(   2)  ---------------------------------------


    POTLOK:  cpu time      1.9669: real time      1.9923
    SETDIJ:  cpu time      1.3965: real time      1.3974
    EDDIAG:  cpu time     54.5201: real time     54.5513
     EDDAV:  cpu time    240.7215: real time    240.8804
       DOS:  cpu time      0.0029: real time      0.0029
    CHARGE:  cpu time     30.8091: real time     30.8379
    MIXING:  cpu time      0.0416: real time      0.0417
    --------------------------------------------
      LOOP:  cpu time    329.4586: real time    329.7038

 eigenvalue-minimisations  :  2816
 total energy-change (2. order) : 0.4910979E+02  (-0.7259925E+00)
 number of electron     274.9999999 magnetization 
 augmentation part      -15.6124550 magnetization 

 Broyden mixing:
  rms(total) = 0.65285E+00    rms(broyden)= 0.12811E+02
  rms(prec ) = 0.66642E+00
  weight for this iteration     100.00
  WARNING: grid for Broyden might be to small

 eigenvalues of (default mixing * dielectric matrix)
  average eigenvalue GAMMA=   0.6339
  0.6339

 Free energy of the ion-electron system (eV)
  ---------------------------------------------------
  alpha Z        PSCENC =        28.54719548
  Ewald energy   TEWEN  =     32935.63012881
  -Hartree energ DENC   =    -38993.71325421
  -exchange      EXHF   =         0.00000000
  -V(xc)+E(xc)   XCENC  =      -333.27480401
  PAW double counting   =     27355.93154629   -26677.10936065
  entropy T*S    EENTRO =        -0.18757996
  eigenvalues    EBANDS =     -1987.83662290
  atomic energy  EATOM  =      7046.00991905
  Solvation  Ediel_sol  =         0.00000000
  ---------------------------------------------------
  free energy    TOTEN  =      -626.00283209 eV

  energy without entropy =     -625.81525213  energy(sigma->0) =     -625.90904211


--------------------------------------------------------------------------------------------------------




--------------------------------------- Iteration      1(   3)  ---------------------------------------


    POTLOK:  cpu time      1.9731: real time      1.9953
    SETDIJ:  cpu time      1.3926: real time      1.3934
    EDDIAG:  cpu time     54.5638: real time     54.5943
     EDDAV:  cpu time    241.0504: real time    241.2093
       DOS:  cpu time      0.0028: real time      0.0029
    CHARGE:  cpu time     30.8345: real time     30.8636
    MIXING:  cpu time      0.0393: real time      0.0393
    --------------------------------------------
      LOOP:  cpu time    329.8565: real time    330.0980

 eigenvalue-minimisations  :  2816
 total energy-change (2. order) :-0.2467706E+01  (-0.6040851E+00)
 number of electron     274.9999999 magnetization 
 augmentation part      -15.5589085 magnetization 

 Broyden mixing:
  rms(total) = 0.26126E+00    rms(broyden)= 0.19893E+02
  rms(prec ) = 0.33116E+00
  weight for this iteration     100.00
  WARNING: grid for Broyden might be to small

 eigenvalues of (default mixing * dielectric matrix)
  average eigenvalue GAMMA=   0.8118
  0.9974  0.6262

 Free energy of the ion-electron system (eV)
  ---------------------------------------------------
  alpha Z        PSCENC =        28.54719548
  Ewald energy   TEWEN  =     32935.63012881
  -Hartree energ DENC   =    -38991.99153854
  -exchange      EXHF   =         0.00000000
  -V(xc)+E(xc)   XCENC  =      -335.80560120
  PAW double counting   =     32774.76665472   -32096.06912413
  entropy T*S    EENTRO =        -0.19299257
  eigenvalues    EBANDS =     -1989.36517997
  atomic energy  EATOM  =      7046.00991905
  Solvation  Ediel_sol  =         0.00000000
  ---------------------------------------------------
  free energy    TOTEN  =      -628.47053834 eV

  energy without entropy =     -628.27754577  energy(sigma->0) =     -628.37404205


--------------------------------------------------------------------------------------------------------




--------------------------------------- Iteration      1(   4)  ---------------------------------------


    POTLOK:  cpu time      1.9586: real time      1.9885
    SETDIJ:  cpu time      1.4037: real time      1.4042
    EDDIAG:  cpu time     54.5201: real time     54.5467
     EDDAV:  cpu time    247.5252: real time    247.6815
       DOS:  cpu time      0.0029: real time      0.0029
    CHARGE:  cpu time     30.8253: real time     30.8525
    MIXING:  cpu time      0.0390: real time      0.0390
    --------------------------------------------
      LOOP:  cpu time    336.2748: real time    336.5154

 eigenvalue-minimisations  :  2960
 total energy-change (2. order) : 0.3263259E+00  (-0.6766686E-01)
 number of electron     274.9999999 magnetization 
 augmentation part      -15.5530794 magnetization 

 Broyden mixing:
  rms(total) = 0.49034E-01    rms(broyden)= 0.20699E+01
  rms(prec ) = 0.61580E-01
  weight for this iteration     100.00
  WARNING: grid for Broyden might be to small

 eigenvalues of (default mixing * dielectric matrix)
  average eigenvalue GAMMA=   1.1148
  1.9872  0.7389  0.6182

 Free energy of the ion-electron system (eV)
  ---------------------------------------------------
  alpha Z        PSCENC =        28.54719548
  Ewald energy   TEWEN  =     32935.63012881
  -Hartree energ DENC   =    -38992.30453131
  -exchange      EXHF   =         0.00000000
  -V(xc)+E(xc)   XCENC  =      -336.51619397
  PAW double counting   =     36674.75572069   -35996.10884603
  entropy T*S    EENTRO =        -0.18701725
  eigenvalues    EBANDS =     -1987.97058788
  atomic energy  EATOM  =      7046.00991905
  Solvation  Ediel_sol  =         0.00000000
  ---------------------------------------------------
  free energy    TOTEN  =      -628.14421239 eV

  energy without entropy =     -627.95719515  energy(sigma->0) =     -628.05070377


--------------------------------------------------------------------------------------------------------




--------------------------------------- Iteration      1(   5)  ---------------------------------------


    POTLOK:  cpu time      1.9671: real time      1.9960
    SETDIJ:  cpu time      1.4056: real time      1.4064
    EDDIAG:  cpu time     54.4981: real time     54.5288
     EDDAV:  cpu time    269.2401: real time    269.4104
       DOS:  cpu time      0.0031: real time      0.0031
    CHARGE:  cpu time     30.8379: real time     30.8647
    MIXING:  cpu time      0.0400: real time      0.0400
    --------------------------------------------
      LOOP:  cpu time    357.9920: real time    358.2495

 eigenvalue-minimisations  :  3416
 total energy-change (2. order) :-0.2910058E-01  (-0.7517294E-02)
 number of electron     274.9999999 magnetization 
 augmentation part      -15.5538170 magnetization 

 Broyden mixing:
  rms(total) = 0.33854E-01    rms(broyden)= 0.26312E+00
  rms(prec ) = 0.40364E-01
  weight for this iteration     100.00
  WARNING: grid for Broyden might be to small

 eigenvalues of (default mixing * dielectric matrix)
  average eigenvalue GAMMA=   1.1119
  2.4543  0.8071  0.6269  0.5593

 Free energy of the ion-electron system (eV)
  ---------------------------------------------------
  alpha Z        PSCENC =        28.54719548
  Ewald energy   TEWEN  =     32935.63012881
  -Hartree energ DENC   =    -38992.31579782
  -exchange      EXHF   =         0.00000000
  -V(xc)+E(xc)   XCENC  =      -337.30947417
  PAW double counting   =     36329.32767363   -35650.65907712
  entropy T*S    EENTRO =        -0.19120545
  eigenvalues    EBANDS =     -1987.21267539
  atomic energy  EATOM  =      7046.00991905
  Solvation  Ediel_sol  =         0.00000000
  ---------------------------------------------------
  free energy    TOTEN  =      -628.17331297 eV

  energy without entropy =     -627.98210752  energy(sigma->0) =     -628.07771025


--------------------------------------------------------------------------------------------------------




--------------------------------------- Iteration      1(   6)  ---------------------------------------


    POTLOK:  cpu time      1.9791: real time      2.0020
    SETDIJ:  cpu time      1.4026: real time      1.4032
    EDDIAG:  cpu time     54.4702: real time     54.4992
     EDDAV:  cpu time    255.8215: real time    255.9879
       DOS:  cpu time      0.0045: real time      0.0045
    CHARGE:  cpu time     30.8372: real time     30.8658
    MIXING:  cpu time      0.0401: real time      0.0401
    --------------------------------------------
      LOOP:  cpu time    344.5551: real time    344.8026

 eigenvalue-minimisations  :  3136
 total energy-change (2. order) :-0.2569187E-02  (-0.1722567E-02)
 number of electron     274.9999999 magnetization 
 augmentation part      -15.5537905 magnetization 

 Broyden mixing:
  rms(total) = 0.22091E-01    rms(broyden)= 0.19910E+00
  rms(prec ) = 0.23913E-01
  weight for this iteration     100.00
  WARNING: grid for Broyden might be to small

 eigenvalues of (default mixing * dielectric matrix)
  average eigenvalue GAMMA=   1.0930
  2.5698  1.0268  0.6916  0.6293  0.5473

 Free energy of the ion-electron system (eV)
  ---------------------------------------------------
  alpha Z        PSCENC =        28.54719548
  Ewald energy   TEWEN  =     32935.63012881
  -Hartree energ DENC   =    -38992.32127557
  -exchange      EXHF   =         0.00000000
  -V(xc)+E(xc)   XCENC  =      -337.44709581
  PAW double counting   =     36232.99358029   -35554.31358646
  entropy T*S    EENTRO =        -0.18889305
  eigenvalues    EBANDS =     -1987.08585490
  atomic energy  EATOM  =      7046.00991905
  Solvation  Ediel_sol  =         0.00000000
  ---------------------------------------------------
  free energy    TOTEN  =      -628.17588216 eV

  energy without entropy =     -627.98698911  energy(sigma->0) =     -628.08143563


--------------------------------------------------------------------------------------------------------




--------------------------------------- Iteration      1(   7)  ---------------------------------------


    POTLOK:  cpu time      1.9646: real time      1.9887
    SETDIJ:  cpu time      1.3946: real time      1.3952
    EDDIAG:  cpu time     54.5244: real time     54.5526
     EDDAV:  cpu time    249.9093: real time    250.0665
       DOS:  cpu time      0.0051: real time      0.0051
    CHARGE:  cpu time     30.7929: real time     30.8207
    MIXING:  cpu time      0.0404: real time      0.0404
    --------------------------------------------
      LOOP:  cpu time    338.6314: real time    338.8693

 eigenvalue-minimisations  :  3008
 total energy-change (2. order) :-0.1331811E-02  (-0.9944791E-03)
 number of electron     274.9999999 magnetization 
 augmentation part      -15.5510077 magnetization 

 Broyden mixing:
  rms(total) = 0.87259E-02    rms(broyden)= 0.87255E-01
  rms(prec ) = 0.12516E-01
  weight for this iteration     100.00
  WARNING: grid for Broyden might be to small

 eigenvalues of (default mixing * dielectric matrix)
  average eigenvalue GAMMA=   1.0604
  2.5749  1.2396  0.8189  0.6227  0.5755  0.5308

 Free energy of the ion-electron system (eV)
  ---------------------------------------------------
  alpha Z        PSCENC =        28.54719548
  Ewald energy   TEWEN  =     32935.63012881
  -Hartree energ DENC   =    -38991.84170548
  -exchange      EXHF   =         0.00000000
  -V(xc)+E(xc)   XCENC  =      -337.23662597
  PAW double counting   =     36228.43404807   -35549.74047828
  entropy T*S    EENTRO =        -0.18990700
  eigenvalues    EBANDS =     -1987.78978866
  atomic energy  EATOM  =      7046.00991905
  Solvation  Ediel_sol  =         0.00000000
  ---------------------------------------------------
  free energy    TOTEN  =      -628.17721397 eV

  energy without entropy =     -627.98730697  energy(sigma->0) =     -628.08226047


--------------------------------------------------------------------------------------------------------




--------------------------------------- Iteration      1(   8)  ---------------------------------------


    POTLOK:  cpu time      1.9662: real time      1.9925
    SETDIJ:  cpu time      1.4050: real time      1.4061
    EDDIAG:  cpu time     54.5301: real time     54.5593
     EDDAV:  cpu time    255.2294: real time    255.3926
       DOS:  cpu time      0.0031: real time      0.0031
    CHARGE:  cpu time     30.8218: real time     30.8499
    MIXING:  cpu time      0.0411: real time      0.0411
    --------------------------------------------
      LOOP:  cpu time    343.9966: real time    344.2445

 eigenvalue-minimisations  :  3120
 total energy-change (2. order) :-0.2089521E-03  (-0.2153748E-03)
 number of electron     274.9999999 magnetization 
 augmentation part      -15.5513118 magnetization 

 Broyden mixing:
  rms(total) = 0.38999E-02    rms(broyden)= 0.33739E-01
  rms(prec ) = 0.56947E-02
  weight for this iteration     100.00
  WARNING: grid for Broyden might be to small

 eigenvalues of (default mixing * dielectric matrix)
  average eigenvalue GAMMA=   1.0560
  2.5758  1.5569  0.9239  0.7096  0.6325  0.5535  0.4398

 Free energy of the ion-electron system (eV)
  ---------------------------------------------------
  alpha Z        PSCENC =        28.54719548
  Ewald energy   TEWEN  =     32935.63012881
  -Hartree energ DENC   =    -38991.47222879
  -exchange      EXHF   =         0.00000000
  -V(xc)+E(xc)   XCENC  =      -337.24561399
  PAW double counting   =     36254.17693780   -35575.47907087
  entropy T*S    EENTRO =        -0.18927905
  eigenvalues    EBANDS =     -1988.15541135
  atomic energy  EATOM  =      7046.00991905
  Solvation  Ediel_sol  =         0.00000000
  ---------------------------------------------------
  free energy    TOTEN  =      -628.17742292 eV

  energy without entropy =     -627.98814387  energy(sigma->0) =     -628.08278339


--------------------------------------------------------------------------------------------------------




--------------------------------------- Iteration      1(   9)  ---------------------------------------


    POTLOK:  cpu time      1.9693: real time      1.9921
    SETDIJ:  cpu time      1.4025: real time      1.4032
    EDDIAG:  cpu time     54.5163: real time     54.5465
     EDDAV:  cpu time    248.3628: real time    248.5237
       DOS:  cpu time      0.0029: real time      0.0029
    CHARGE:  cpu time     30.8500: real time     30.8780
    MIXING:  cpu time      0.0422: real time      0.0422
    --------------------------------------------
      LOOP:  cpu time    337.1462: real time    337.3890

 eigenvalue-minimisations  :  2976
 total energy-change (2. order) : 0.1127839E-03  (-0.1291898E-03)
 number of electron     274.9999999 magnetization 
 augmentation part      -15.5515619 magnetization 

 Broyden mixing:
  rms(total) = 0.20917E-02    rms(broyden)= 0.18708E-01
  rms(prec ) = 0.25135E-02
  weight for this iteration     100.00
  WARNING: grid for Broyden might be to small

 eigenvalues of (default mixing * dielectric matrix)
  average eigenvalue GAMMA=   1.1383
  2.6129  2.3694  1.0561  0.8331  0.6610  0.6294  0.5252  0.4191

 Free energy of the ion-electron system (eV)
  ---------------------------------------------------
  alpha Z        PSCENC =        28.54719548
  Ewald energy   TEWEN  =     32935.63012881
  -Hartree energ DENC   =    -38991.18656225
  -exchange      EXHF   =         0.00000000
  -V(xc)+E(xc)   XCENC  =      -337.27706345
  PAW double counting   =     36266.48017636   -35587.78120020
  entropy T*S    EENTRO =        -0.18953152
  eigenvalues    EBANDS =     -1988.41037242
  atomic energy  EATOM  =      7046.00991905
  Solvation  Ediel_sol  =         0.00000000
  ---------------------------------------------------
  free energy    TOTEN  =      -628.17731014 eV

  energy without entropy =     -627.98777861  energy(sigma->0) =     -628.08254438


--------------------------------------------------------------------------------------------------------




--------------------------------------- Iteration      1(  10)  ---------------------------------------


    POTLOK:  cpu time      1.9848: real time      2.0104
    SETDIJ:  cpu time      1.4022: real time      1.4032
    EDDIAG:  cpu time     54.5044: real time     54.5354
     EDDAV:  cpu time    248.3783: real time    248.5428
       DOS:  cpu time      0.0110: real time      0.0114
    CHARGE:  cpu time     30.8166: real time     30.8447
    MIXING:  cpu time      0.0586: real time      0.0596
    --------------------------------------------
      LOOP:  cpu time    337.1557: real time    337.4074

 eigenvalue-minimisations  :  2976
 total energy-change (2. order) :-0.1248372E-03  (-0.4087713E-04)
 number of electron     274.9999999 magnetization 
 augmentation part      -15.5516494 magnetization 

 Broyden mixing:
  rms(total) = 0.12227E-02    rms(broyden)= 0.66562E-02
  rms(prec ) = 0.15664E-02
  weight for this iteration     100.00
  WARNING: grid for Broyden might be to small

 eigenvalues of (default mixing * dielectric matrix)
  average eigenvalue GAMMA=   1.1358
  2.6801  2.6166  1.1101  0.8709  0.7376  0.6271  0.6271  0.5304  0.4222

 Free energy of the ion-electron system (eV)
  ---------------------------------------------------
  alpha Z        PSCENC =        28.54719548
  Ewald energy   TEWEN  =     32935.63012881
  -Hartree energ DENC   =    -38990.90762912
  -exchange      EXHF   =         0.00000000
  -V(xc)+E(xc)   XCENC  =      -337.28686322
  PAW double counting   =     36262.90420863   -35584.20420297
  entropy T*S    EENTRO =        -0.18944352
  eigenvalues    EBANDS =     -1988.68074811
  atomic energy  EATOM  =      7046.00991905
  Solvation  Ediel_sol  =         0.00000000
  ---------------------------------------------------
  free energy    TOTEN  =      -628.17743498 eV

  energy without entropy =     -627.98799145  energy(sigma->0) =     -628.08271321


--------------------------------------------------------------------------------------------------------




--------------------------------------- Iteration      1(  11)  ---------------------------------------


    POTLOK:  cpu time      1.9695: real time      1.9959
    SETDIJ:  cpu time      1.4075: real time      1.4084
    EDDIAG:  cpu time     54.5465: real time     54.5768
     EDDAV:  cpu time    247.1591: real time    247.3214
       DOS:  cpu time      0.0041: real time      0.0041
    CHARGE:  cpu time     30.8366: real time     30.8667
    MIXING:  cpu time      0.0431: real time      0.0431
    --------------------------------------------
      LOOP:  cpu time    335.9663: real time    336.2164

 eigenvalue-minimisations  :  2952
 total energy-change (2. order) :-0.1733377E-03  (-0.4088797E-04)
 number of electron     274.9999999 magnetization 
 augmentation part      -15.5517944 magnetization 

 Broyden mixing:
  rms(total) = 0.63250E-03    rms(broyden)= 0.63586E-02
  rms(prec ) = 0.94700E-03
  weight for this iteration     100.00
  WARNING: grid for Broyden might be to small

 eigenvalues of (default mixing * dielectric matrix)
  average eigenvalue GAMMA=   1.1801
  2.7741  2.7741  1.4388  1.1132  0.8536  0.4315  0.6776  0.6281  0.5206  0.5893

 Free energy of the ion-electron system (eV)
  ---------------------------------------------------
  alpha Z        PSCENC =        28.54719548
  Ewald energy   TEWEN  =     32935.63012881
  -Hartree energ DENC   =    -38990.51447648
  -exchange      EXHF   =         0.00000000
  -V(xc)+E(xc)   XCENC  =      -337.29722191
  PAW double counting   =     36259.79326147   -35581.09230099
  entropy T*S    EENTRO =        -0.18948084
  eigenvalues    EBANDS =     -1989.06463291
  atomic energy  EATOM  =      7046.00991905
  Solvation  Ediel_sol  =         0.00000000
  ---------------------------------------------------
  free energy    TOTEN  =      -628.17760831 eV

  energy without entropy =     -627.98812747  energy(sigma->0) =     -628.08286789


--------------------------------------------------------------------------------------------------------




--------------------------------------- Iteration      1(  12)  ---------------------------------------


    POTLOK:  cpu time      1.9725: real time      1.9913
    SETDIJ:  cpu time      1.4003: real time      1.4009
    EDDIAG:  cpu time     54.5168: real time     54.5464
     EDDAV:  cpu time    246.7297: real time    246.8910
       DOS:  cpu time      0.0111: real time      0.0114
    CHARGE:  cpu time     30.8258: real time     30.8681
    MIXING:  cpu time      0.0579: real time      0.0594
    --------------------------------------------
      LOOP:  cpu time    335.5140: real time    335.7683

 eigenvalue-minimisations  :  2944
 total energy-change (2. order) :-0.1676597E-03  (-0.2533568E-04)
 number of electron     274.9999999 magnetization 
 augmentation part      -15.5518858 magnetization 

 Broyden mixing:
  rms(total) = 0.40978E-03    rms(broyden)= 0.22998E-02
  rms(prec ) = 0.68133E-03
  weight for this iteration     100.00
  WARNING: grid for Broyden might be to small

 eigenvalues of (default mixing * dielectric matrix)
  average eigenvalue GAMMA=   1.1641
  2.9401  2.7132  1.6527  1.0738  0.8947  0.4327  0.7121  0.6244  0.6244  0.6266
  0.5104

 Free energy of the ion-electron system (eV)
  ---------------------------------------------------
  alpha Z        PSCENC =        28.54719548
  Ewald energy   TEWEN  =     32935.63012881
  -Hartree energ DENC   =    -38990.27935075
  -exchange      EXHF   =         0.00000000
  -V(xc)+E(xc)   XCENC  =      -337.30617730
  PAW double counting   =     36259.92298596   -35581.22207218
  entropy T*S    EENTRO =        -0.18947004
  eigenvalues    EBANDS =     -1989.29093500
  atomic energy  EATOM  =      7046.00991905
  Solvation  Ediel_sol  =         0.00000000
  ---------------------------------------------------
  free energy    TOTEN  =      -628.17777597 eV

  energy without entropy =     -627.98830593  energy(sigma->0) =     -628.08304095


--------------------------------------------------------------------------------------------------------




--------------------------------------- Iteration      1(  13)  ---------------------------------------


    POTLOK:  cpu time      1.9914: real time      1.9926
    SETDIJ:  cpu time      1.4050: real time      1.4067
    EDDIAG:  cpu time     54.5389: real time     54.5711
     EDDAV:  cpu time    246.8595: real time    247.0163
       DOS:  cpu time      0.0028: real time      0.0028
    CHARGE:  cpu time     30.8192: real time     30.8478
    MIXING:  cpu time      0.0454: real time      0.0454
    --------------------------------------------
      LOOP:  cpu time    335.6622: real time    335.8827

 eigenvalue-minimisations  :  2944
 total energy-change (2. order) :-0.1912721E-03  (-0.3189709E-04)
 number of electron     274.9999999 magnetization 
 augmentation part      -15.5519696 magnetization 

 Broyden mixing:
  rms(total) = 0.27564E-03    rms(broyden)= 0.13618E-02
  rms(prec ) = 0.47873E-03
  weight for this iteration     100.00
  WARNING: grid for Broyden might be to small

 eigenvalues of (default mixing * dielectric matrix)
  average eigenvalue GAMMA=   1.1980
  3.0997  2.6873  1.9958  1.1477  1.1477  0.8604  0.4313  0.6611  0.5193  0.6278
  0.5988  0.5988

 Free energy of the ion-electron system (eV)
  ---------------------------------------------------
  alpha Z        PSCENC =        28.54719548
  Ewald energy   TEWEN  =     32935.63012881
  -Hartree energ DENC   =    -38990.03192019
  -exchange      EXHF   =         0.00000000
  -V(xc)+E(xc)   XCENC  =      -337.31296532
  PAW double counting   =     36260.44156304   -35581.74098434
  entropy T*S    EENTRO =        -0.18947411
  eigenvalues    EBANDS =     -1989.53142966
  atomic energy  EATOM  =      7046.00991905
  Solvation  Ediel_sol  =         0.00000000
  ---------------------------------------------------
  free energy    TOTEN  =      -628.17796724 eV

  energy without entropy =     -627.98849313  energy(sigma->0) =     -628.08323019


--------------------------------------------------------------------------------------------------------




--------------------------------------- Iteration      1(  14)  ---------------------------------------


    POTLOK:  cpu time      1.9783: real time      1.9994
    SETDIJ:  cpu time      1.3962: real time      1.3976
    EDDIAG:  cpu time     54.5210: real time     54.5545
     EDDAV:  cpu time    246.1666: real time    246.3270
       DOS:  cpu time      0.0028: real time      0.0028
    CHARGE:  cpu time     30.8049: real time     30.8452
    MIXING:  cpu time      0.0462: real time      0.0462
    --------------------------------------------
      LOOP:  cpu time    334.9160: real time    335.1727

 eigenvalue-minimisations  :  2928
 total energy-change (2. order) :-0.1928613E-03  (-0.3405227E-04)
 number of electron     274.9999999 magnetization 
 augmentation part      -15.5520266 magnetization 

 Broyden mixing:
  rms(total) = 0.20778E-03    rms(broyden)= 0.19623E-02
  rms(prec ) = 0.34242E-03
  weight for this iteration     100.00
  WARNING: grid for Broyden might be to small

 eigenvalues of (default mixing * dielectric matrix)
  average eigenvalue GAMMA=   1.2197
  3.2708  2.6885  2.3516  1.3971  1.0612  0.8427  0.8427  0.4310  0.6412  0.6412
  0.6096  0.5216  0.5567

 Free energy of the ion-electron system (eV)
  ---------------------------------------------------
  alpha Z        PSCENC =        28.54719548
  Ewald energy   TEWEN  =     32935.63012881
  -Hartree energ DENC   =    -38989.79046573
  -exchange      EXHF   =         0.00000000
  -V(xc)+E(xc)   XCENC  =      -337.31806010
  PAW double counting   =     36260.31923012   -35581.61903547
  entropy T*S    EENTRO =        -0.18947963
  eigenvalues    EBANDS =     -1989.76759265
  atomic energy  EATOM  =      7046.00991905
  Solvation  Ediel_sol  =         0.00000000
  ---------------------------------------------------
  free energy    TOTEN  =      -628.17816011 eV

  energy without entropy =     -627.98868048  energy(sigma->0) =     -628.08342029


--------------------------------------------------------------------------------------------------------




--------------------------------------- Iteration      1(  15)  ---------------------------------------


    POTLOK:  cpu time      1.9715: real time      1.9968
    SETDIJ:  cpu time      1.4011: real time      1.4019
    EDDIAG:  cpu time     54.4551: real time     54.4852
     EDDAV:  cpu time    246.1741: real time    246.3456
       DOS:  cpu time      0.0033: real time      0.0033
    CHARGE:  cpu time     30.8228: real time     30.8510
    MIXING:  cpu time      0.0462: real time      0.0462
    --------------------------------------------
      LOOP:  cpu time    334.8740: real time    335.1300

 eigenvalue-minimisations  :  2928
 total energy-change (2. order) :-0.1168049E-03  (-0.2344860E-04)
 number of electron     274.9999999 magnetization 
 augmentation part      -15.5520766 magnetization 

 Broyden mixing:
  rms(total) = 0.13907E-03    rms(broyden)= 0.75934E-03
  rms(prec ) = 0.21411E-03
  weight for this iteration     100.00
  WARNING: grid for Broyden might be to small

 eigenvalues of (default mixing * dielectric matrix)
  average eigenvalue GAMMA=   1.2584
  3.5265  2.6493  2.6493  1.5714  1.1400  1.1400  0.8522  0.4309  0.7191  0.6370
  0.6169  0.6169  0.5191  0.5485

 Free energy of the ion-electron system (eV)
  ---------------------------------------------------
  alpha Z        PSCENC =        28.54719548
  Ewald energy   TEWEN  =     32935.63012881
  -Hartree energ DENC   =    -38989.60290607
  -exchange      EXHF   =         0.00000000
  -V(xc)+E(xc)   XCENC  =      -337.32097708
  PAW double counting   =     36260.41757453   -35581.71766429
  entropy T*S    EENTRO =        -0.18948358
  eigenvalues    EBANDS =     -1989.95206376
  atomic energy  EATOM  =      7046.00991905
  Solvation  Ediel_sol  =         0.00000000
  ---------------------------------------------------
  free energy    TOTEN  =      -628.17827691 eV

  energy without entropy =     -627.98879333  energy(sigma->0) =     -628.08353512


--------------------------------------------------------------------------------------------------------




--------------------------------------- Iteration      1(  16)  ---------------------------------------


    POTLOK:  cpu time      1.9647: real time      1.9913
    SETDIJ:  cpu time      1.4037: real time      1.4045
    EDDIAG:  cpu time     54.4711: real time     54.5024
     EDDAV:  cpu time    247.0614: real time    247.2237
       DOS:  cpu time      0.0028: real time      0.0028
    CHARGE:  cpu time     30.8160: real time     30.8442
    MIXING:  cpu time      0.0470: real time      0.0470
    --------------------------------------------
      LOOP:  cpu time    335.7666: real time    336.0158

 eigenvalue-minimisations  :  2944
 total energy-change (2. order) :-0.6476714E-04  (-0.1153285E-04)
 number of electron     274.9999999 magnetization 
 augmentation part      -15.5520946 magnetization 

 Broyden mixing:
  rms(total) = 0.94689E-04    rms(broyden)= 0.68882E-03
  rms(prec ) = 0.13868E-03
  weight for this iteration     100.00
  WARNING: grid for Broyden might be to small

 eigenvalues of (default mixing * dielectric matrix)
  average eigenvalue GAMMA=   1.3238
  4.1139  2.8129  2.7554  1.9142  1.3733  1.0824  0.8755  0.8755  0.7179  0.4310
  0.6270  0.6270  0.6012  0.5157  0.5343

 Free energy of the ion-electron system (eV)
  ---------------------------------------------------
  alpha Z        PSCENC =        28.54719548
  Ewald energy   TEWEN  =     32935.63012881
  -Hartree energ DENC   =    -38989.48934263
  -exchange      EXHF   =         0.00000000
  -V(xc)+E(xc)   XCENC  =      -337.32134072
  PAW double counting   =     36260.63205769   -35581.93224630
  entropy T*S    EENTRO =        -0.18948428
  eigenvalues    EBANDS =     -1990.06522878
  atomic energy  EATOM  =      7046.00991905
  Solvation  Ediel_sol  =         0.00000000
  ---------------------------------------------------
  free energy    TOTEN  =      -628.17834168 eV

  energy without entropy =     -627.98885740  energy(sigma->0) =     -628.08359954


--------------------------------------------------------------------------------------------------------




--------------------------------------- Iteration      1(  17)  ---------------------------------------


    POTLOK:  cpu time      1.9680: real time      1.9901
    SETDIJ:  cpu time      1.3965: real time      1.3972
    EDDIAG:  cpu time     54.4620: real time     54.4927
     EDDAV:  cpu time    246.8702: real time    247.0257
       DOS:  cpu time      0.0029: real time      0.0029
    CHARGE:  cpu time     30.8238: real time     30.8502
    MIXING:  cpu time      0.0471: real time      0.0479
    --------------------------------------------
      LOOP:  cpu time    335.5705: real time    335.8066

 eigenvalue-minimisations  :  2944
 total energy-change (2. order) :-0.3826724E-04  (-0.6454492E-05)
 number of electron     274.9999999 magnetization 
 augmentation part      -15.5521098 magnetization 

 Broyden mixing:
  rms(total) = 0.64785E-04    rms(broyden)= 0.53996E-03
  rms(prec ) = 0.91274E-04
  weight for this iteration     100.00
  WARNING: grid for Broyden might be to small

 eigenvalues of (default mixing * dielectric matrix)
  average eigenvalue GAMMA=   1.3822
  4.9525  3.0293  2.7204  2.1584  1.3978  1.1907  1.0254  0.9018  0.4310  0.7128
  0.6979  0.6529  0.6037  0.6037  0.5302  0.5066

 Free energy of the ion-electron system (eV)
  ---------------------------------------------------
  alpha Z        PSCENC =        28.54719548
  Ewald energy   TEWEN  =     32935.63012881
  -Hartree energ DENC   =    -38989.42112842
  -exchange      EXHF   =         0.00000000
  -V(xc)+E(xc)   XCENC  =      -337.32165080
  PAW double counting   =     36260.68253658   -35581.98273129
  entropy T*S    EENTRO =        -0.18949238
  eigenvalues    EBANDS =     -1990.13315698
  atomic energy  EATOM  =      7046.00991905
  Solvation  Ediel_sol  =         0.00000000
  ---------------------------------------------------
  free energy    TOTEN  =      -628.17837995 eV

  energy without entropy =     -627.98888757  energy(sigma->0) =     -628.08363376


[...]
   0.432E+01 -.176E+02 0.312E+02   -.409E+01 0.167E+02 -.308E+02   -.114E+00 0.141E+01 -.977E+00   -.127E-04 -.776E-05 -.734E-06
   0.161E+02 0.320E+01 0.806E+02   -.137E+02 -.323E+01 -.817E+02   -.159E+01 -.426E+00 0.194E+00   -.275E-05 0.759E-05 0.589E-05
   0.209E+01 0.116E+02 -.221E+03   -.269E+01 -.118E+02 0.220E+03   0.859E-01 0.425E+00 0.106E+01   -.328E-05 -.377E-05 0.207E-05
   0.139E+02 0.915E+01 0.732E+02   -.135E+02 -.833E+01 -.738E+02   -.949E+00 -.862E+00 -.249E+00   0.877E-05 0.300E-04 -.454E-05
   0.880E+01 0.273E+01 0.273E+02   -.756E+01 -.306E+01 -.291E+02   -.131E+01 -.347E-01 0.195E+01   0.115E-04 -.136E-05 0.121E-04
   -.578E+01 0.119E+02 0.126E+03   0.496E+01 -.115E+02 -.126E+03   0.469E-02 -.406E+00 -.188E+00   -.612E-05 -.131E-04 0.287E-05
   0.527E+01 0.141E+02 0.253E+03   -.349E+01 -.129E+02 -.250E+03   -.165E+01 -.170E+01 -.235E+01   -.182E-04 -.539E-05 -.125E-04
   0.174E+02 0.236E+02 -.122E+03   -.168E+02 -.229E+02 0.121E+03   -.581E+00 -.143E+01 0.250E+01   -.928E-05 0.765E-05 -.618E-05
   0.357E+01 0.976E+01 0.183E+03   -.302E+01 -.723E+01 -.184E+03   0.608E+00 -.181E+01 0.729E+00   0.420E-05 -.206E-04 -.350E-05
   -.179E+02 -.310E+02 -.186E+03   0.183E+02 0.291E+02 0.185E+03   -.179E+00 0.276E+01 0.191E+01   -.563E-04 0.103E-03 -.648E-05
   0.125E+02 -.590E+01 -.146E+03   -.127E+02 0.552E+01 0.144E+03   0.687E+00 0.608E+00 0.183E+01   -.172E-04 -.699E-05 -.253E-05
   -.130E+01 0.345E+01 -.158E+03   -.947E+00 -.389E+01 0.158E+03   0.242E+01 0.180E+01 0.462E+00   -.316E-04 -.521E-04 -.461E-05
   -.224E+02 0.518E+00 -.644E+02   0.218E+02 -.122E+01 0.664E+02   0.130E+01 0.642E+00 -.893E+00   0.289E-05 -.417E-05 0.272E-04
   0.324E+02 0.685E+01 0.222E+03   -.314E+02 -.648E+01 -.219E+03   0.139E-01 -.693E+00 -.362E+01   0.179E-04 -.729E-05 0.295E-05
   -.216E+02 -.306E+02 0.257E+03   0.241E+02 0.313E+02 -.259E+03   -.171E+01 0.129E+00 0.173E+01   -.109E-04 -.102E-04 0.162E-06
   -.201E+02 0.210E+01 -.126E+03   0.189E+02 -.303E+01 0.123E+03   0.855E+00 0.117E+01 0.641E+01   -.622E-05 -.365E-04 -.104E-04
   0.882E+01 0.218E+02 0.252E+02   -.882E+01 -.208E+02 -.253E+02   0.471E+00 -.129E+01 0.607E+00   0.175E-04 -.404E-04 -.249E-04
   0.106E+02 -.481E+01 0.133E+03   -.954E+01 0.484E+01 -.134E+03   -.139E+01 0.406E+00 0.653E+00   0.407E-05 -.202E-04 -.281E-04
   0.360E+02 0.488E+01 0.271E+03   -.370E+02 -.519E+01 -.275E+03   0.595E+00 0.495E+00 0.442E+01   0.236E-04 0.104E-04 -.181E-04
   0.640E+01 -.185E+01 -.263E+03   -.694E+01 0.168E+01 0.267E+03   0.795E+00 0.111E+00 -.533E+01   0.103E-04 0.254E-04 -.435E-04
   0.806E+01 -.226E+02 -.714E+01   -.782E+01 0.199E+02 0.760E+01   0.955E-01 0.196E+01 -.328E+00   -.856E-05 0.405E-04 0.836E-05
   -.217E+02 -.150E+02 -.248E+03   0.204E+02 0.165E+02 0.247E+03   0.140E+01 -.233E+01 0.176E+01   0.109E-04 -.227E-04 0.122E-05
   -.355E+01 -.178E+02 0.412E+02   0.271E+01 0.161E+02 -.413E+02   -.426E+00 0.153E+01 0.485E-02   -.522E-05 -.111E-04 -.138E-04
   -.741E+01 0.209E+01 0.197E+03   0.565E+01 -.207E+01 -.195E+03   0.174E+01 -.104E+01 -.133E+01   0.739E-05 -.115E-04 -.249E-04
   -.710E+01 0.257E+02 0.229E+03   0.693E+01 -.246E+02 -.226E+03   0.168E+00 -.108E+01 -.191E+01   -.118E-04 -.803E-05 -.104E-04
   -.162E+02 0.126E+02 0.292E+03   0.146E+02 -.133E+02 -.295E+03   0.186E+01 0.144E+00 0.168E+01   -.923E-05 0.349E-05 -.156E-04
   0.143E+02 -.107E+02 -.154E+03   -.149E+02 0.106E+02 0.156E+03   0.831E+00 0.592E+00 -.710E+00   -.245E-05 0.143E-04 0.128E-04
   0.153E+02 0.160E+01 -.248E+03   -.154E+02 -.221E+01 0.246E+03   0.827E-01 -.428E-01 0.120E+01   -.102E-04 -.210E-04 -.213E-05
   -.124E+02 0.825E+01 0.167E+03   0.100E+02 -.588E+01 -.166E+03   0.167E+01 -.240E+01 -.507E+00   -.166E-05 -.853E-05 -.103E-04
   0.648E+01 -.203E+02 0.107E+00   -.510E+01 0.187E+02 0.169E+00   -.177E+01 0.173E+01 -.390E+00   0.195E-04 -.449E-06 -.846E-04
   -.932E+01 0.134E+01 -.227E+03   0.858E+01 -.631E+00 0.226E+03   0.516E+00 -.344E+00 0.106E+01   0.555E-05 -.358E-04 0.359E-05
   0.273E+02 -.204E+02 0.195E+03   -.268E+02 0.203E+02 -.194E+03   -.107E+01 0.630E+00 -.173E+01   0.157E-04 0.246E-04 -.126E-04
   0.115E+02 0.716E+01 -.675E+02   -.103E+02 -.490E+01 0.655E+02   -.114E+01 -.318E+01 0.202E+01   0.221E-04 0.126E-05 0.827E-05
   -.120E+02 -.125E+01 -.652E+02   0.118E+02 0.159E+01 0.646E+02   0.518E+00 0.168E+00 0.356E+00   -.533E-05 -.358E-04 -.392E-04
   0.124E+02 0.190E+02 0.275E+03   -.119E+02 -.186E+02 -.279E+03   -.412E+00 -.387E+00 0.452E+01   0.153E-04 -.584E-05 -.127E-05
   0.249E+02 0.361E+01 0.168E+03   -.254E+02 -.353E+01 -.170E+03   -.217E+00 -.173E+01 0.195E+01   0.401E-05 0.307E-04 -.526E-04
   0.822E+01 0.813E+01 -.780E+02   -.823E+01 -.778E+01 0.781E+02   -.783E-01 0.945E+00 0.897E+00   -.487E-05 -.101E-04 0.283E-05
   -.236E+02 -.208E+02 -.169E+02   0.218E+02 0.200E+02 0.163E+02   0.146E+01 0.180E+01 0.825E+00   -.344E-05 0.355E-04 -.950E-05
   -.879E+01 -.159E+02 0.502E+02   0.847E+01 0.138E+02 -.516E+02   -.226E+00 0.217E+01 0.793E+00   -.727E-06 -.208E-05 -.153E-04
   0.514E+02 0.172E+02 -.271E+03   -.497E+02 -.169E+02 0.270E+03   -.157E+01 -.691E+00 0.134E+01   -.233E-04 0.166E-04 0.173E-04
   -.357E+01 -.663E+01 0.193E+03   0.323E+01 0.743E+01 -.190E+03   -.628E+00 -.111E+01 -.151E+01   -.777E-05 0.174E-04 -.351E-05
   -.351E+01 0.101E+02 0.156E+03   0.159E+01 -.998E+01 -.155E+03   0.180E+01 -.798E+00 -.686E+00   0.659E-05 0.145E-04 0.503E-05
   0.170E+02 -.277E+02 -.232E+03   -.153E+02 0.252E+02 0.230E+03   -.158E+01 0.295E+01 0.160E+01   -.896E-05 0.341E-04 0.597E-05
   0.158E+01 0.445E+02 -.246E+03   -.221E+00 -.421E+02 0.245E+03   -.129E+01 -.228E+01 0.105E+01   0.120E-05 -.286E-04 0.155E-04
   -.263E+02 0.391E+01 -.165E+03   0.278E+02 -.303E+01 0.162E+03   -.117E+01 -.170E+01 0.217E+01   -.254E-04 -.381E-04 0.235E-05
   0.898E+00 0.445E+02 -.207E+03   -.738E+00 -.431E+02 0.206E+03   -.404E+00 -.196E+01 -.258E+00   0.348E-04 -.404E-04 0.214E-05
   0.123E+02 -.233E+01 -.782E+02   -.118E+02 0.300E+01 0.805E+02   -.497E+00 -.197E+01 -.185E+01   -.889E-05 -.131E-04 0.484E-04
   -.832E+01 0.156E+02 0.126E+03   0.723E+01 -.133E+02 -.126E+03   0.923E+00 -.925E+00 0.127E+01   0.129E-05 -.959E-05 -.239E-04
   -.104E+02 -.134E+02 -.148E+03   0.988E+01 0.121E+02 0.148E+03   0.346E+00 0.953E+00 0.456E+00   -.166E-04 0.461E-04 -.629E-05
   0.174E+02 -.988E+01 -.285E+03   -.191E+02 0.108E+02 0.289E+03   0.189E+01 -.953E+00 -.386E+01   0.145E-04 0.142E-05 -.501E-05
   0.322E+01 -.428E+01 0.285E+03   -.407E+01 0.672E+01 -.282E+03   0.199E+01 -.239E+01 -.318E+01   0.129E-05 0.245E-04 -.367E-04
   -.372E+01 -.480E+01 0.209E+03   0.372E+01 0.390E+01 -.210E+03   0.545E-01 0.714E+00 0.904E+00   -.974E-05 0.601E-05 -.900E-05
   0.146E+02 0.173E+01 0.133E+03   -.145E+02 -.401E+01 -.130E+03   -.124E+01 0.212E+01 -.546E+01   0.970E-05 -.190E-04 -.532E-05
   -.293E+02 -.700E+01 0.277E+03   0.322E+02 0.611E+01 -.280E+03   -.269E+01 0.134E+01 0.207E+01   -.169E-04 -.180E-05 -.572E-05
   0.123E+02 0.319E+01 0.234E+03   -.119E+02 -.172E+01 -.232E+03   -.552E+00 -.155E+01 -.135E+01   0.124E-04 -.257E-04 -.121E-04
   -.142E+02 -.111E+01 -.277E+03   0.138E+02 0.285E-01 0.280E+03   0.277E+00 0.109E+01 -.368E+01   0.806E-05 0.106E-04 -.202E-04
   -.267E+02 -.394E+01 -.291E+03   0.257E+02 0.309E+01 0.288E+03   0.159E+01 0.660E+00 0.257E+01   0.243E-04 -.523E-04 0.491E-04
   -.376E+02 -.220E+02 0.260E+03   0.382E+02 0.209E+02 -.258E+03   -.256E+00 0.115E+01 -.181E+01   -.183E-04 0.550E-05 -.281E-04
   -.143E+02 0.660E+01 -.218E+03   0.142E+02 -.710E+01 0.220E+03   0.121E+01 0.118E+01 -.251E+01   0.431E-05 -.175E-04 -.627E-05
   0.359E+01 -.640E+01 -.149E+03   -.386E+01 0.543E+01 0.149E+03   -.145E+00 0.608E+00 0.345E+00   0.980E-05 -.124E-04 0.125E-04
   -.400E+02 -.298E+02 -.205E+03   0.378E+02 0.294E+02 0.203E+03   0.243E+01 0.324E+00 0.298E+01   -.722E-04 -.254E-04 -.251E-04
   -.743E+01 0.716E+01 -.277E+03   0.725E+01 -.741E+01 0.274E+03   -.405E+00 0.515E+00 0.214E+01   -.379E-04 0.306E-04 0.182E-04
   -.656E+01 -.535E+01 0.187E+03   0.540E+01 0.572E+01 -.186E+03   0.180E+01 -.374E+00 -.941E+00   -.252E-05 0.998E-05 -.690E-05
 -----------------------------------------------------------------------------------------------
   -.130E+01 -.475E+01 -.152E+02   0.178E-13 -.171E-12 0.284E-12   0.129E+01 0.477E+01 0.152E+02   -.157E-03 -.123E-03 -.429E-03


 POSITION                                       TOTAL-FORCE (eV/Angst)
 -----------------------------------------------------------------------------------
      3.16112     10.99990     14.74465         0.114444     -0.851007     -0.043235
      0.35952      1.68017     11.76182         0.317189      0.378551     -0.388559
      4.60106      1.93386     10.79314        -0.000865      0.402007      0.241435
      3.58284      1.83094     11.88766        -0.851004      0.162288     -0.642933
      2.57716     12.28300     15.09073        -1.251474      1.492589     -0.322925
      1.12797      8.92461     13.52181        -0.042413     -0.384622     -0.936266
     14.02490      5.24792     12.32648        -0.039039      0.142769     -1.207703
      0.03688     10.90080     12.83078         0.327131      0.514812     -0.168506
      3.40221      8.64010     13.02619         0.132445      0.639982     -0.559714
      3.99626     14.24280     12.69422         0.756673     -0.497172     -0.952235
      1.19591      5.80501     15.26070        -0.511335      0.266686     -0.843007
      7.47544     12.25220     12.78943        -0.582447     -0.044641     -0.877715
      6.92945      1.67694     13.10555        -0.106347     -0.355351      0.268183
      3.85633      6.47361     12.19733        -0.804017     -0.067668     -0.056024
      0.93532      4.60713     10.59102         0.155483     -0.665982      0.633023
     14.24310      4.11477     14.30874         0.067228     -0.736408      1.835057
      6.12374      6.45526     11.84188         1.185532      0.625036      0.448807
     10.06350     12.71770     15.02998         0.237439      0.905835      0.267242
      5.01043      8.39667     14.74386         0.573284      0.255218     -0.125991
      1.15360      2.11238     14.59823         0.224652      1.476533     -0.093011
      9.04427      1.44482     14.00198         0.763220      0.015020      1.044567
      7.45601      2.97429     11.35292         1.145664     -0.338101     -0.618275
     13.12350     14.28300     10.34922         0.518575      0.621849     -0.060298
      8.53112      5.18868     14.25800        -0.305870      0.291119      2.890684
     12.29130      8.27816     12.98276         0.501847     -0.364124      0.590725
     10.26340      7.85612     11.98942        -0.347491      0.404911      0.074598
      9.72333      9.55957     10.34429        -0.258379      0.226917      0.901000
     14.03290     14.02860     16.30498         0.363107      0.011250     -1.447104
      1.05736     12.93420     13.32856         0.380858     -0.702686      0.151991
      0.41694      8.07788     15.50261         0.116335     -1.152474      0.412556
      6.91147      8.38200     13.07415        -1.322328     -0.143144     -0.122720
     12.00750      4.87326     11.18800         0.013476     -1.181566      0.336503
      1.44775      2.40519     10.97320        -0.057319     -0.048114      0.648171
      0.21850      8.64264     10.00000         0.305593     -0.483606     -0.199360
      4.33204     13.79170     14.94547         0.227616      0.537888      0.475467
      4.74594      6.22894     15.64887         0.087964     -0.686475     -0.748126
     11.59440      2.56660     11.34411        -0.711457     -0.161058      0.470632
     12.32810     10.59780     13.15132        -0.458532      0.142560     -0.117954
      6.51991      4.72327     15.49008        -0.292557      0.346331     -0.579074
      9.35433     13.12040     11.67464        -0.486665      0.426237     -0.217602
      3.38313      2.99792     13.88874        -0.037450     -1.085593      0.176585
      8.88989      7.47854     13.94189         0.291846      0.495919     -0.187413
      9.50028      2.38357     10.15866         0.034166      0.035309      0.351980
     10.86210     11.43410     11.39884        -0.629840     -1.706166      0.348961
      3.16707      5.23383     14.07219        -0.080293      1.334813      1.032434
     10.52240     14.20520     13.32156        -0.307930      1.071881      0.239306
     12.51930      0.61521     12.49510        -0.597876      0.244221     -0.553462
      5.46134     10.08490     16.37549         0.267298     -0.368234     -0.237173
      2.93615     12.43410     11.66688        -0.912918     -0.384538      0.874670
      6.26418     14.20510     12.20555        -0.037208     -0.686798      0.565947
      5.84814     12.27480     15.87712         0.086021      0.534484     -0.474714
      9.28112      8.35099     16.07145         0.029455      0.168643      0.041319
      9.92644      3.47943     14.84050         0.245771     -0.888721     -0.387011
     12.64880      7.73078     15.36191        -0.209992     -0.447180     -0.676149
     14.35070      0.40889     13.97731         0.078762     -1.400532      0.365172
     14.31340      7.51619     11.97732        -0.160716      1.255242      0.814063
      7.95526     11.85530     15.05648        -0.161656     -0.224811      0.761703
      4.82663      1.06364     16.44109         0.308111     -0.093027     -0.349317
     12.55330     12.11600     10.12797         1.321743     -0.023754     -0.229303
      4.06673     10.34820     11.41294         0.124550     -0.077279      0.661609
      8.00022      4.99659     12.20710        -1.236965     -0.042622     -3.145027
      2.70616      5.99836     10.20687        -0.006661      0.431250     -0.545689
      9.93870      5.77110     11.04955        -0.039498     -0.158116      0.134782
      8.54750      1.12182     16.39801        -0.040542      0.146462     -1.167209
     11.27340      9.26692     16.46077         0.622838     -0.223156     -0.186524
      0.08232     10.95100     10.46483         0.112935      0.061229      0.166767
     12.05210      3.89967     15.47527         1.056141      0.734725     -0.137310
      5.63274      2.63665     14.81791        -0.431720     -0.311787      0.468785
     11.70900     11.23690     15.28836         0.227169     -0.076856      0.597926
      7.78717      9.99986     16.46394        -0.669329      0.292114     -0.596824
      6.39885     10.35640     11.75646         0.667574     -0.029311      0.908807
 -----------------------------------------------------------------------------------
    total drift:                               -0.003401      0.017167      0.004091


--------------------------------------------------------------------------------------------------------



  FREE ENERGIE OF THE ION-ELECTRON SYSTEM (eV)
  ---------------------------------------------------
  free  energy   TOTEN  =      -628.17839420 eV

  energy  without entropy=     -627.98890332  energy(sigma->0) =     -628.08364876



--------------------------------------------------------------------------------------------------------


    POTLOK:  cpu time      3.3741: real time      3.3782


--------------------------------------------------------------------------------------------------------


     LOOP+:  cpu time   8283.1063: real time   8289.2318
    4ORBIT:  cpu time      0.0000: real time      0.0000



 total charge

# of ion       s       p       d       tot
------------------------------------------
    1        0.578   0.019   0.000   0.597
    2        0.547   0.017   0.000   0.563
    3        0.556   0.016   0.000   0.572
    4        0.743   0.957   0.000   1.700
    5        0.793   0.871   0.000   1.664
    6        0.762   0.915   0.000   1.676
    7        0.774   0.921   0.000   1.695
    8        0.761   0.946   0.000   1.706
    9        0.755   0.905   0.000   1.660
   10        0.761   0.954   0.000   1.714
   11        0.804   0.802   0.000   1.606
   12        0.766   0.894   0.000   1.659
   13        0.766   0.963   0.000   1.729
   14        0.764   0.926   0.000   1.689
   15        0.784   0.892   0.000   1.675
   16        0.772   0.845   0.000   1.617
   17        0.794   0.846   0.000   1.640
   18        0.789   0.899   0.000   1.688
   19        0.770   0.858   0.000   1.628
   20        0.784   0.829   0.000   1.613
   21        0.768   0.897   0.000   1.665
   22        0.808   0.877   0.000   1.685
   23        0.854   0.764   0.000   1.617
   24        0.767   0.973   0.000   1.740
   25        0.770   0.919   0.000   1.689
   26        0.758   0.934   0.000   1.692
   27        0.879   0.688   0.000   1.567
   28        0.933   0.556   0.000   1.488
   29        0.770   0.864   0.000   1.634
   30        0.796   0.866   0.000   1.661
   31        0.763   0.869   0.000   1.632
   32        0.791   0.862   0.000   1.652
   33        0.777   0.871   0.000   1.648
   34        0.852   0.740   0.000   1.592
   35        0.759   0.938   0.000   1.696
   36        0.791   0.843   0.000   1.634
   37        0.797   0.799   0.000   1.595
   38        0.771   0.931   0.000   1.701
   39        0.788   0.845   0.000   1.633
   40        0.805   0.879   0.000   1.684
   41        0.758   0.905   0.000   1.663
   42        0.764   0.907   0.000   1.670
   43        0.863   0.695   0.000   1.558
   44        0.768   0.944   0.000   1.712
   45        0.762   0.927   0.000   1.689
   46        0.757   0.935   0.000   1.692
   47        0.759   0.886   0.000   1.645
   48        0.792   0.865   0.000   1.657
   49        0.810   0.786   0.000   1.596
   50        0.801   0.868   0.000   1.669
   51        0.798   0.856   0.000   1.654
   52        0.790   0.909   0.000   1.699
   53        0.769   0.897   0.000   1.666
   54        0.794   0.831   0.000   1.625
   55        0.761   0.896   0.000   1.657
   56        0.767   0.911   0.000   1.679
   57        0.768   0.929   0.000   1.697
   58        0.879   0.696   0.000   1.575
   59        0.795   0.892   0.000   1.687
   60        0.783   0.834   0.000   1.617
   61        0.769   0.967   0.000   1.737
   62        0.851   0.757   0.000   1.608
   63        0.788   0.879   0.000   1.667
   64        0.919   0.587   0.000   1.505
   65        0.788   0.891   0.000   1.679
   66        0.797   0.831   0.000   1.628
   67        0.832   0.746   0.000   1.578
   68        0.761   0.894   0.000   1.655
   69        0.787   0.885   0.000   1.672
   70        0.797   0.869   0.000   1.666
   71        0.786   0.817   0.000   1.602
--------------------------------------------------
tot         55.427  58.679   0.000 114.106


 total amount of memory used by VASP MPI-rank0   375118. kBytes
=======================================================================

   base                                    :      30000. kBytes
   nonl-proj                               :      71262. kBytes
   fftplans                                :     102073. kBytes
   grid                                    :      78750. kBytes
   one-center                              :         15. kBytes
   wavefun                                 :      93018. kBytes

  
  
 General timing and accounting informations for this job:
 ========================================================
  
                  Total CPU time used (sec):     8431.777
                            User time (sec):     7422.543
                          System time (sec):     1009.234
                         Elapsed time (sec):     8438.046
  
                   Maximum memory used (kb):      641556.
                   Average memory used (kb):          N/A
  
                          Minor page faults:     16886868
                          Major page faults:         1187
                 Voluntary context switches:         3670
