 vasp.6.5.0 16Dec24 (build Jan 20 2025 08:32:48) complex                         
 executed on        HPECrayEX_GCC date 2025.07.21  22:47:42
 running  128 mpi-ranks, with    1 threads/rank, on    1 nodes
 distrk:  each k-point on  128 cores,    1 groups
 distr:  one band on NCORE=  16 cores,    8 groups


--------------------------------------------------------------------------------------------------------


 INCAR:
   SYSTEM = a-Si SPC
   NCORE = 16
   ISTART = 1
   ICHARG = 1
   ISPIN = 1
   ISYM = 1
   EDIFF = 1E-6
   NELM = 150
   EDIFFG = -0.01
   NSW = 0
   ISIF = 2
   IBRION = -1
   PREC = Accurate
   ENCUT = 1200
   KSPACING = 0.23
   KGAMMA = .TRUE.
   METAGGA = SCAN
   LASPH = .TRUE.
   LDIAG = .FALSE.
   LMIXTAU = .TRUE.
   ADDGRID = .TRUE.
   ALGO = Normal
   ISMEAR = 0
   SIGMA = 0.1
   LORBIT = 11
   NEDOS = 2000
   LWAVE = .FALSE.
   LCHARG = .FALSE.

 POTCAR:    PAW_PBE H 15Jun2001                   
 POTCAR:    PAW_PBE Si 05Jan2001                  
 POTCAR:    PAW_PBE H 15Jun2001                   
   SHA256 =  030f79b5d3ab3cf0e668861823c8fb652ff669f3e15e46930bd03bfd63a607b6 H/POTCAR              
   COPYR  = (c) Copyright 15Jun2001 Georg Kresse                                                    
   COPYR  = This file is part of the software VASP. Any use, copying, and all other rights are regul
   COPYR  = If you do not have a valid VASP license, you may not use, copy or distribute this file. 
   VRHFIN =H: ultrasoft test                                                                        
   LEXCH  = PE                                                                                      
   EATOM  =    12.4884 eV,    0.9179 Ry                                                             
                                                                                                    
   TITEL  = PAW_PBE H 15Jun2001                                                                     
   LULTRA =        F    use ultrasoft PP ?                                                          
   IUNSCR =        0    unscreen: 0-lin 1-nonlin 2-no                                               
   RPACOR =    0.000    partial core radius                                                         
   POMASS =    1.000; ZVAL   =    1.000    mass and valenz                                          
   RCORE  =    1.100    outmost cutoff radius                                                       
   RWIGS  =    0.700; RWIGS  =    0.370    wigner-seitz radius (au A)                               
   ENMAX  =  250.000; ENMIN  =  200.000 eV                                                          
   RCLOC  =    0.701    cutoff for local pot                                                        
   LCOR   =        T    correct aug charges                                                         
   LPAW   =        T    paw PP                                                                      
   EAUG   =  400.000                                                                                
   RMAX   =    1.123    core radius for proj-oper                                                   
   RAUG   =    1.200    factor for augmentation sphere                                              
   RDEP   =    1.112    radius for radial grids                                                     
   RDEPT  =    0.926    core radius for aug-charge                                                  
                                                                                                    
   Atomic configuration                                                                             
    2 entries                                                                                       
     n  l   j            E        occ.                                                              
     1  0  0.50        -6.4927   1.0000                                                             
     2  1  0.50        -3.4015   0.0000                                                             
   Description                                                                                      
     l       E           TYP  RCUT    TYP  RCUT                                                     
     0     -6.4927494     23  1.100                                                                 
     0      6.8029130     23  1.100                                                                 
     1     -4.0817478     23  1.100                                                                 
  local pseudopotential read in
  atomic valenz-charges read in
  non local Contribution for L=           0  read in
    real space projection operators read in
  non local Contribution for L=           0  read in
    real space projection operators read in
  non local Contribution for L=           1  read in
    real space projection operators read in
    PAW grid and wavefunctions read in

   number of l-projection  operators is LMAX  =           3
   number of lm-projection operators is LMMAX =           5

 POTCAR:    PAW_PBE Si 05Jan2001                  
   SHA256 =  79d9987ad8750f624c4d6acb2a16d13abf6a777132adc04dc6c8399be72b42bb Si/POTCAR             
   COPYR  = (c) Copyright 05Jan2001 Georg Kresse                                                    
   COPYR  = This file is part of the software VASP. Any use, copying, and all other rights are regul
   COPYR  = If you do not have a valid VASP license, you may not use, copy or distribute this file. 
   VRHFIN =Si: s2p2                                                                                 
   LEXCH  = PE                                                                                      
   EATOM  =   103.0669 eV,    7.5752 Ry                                                             
                                                                                                    
   TITEL  = PAW_PBE Si 05Jan2001                                                                    
   LULTRA =        F    use ultrasoft PP ?                                                          
   IUNSCR =        1    unscreen: 0-lin 1-nonlin 2-no                                               
   RPACOR =    1.500    partial core radius                                                         
   POMASS =   28.085; ZVAL   =    4.000    mass and valenz                                          
   RCORE  =    1.900    outmost cutoff radius                                                       
   RWIGS  =    2.480; RWIGS  =    1.312    wigner-seitz radius (au A)                               
   ENMAX  =  245.345; ENMIN  =  184.009 eV                                                          
   ICORE  =        2    local potential                                                             
   LCOR   =        T    correct aug charges                                                         
   LPAW   =        T    paw PP                                                                      
   EAUG   =  322.069                                                                                
   DEXC   =    0.000                                                                                
   RMAX   =    1.950    core radius for proj-oper                                                   
   RAUG   =    1.300    factor for augmentation sphere                                              
   RDEP   =    1.993    radius for radial grids                                                     
   RDEPT  =    1.837    core radius for aug-charge                                                  
                                                                                                    
   Atomic configuration                                                                             
    6 entries                                                                                       
     n  l   j            E        occ.                                                              
     1  0  0.50     -1785.8828   2.0000                                                             
     2  0  0.50      -139.4969   2.0000                                                             
     2  1  1.50       -95.5546   6.0000                                                             
     3  0  0.50       -10.8127   2.0000                                                             
     3  1  0.50        -4.0811   2.0000                                                             
     3  2  1.50        -4.0817   0.0000                                                             
   Description                                                                                      
     l       E           TYP  RCUT    TYP  RCUT                                                     
     0    -10.8127223     23  1.900                                                                 
     0     -7.6451159     23  1.900                                                                 
     1     -4.0811372     23  1.900                                                                 
     1      2.4879257     23  1.900                                                                 
     2     -4.0817478      7  1.900                                                                 
  local pseudopotential read in
  partial core-charges read in
  partial kinetic energy density read in
  atomic valenz-charges read in
  non local Contribution for L=           0  read in
    real space projection operators read in
  non local Contribution for L=           0  read in
    real space projection operators read in
  non local Contribution for L=           1  read in
    real space projection operators read in
  non local Contribution for L=           1  read in
    real space projection operators read in
    PAW grid and wavefunctions read in

   number of l-projection  operators is LMAX  =           4
   number of lm-projection operators is LMMAX =           8

 -----------------------------------------------------------------------------
|                                                                             |
|               ----> ADVICE to this user running VASP <----                  |
|                                                                             |
|     You have a (more or less) 'large supercell' and for larger cells it     |
|     might be more efficient to use real-space projection operators.         |
|     Therefore, try LREAL= Auto in the INCAR file.                           |
|     Mind: For very accurate calculation, you might also keep the            |
|     reciprocal projection scheme (i.e. LREAL=.FALSE.).                      |
|                                                                             |
 -----------------------------------------------------------------------------

 -----------------------------------------------------------------------------
|                                                                             |
|               ----> ADVICE to this user running VASP <----                  |
|                                                                             |
|     You enforced a specific xc type in the INCAR file but a different       |
|     type was found in the POTCAR file.                                      |
|     I HOPE YOU KNOW WHAT YOU ARE DOING!                                     |
|                                                                             |
 -----------------------------------------------------------------------------

  PAW_PBE H 15Jun2001                   :
 energy of atom  1       EATOM=  -12.4884
 kinetic energy error for atom=    0.0000 (will be added to EATOM!!)
  PAW_PBE Si 05Jan2001                  :
 energy of atom  2       EATOM= -103.0669
 kinetic energy error for atom=    0.0001 (will be added to EATOM!!)


 POSCAR:  H Si
  positions in cartesian coordinates
  No initial velocities read in


 exchange-correlation table for SCAN
   RHO(1)=    0.500       N(1)  =     2000
   RHO(2)=  100.500       N(2)  =     4000



--------------------------------------------------------------------------------------------------------


 ion  position               nearest neighbor table
   1  0.735  0.111  0.226-  75 1.53
   2  0.750  0.321  0.109-   9 1.48
   3  0.918  0.150  0.827-  90 1.61
   4  0.763  0.332  0.573-  57 1.51
   5  0.751  0.425  0.339-  37 1.49
   6  0.886  0.523  0.507-  84 1.45
   7  0.936  0.129  0.234-  70 1.42
   8  0.045  0.249  0.006-  65 1.51
   9  0.651  0.299  0.125-   2 1.48  35 2.26  75 2.29  37 2.44
  10  0.361  0.907  0.931-  88 2.31  58 2.42  55 2.44  31 2.52
  11  0.326  0.424  0.131-  19 2.19  40 2.25  26 2.32  38 2.38
  12  0.601  0.185  0.748-  30 2.30  74 2.33  45 2.39  54 2.56  57 2.96
  13  0.472  0.027  0.583-  18 2.26  45 2.32  52 2.35  79 2.43
  14  0.452  0.721  0.622-  43 2.28  24 2.34  41 2.37  55 2.58
  15  0.804  0.703  0.150-  86 2.23  42 2.34  87 2.41  33 2.45
  16  0.537  0.728  0.066-  85 2.28  91 2.36  88 2.54  87 2.55  62 3.05
  17  0.019  0.644  0.875-  71 2.40  33 2.45  21 2.67  68 2.74
  18  0.514  0.135  0.433-  13 2.26  30 2.28  66 2.31  44 2.34
  19  0.395  0.485  0.305-  11 2.19  64 2.27  67 2.35  92 2.40
  20  0.521  0.933  0.214-  25 2.28  44 2.36  80 2.37  88 2.37
  21  0.875  0.692  0.724-  84 2.25  34 2.30  56 2.47  17 2.67
  22  0.231  0.044  0.405-  69 2.36  52 2.38  51 2.50  59 2.82
  23  0.334  0.206  0.673-  66 2.24  81 2.33  45 2.34  59 2.34
  24  0.415  0.716  0.395-  85 2.31  14 2.34  25 2.36  92 2.42
  25  0.396  0.865  0.308-  20 2.28  52 2.34  24 2.36  31 2.37
  26  0.291  0.565  0.035-  11 2.32  72 2.35  91 2.38  68 2.50
  27  0.244  0.609  0.688-  28 2.36  68 2.40  63 2.40  43 2.47
  28  0.202  0.766  0.683-  71 2.29  27 2.36  47 2.39  55 2.39
  29  0.840  0.872  0.440-  34 2.41  36 2.42  42 2.48  53 2.54  80 2.91
  30  0.653  0.151  0.538-  18 2.28  12 2.30  57 2.33  53 2.64
  31  0.285  0.843  0.138-  25 2.37  51 2.39  10 2.52  72 2.59
  32  0.043  0.639  0.458-  84 2.31  63 2.35  47 2.42  89 2.44
  33  0.960  0.731  0.067-  89 2.29  17 2.45  15 2.45  60 2.49  71 3.09
  34  0.921  0.833  0.641-  21 2.30  49 2.37  29 2.41  47 2.46
  35  0.567  0.367  0.963-   9 2.26  74 2.31  62 2.39  40 2.47
  36  0.910  0.920  0.231-  70 2.32  29 2.42  86 2.55  73 2.57  60 3.15
  37  0.653  0.398  0.321-   5 1.49  67 2.33   9 2.44  57 2.51
  38  0.217  0.320  0.221-  11 2.38  69 2.48  83 2.60  65 2.64
  39  0.387  0.167  0.116-  69 2.25  58 2.35  40 2.42  44 2.43
  40  0.410  0.318  0.021-  11 2.25  39 2.42  35 2.47  81 2.47
  41  0.610  0.758  0.630-  61 2.25  14 2.37  56 2.51  79 2.51
  42  0.809  0.709  0.382-  84 2.28  61 2.33  15 2.34  29 2.48
  43  0.410  0.590  0.730-  14 2.28  91 2.41  46 2.44  27 2.47
  44  0.524  0.095  0.208-  75 2.29  18 2.34  20 2.36  39 2.43
  45  0.452  0.118  0.770-  13 2.32  23 2.34  12 2.39  58 2.57
  46  0.450  0.430  0.682-  74 2.31  81 2.38  64 2.38  43 2.44
  47  0.071  0.792  0.545-  28 2.39  73 2.41  32 2.42  34 2.46
  48  0.753  0.856  0.896-  82 2.28  49 2.36  56 2.37  86 2.42
  49  0.895  0.923  0.834-  60 2.32  48 2.36  34 2.37  90 2.38
  50  0.183  0.367  0.830-  65 2.32  81 2.33  68 2.40  78 2.52
  51  0.170  0.946  0.221-  73 2.38  31 2.39  76 2.44  22 2.50
  52  0.345  0.946  0.497-  25 2.34  13 2.35  22 2.38  55 2.50
  53  0.708  0.983  0.479-  80 2.22  79 2.34  29 2.54  30 2.64
  54  0.698  0.094  0.914-  75 2.29  82 2.32  90 2.40  12 2.56
  55  0.343  0.850  0.704-  28 2.39  10 2.44  52 2.50  14 2.58
  56  0.717  0.708  0.813-  87 2.31  48 2.37  21 2.47  41 2.51
  57  0.665  0.311  0.536-   4 1.51  30 2.33  74 2.42  37 2.51  12 2.96
  58  0.333  0.070  0.946-  77 2.27  39 2.35  10 2.42  45 2.57
  59  0.186  0.147  0.634-  23 2.34  78 2.35  77 2.58  22 2.82
  60  0.017  0.877  0.967-  49 2.32  71 2.41  76 2.47  33 2.49  36 3.15
  61  0.653  0.734  0.417-  85 2.17  41 2.25  42 2.33  80 2.43
  62  0.571  0.522  0.044-  67 2.33  87 2.38  35 2.39  91 2.61  16 3.05
  63  0.173  0.547  0.491-  83 2.32  32 2.35  92 2.36  27 2.40
  64  0.379  0.386  0.479-  19 2.27  66 2.30  46 2.38  83 2.48
  65  0.148  0.261  0.994-   8 1.51  50 2.32  77 2.47  38 2.64
  66  0.387  0.228  0.466-  23 2.24  64 2.30  18 2.31  69 2.39
  67  0.551  0.518  0.275-  37 2.33  62 2.33  19 2.35  85 2.38
  68  0.168  0.530  0.867-  27 2.40  50 2.40  26 2.50  17 2.74
  69  0.290  0.173  0.291-  39 2.25  22 2.36  66 2.39  38 2.48
  70  0.932  0.062  0.131-   7 1.42  36 2.32  76 2.43  90 2.45
  71  0.128  0.767  0.885-  28 2.29  17 2.40  60 2.41  33 3.09
  72  0.217  0.679  0.161-  89 2.34  26 2.35  92 2.45  31 2.59
  73  0.058  0.847  0.320-  51 2.38  47 2.41  89 2.44  36 2.57
  74  0.578  0.343  0.736-  35 2.31  46 2.31  12 2.33  57 2.42
  75  0.663  0.142  0.125-   1 1.53  54 2.29  44 2.29   9 2.29
  76  0.084  0.024  0.046-  70 2.43  51 2.44  60 2.47  77 2.57
  77  0.189  0.114  0.887-  58 2.27  65 2.47  76 2.57  59 2.58
  78  0.129  0.297  0.614-  59 2.35  83 2.40  50 2.52
  79  0.603  0.930  0.639-  82 2.23  53 2.34  13 2.43  41 2.51
  80  0.658  0.887  0.322-  53 2.22  20 2.37  61 2.43  86 2.47  29 2.91
  81  0.340  0.341  0.799-  50 2.33  23 2.33  46 2.38  40 2.47
  82  0.634  0.954  0.854-  79 2.23  48 2.28  54 2.32  88 2.35
  83  0.209  0.393  0.457-  63 2.32  78 2.40  64 2.48  38 2.60
  84  0.893  0.621  0.527-   6 1.45  21 2.25  42 2.28  32 2.31
  85  0.549  0.682  0.282-  61 2.17  16 2.28  24 2.31  67 2.38
  86  0.763  0.850  0.136-  15 2.23  48 2.42  80 2.47  36 2.55
  87  0.683  0.638  0.013-  56 2.31  62 2.38  15 2.41  16 2.55
  88  0.515  0.893  0.985-  10 2.31  82 2.35  20 2.37  16 2.54
  89  0.064  0.692  0.229-  33 2.29  72 2.34  73 2.44  32 2.44
  90  0.862  0.074  0.911-   3 1.61  49 2.38  54 2.40  70 2.45
  91  0.434  0.625  0.962-  16 2.36  26 2.38  43 2.41  62 2.61
  92  0.291  0.609  0.355-  63 2.36  19 2.40  24 2.42  72 2.45

  LATTYP: Found a simple tetragonal cell.
 ALAT       =    14.5411363218
 C/A-ratio  =     0.6904372595
  
  Lattice vectors:
  
 A1 = (  14.5411363218,   0.0000000000,   0.0000000000)
 A2 = (   0.0000000000,  14.5411363218,   0.0000000000)
 A3 = (   0.0000000000,   0.0000000000,  10.0397423115)


Analysis of symmetry for initial positions (statically):
=====================================================================
 Subroutine PRICEL returns:
 Original cell was already a primitive cell.
 

 Routine SETGRP: Setting up the symmetry group for a 
 simple tetragonal supercell.


 Subroutine GETGRP returns: Found  1 space group operations
 (whereof  1 operations were pure point group operations)
 out of a pool of 16 trial point group operations.


The static configuration has the point symmetry C_1 .


Analysis of symmetry for dynamics (positions and initial velocities):
=====================================================================
 Subroutine PRICEL returns:
 Original cell was already a primitive cell.
 

 Routine SETGRP: Setting up the symmetry group for a 
 simple tetragonal supercell.


 Subroutine GETGRP returns: Found  1 space group operations
 (whereof  1 operations were pure point group operations)
 out of a pool of 16 trial point group operations.


The dynamic configuration has the point symmetry C_1 .


 Subroutine INISYM returns: Found  1 space group operations
 (whereof  1 operations are pure point group operations),
 and found     1 'primitive' translations


----------------------------------------------------------------------------------------

                                     Primitive cell                                     

  volume of cell :    2122.8498

  direct lattice vectors                    reciprocal lattice vectors
    14.541136322  0.000000000  0.000000000     0.068770416  0.000000000  0.000000000
     0.000000000 14.541136322  0.000000000     0.000000000  0.068770416  0.000000000
     0.000000000  0.000000000 10.039742312     0.000000000  0.000000000  0.099604150

  length of vectors
    14.541136322 14.541136322 10.039742312     0.068770416  0.068770416  0.099604150

  position of ions in fractional coordinates (direct lattice)
     0.735100735  0.110667417  0.226436091
     0.749542523  0.321032683  0.108556571
     0.918112567  0.150105876  0.827458489
     0.763461655  0.331958239  0.572921079
     0.750773513  0.424926901  0.339176036
     0.886251233  0.522507996  0.506971179
     0.936226695  0.128709336  0.233969153
     0.044948138  0.249499071  0.005730735
     0.650888609  0.298964256  0.124667542
     0.361380286  0.906717309  0.931068718
     0.326385772  0.424473704  0.130891806
     0.600535598  0.185271628  0.748025175
     0.472363359  0.026770948  0.582886474
     0.451770058  0.720968415  0.622078715
     0.804173741  0.702558574  0.149607426
     0.537029557  0.728134292  0.066044026
     0.018631075  0.643974432  0.875223659
     0.514423346  0.134909677  0.432985217
     0.394631470  0.484510966  0.305325566
     0.520743347  0.933255813  0.214020433
     0.875227336  0.692277397  0.723912006
     0.231010144  0.044029915  0.404813179
     0.334216659  0.205724638  0.672983408
     0.414866477  0.715893158  0.395386642
     0.395691910  0.865193732  0.308346559
     0.290567388  0.564789423  0.034510348
     0.243665964  0.609006050  0.687770640
     0.202135510  0.766157455  0.682946812
     0.840003128  0.872201437  0.439688576
     0.652924214  0.150783264  0.537505828
     0.285278943  0.843331616  0.137606121
     0.042737100  0.639051845  0.457897211
     0.960378865  0.730898863  0.066724123
     0.920526409  0.832596554  0.641021433
     0.567162003  0.367386694  0.962815548
     0.909550650  0.919611762  0.231398369
     0.652502651  0.398114004  0.320931544
     0.217280818  0.320024508  0.221208865
     0.387273035  0.166827402  0.116163340
     0.409715573  0.318099624  0.020690172
     0.610444040  0.757526768  0.630364785
     0.809248998  0.709366845  0.382470972
     0.409571155  0.589563278  0.730320537
     0.524278147  0.095399697  0.207696566
     0.451706789  0.117893125  0.769588477
     0.450172521  0.430392774  0.682268507
     0.070718682  0.791554370  0.545232122
     0.753476190  0.856239824  0.896013037
     0.895163879  0.922603276  0.834351096
     0.183280724  0.367460278  0.829738428
     0.169919320  0.945655119  0.221172011
     0.345327895  0.945744521  0.496981879
     0.707977683  0.982928685  0.478995362
     0.697675875  0.093919758  0.913757516
     0.343264783  0.849589724  0.703586783
     0.717282320  0.707895158  0.812754924
     0.664830436  0.310722622  0.536002801
     0.333124585  0.070227662  0.946245402
     0.186472360  0.146857849  0.634356919
     0.017389906  0.876877826  0.966667241
     0.652545976  0.733938515  0.417472866
     0.570535192  0.521574094  0.043748732
     0.173122646  0.546723435  0.490830327
     0.378534378  0.386022789  0.479215487
     0.147822010  0.261434177  0.994114161
     0.387447712  0.228044076  0.465710160
     0.551454152  0.518156204  0.274593701
     0.168463451  0.530061051  0.867044166
     0.290322565  0.173280131  0.290929778
     0.932396183  0.061803973  0.131211535
     0.127939795  0.767085856  0.884553580
     0.217388788  0.679468219  0.161170471
     0.058290699  0.846935186  0.319712389
     0.578240917  0.343401636  0.735868489
     0.663357374  0.141639550  0.124948426
     0.083994811  0.023511092  0.045568998
     0.188943281  0.114268236  0.887405246
     0.128946594  0.297174850  0.614225924
     0.603311860  0.930195529  0.638622965
     0.658098500  0.887138372  0.322008265
     0.339708664  0.340564168  0.798824288
     0.634054299  0.953625610  0.853565732
     0.208619872  0.393012614  0.456834434
     0.892543726  0.621042936  0.526796389
     0.548818182  0.681629673  0.281922575
     0.762918369  0.850298060  0.136041340
     0.683373691  0.638219723  0.013410802
     0.515384069  0.892502464  0.985099985
     0.063637117  0.691610324  0.229399314
     0.861507638  0.073809225  0.910664808
     0.434261110  0.624519969  0.962226888
     0.290757882  0.608502651  0.355029033

  ion indices of the primitive-cell ions
   primitive index   ion index
                 1           1
                 2           2
                 3           3
                 4           4
                 5           5
                 6           6
                 7           7
                 8           8
                 9           9
                10          10
                11          11
                12          12
                13          13
                14          14
                15          15
                16          16
                17          17
                18          18
                19          19
                20          20
                21          21
                22          22
                23          23
                24          24
                25          25
                26          26
                27          27
                28          28
                29          29
                30          30
                31          31
                32          32
                33          33
                34          34
                35          35
                36          36
                37          37
                38          38
                39          39
                40          40
                41          41
                42          42
                43          43
                44          44
                45          45
                46          46
                47          47
                48          48
                49          49
                50          50
                51          51
                52          52
                53          53
                54          54
                55          55
                56          56
                57          57
                58          58
                59          59
                60          60
                61          61
                62          62
                63          63
                64          64
                65          65
                66          66
                67          67
                68          68
                69          69
                70          70
                71          71
                72          72
                73          73
                74          74
                75          75
                76          76
                77          77
                78          78
                79          79
                80          80
                81          81
                82          82
                83          83
                84          84
                85          85
                86          86
                87          87
                88          88
                89          89
                90          90
                91          91
                92          92

----------------------------------------------------------------------------------------


 -----------------------------------------------------------------------------
|                                                                             |
|           W    W    AA    RRRRR   N    N  II  N    N   GGGG   !!!           |
|           W    W   A  A   R    R  NN   N  II  NN   N  G    G  !!!           |
|           W    W  A    A  R    R  N N  N  II  N N  N  G       !!!           |
|           W WW W  AAAAAA  RRRRR   N  N N  II  N  N N  G  GGG   !            |
|           WW  WW  A    A  R   R   N   NN  II  N   NN  G    G                |
|           W    W  A    A  R    R  N    N  II  N    N   GGGG   !!!           |
|                                                                             |
|     The requested file  could not be found or opened for reading            |
|     k-point information. Automatic k-point generation is used as a          |
|     fallback, which may lead to unwanted results.                           |
|                                                                             |
 -----------------------------------------------------------------------------



Automatic generation of k-mesh.
 Grid dimensions derived from KSPACING:
 generate k-points for:    2    2    3

 Generating k-lattice:

  Cartesian coordinates                     Fractional coordinates (reciprocal lattice)
     0.034385208  0.000000000  0.000000000     0.500000000  0.000000000  0.000000000
     0.000000000  0.034385208  0.000000000     0.000000000  0.500000000  0.000000000
     0.000000000  0.000000000  0.033201383     0.000000000  0.000000000  0.333333333

  Length of vectors
     0.034385208  0.034385208  0.033201383

  Shift w.r.t. Gamma in fractional coordinates (k-lattice)
     0.000000000  0.000000000  0.000000000

 
 Subroutine IBZKPT returns following result:
 ===========================================
 
 Found      8 irreducible k-points:
 
 Following reciprocal coordinates:
            Coordinates               Weight
  0.000000  0.000000  0.000000      1.000000
  0.500000  0.000000  0.000000      1.000000
  0.000000  0.500000  0.000000      1.000000
  0.500000  0.500000  0.000000      1.000000
  0.000000  0.000000  0.333333      2.000000
  0.500000  0.000000  0.333333      2.000000
  0.000000  0.500000  0.333333      2.000000
  0.500000  0.500000  0.333333      2.000000
 
 Following cartesian coordinates:
            Coordinates               Weight
  0.000000  0.000000  0.000000      1.000000
  0.034385  0.000000  0.000000      1.000000
  0.000000  0.034385  0.000000      1.000000
  0.034385  0.034385  0.000000      1.000000
  0.000000  0.000000  0.033201      2.000000
  0.034385  0.000000  0.033201      2.000000
  0.000000  0.034385  0.033201      2.000000
  0.034385  0.034385  0.033201      2.000000
 


--------------------------------------------------------------------------------------------------------




 Dimension of arrays:
   k-points           NKPTS =      8   k-points in BZ     NKDIM =      8   number of bands    NBANDS=    224
   number of dos      NEDOS =   2000   number of ions     NIONS =     92
   non local maximal  LDIM  =      4   non local SUM 2l+1 LMDIM =      8
   total plane-waves  NPLWV = ******
   max r-space proj   IRMAX =      1   max aug-charges    IRDMAX= 426897
   dimension x,y,z NGX =   168 NGY =  168 NGZ =  120
   dimension x,y,z NGXF=   336 NGYF=  336 NGZF=  240
   support grid    NGXF=   672 NGYF=  672 NGZF=  480
   ions per type =               8  84
   NGX,Y,Z   is equivalent  to a cutoff of  19.21, 19.21, 19.87 a.u.
   NGXF,Y,Z  is equivalent  to a cutoff of  38.41, 38.41, 39.74 a.u.

 SYSTEM =  a-Si SPC                                
 POSCAR =   H Si                                   

 Startparameter for this run:
   NWRITE =      2    write-flag & timer
   PREC   = accura    normal or accurate (medium, high low for compatibility)
   ISTART =      1    job   : 0-new  1-cont  2-samecut
   ICHARG =      1    charge: 1-file 2-atom 10-const
   ISPIN  =      1    spin polarized calculation?
   LNONCOLLINEAR =      F non collinear calculations
   LSORBIT =      F    spin-orbit coupling
   INIWAV =      1    electr: 0-lowe 1-rand  2-diag
   LASPH  =      T    aspherical Exc in radial PAW
 Electronic Relaxation 1
   ENCUT  = 1200.0 eV  88.20 Ry    9.39 a.u.  41.07 41.07 28.36*2*pi/ulx,y,z
   ENINI  = 1200.0     initial cutoff
   ENAUG  =  400.0 eV  augmentation charge cutoff
   NELM   =    150;   NELMIN=  2; NELMDL=  0     # of ELM steps 
   EDIFF  = 0.1E-05   stopping-criterion for ELM
   LREAL  =      F    real-space projection
   NLSPLINE    = F    spline interpolate recip. space projectors
   LCOMPAT=      F    compatible to vasp.4.4
   GGA_COMPAT  = T    GGA compatible to vasp.4.4-vasp.4.6
   LMAXPAW     = -100 max onsite density
   LMAXMIX     =    2 max onsite mixed and CHGCAR
   VOSKOWN=      0    Vosko Wilk Nusair interpolation
   ROPT   =    0.00000   0.00000
 Ionic relaxation
   EDIFFG = -.1E-01   stopping-criterion for IOM
   NSW    =      0    number of steps for IOM
   NBLOCK =      1;   KBLOCK =      1    inner block; outer block 
   IBRION =     -1    ionic relax: 0-MD 1-quasi-New 2-CG
   NFREE  =      0    steps in history (QN), initial steepest desc. (CG)
   ISIF   =      2    stress and relaxation
   IWAVPR =     10    prediction:  0-non 1-charg 2-wave 3-comb
   ISYM   =      1    0-nonsym 1-usesym 2-fastsym
   LCORR  =      T    Harris-Foulkes like correction to forces

   POTIM  = 0.5000    time-step for ionic-motion
   TEIN   =    0.0    initial temperature
   TEBEG  =    0.0;   TEEND  =   0.0 temperature during run
   SMASS  =  -3.00    Nose mass-parameter (am)
   estimated Nose-frequenzy (Omega)   =  0.10E-29 period in steps = 0.13E+47 mass=  -0.483E-26a.u.
   SCALEE = 1.0000    scale energy and forces
   NPACO  =    256;   APACO  = 10.0  distance and # of slots for P.C.
   PSTRESS=    0.0 pullay stress

  Mass of Ions in am
   POMASS =   1.00 28.09
  Ionic Valenz
   ZVAL   =   1.00  4.00
  Atomic Wigner-Seitz radii
   RWIGS  =  -1.00 -1.00
  virtual crystal weights 
   VCA    =   1.00  1.00
   NELECT =     344.0000    total number of electrons
   NUPDOWN=      -1.0000    fix difference up-down

 DOS related values:
   EMIN   =  10.00;   EMAX   =-10.00  energy-range for DOS
   EFERMI =   0.00;   METHOD = LEGACY      
   ISMEAR =     0;   SIGMA  =   0.10  broadening in eV -4-tet -1-fermi 0-gaus
   EFERMI_NEDOS =   21; number of points for ismear=-14 and -15

 Electronic relaxation 2 (details)
   IALGO  =     38    algorithm
   LDIAG  =      F    sub-space diagonalisation (order eigenvalues)
   LSUBROT=      F    optimize rotation matrix (better conditioning)
   TURBO    =      0    0=normal 1=particle mesh
   IRESTART =      0    0=no restart 2=restart with 2 vectors
   NREBOOT  =      0    no. of reboots
   NMIN     =      0    reboot dimension
   EREF     =   0.00    reference energy to select bands
   IMIX   =      4    mixing-type and parameters
     AMIX     =   0.40;   BMIX     =  1.00
     AMIX_MAG =   1.60;   BMIX_MAG =  1.00
     AMIN     =   0.10
     WC   =   100.;   INIMIX=   1;  MIXPRE=   1;  MAXMIX= -45

 Intra band minimization:
   WEIMIN = 0.0000     energy-eigenvalue tresh-hold
   EBREAK =  0.11E-08  absolut break condition
   DEPER  =   0.30     relativ break condition  

   TIME   =   0.40     timestep for ELM

  volume/ion in A,a.u.               =      23.07       155.71
  Fermi-wavevector in a.u.,A,eV,Ry     =   0.892527  1.686631 10.838455  0.796604
  Thomas-Fermi vector in A             =   2.014487

 Write flags
   LWAVE        =      F    write WAVECAR
   LDOWNSAMPLE  =      F    k-point downsampling of WAVECAR
   LCHARG       =      F    write CHGCAR
   LVTOT        =      F    write LOCPOT, total local potential
   LVHAR        =      F    write LOCPOT, Hartree potential only
   WRT_POTENTIAL= false  ! write potential to hdf5 file
   LELF         =      F    write electronic localiz. function (ELF)
   LORBIT       =     11    0 simple, 1 ext, 2 COOP (PROOUT), +10 PAW based schemes


 Python interface
   PLUGINS active      =      F    recompile with -DPLUGINS to activate

 Dipole corrections
   LMONO      =      F    monopole corrections only (constant potential shift)
   LDIPOL     =      F    correct potential (dipole corrections)
   IDIPOL     =      0    1-x, 2-y, 3-z, 4-all directions 
   EPSILON    =  1.0000000 bulk dielectric constant
   LVACPOTAV  =      F  vacuum potentials using an averaging scheme for the charge density
   VACPOTFLAT =  0.1000000 required flatness to determine vacuum potential

Coulomb truncation method
  LTRUNCATE          =      F  Coulomb kernel truncation to be used
  IDIMENSIONALITY    =      3  Dimensionality of cutoff (0 molecules / 2 surfaces)
  ISURFACE           =     -1  Direction of surface normal
  LCOARSEN           =      F  Coarsen the charge grid before padding, preferred


 Exchange correlation treatment:
   METAGGA = SCAN    functional components
   XC_C    = 1    coefficients multiplying the functional components
   LIBXC   =     F    Libxc                    
   VOSKOWN =     0    Vosko Wilk Nusair interpolation
   LHFCALC =     F    Hartree Fock is set to
   LHFONE  =     F    Hartree Fock one center treatment
   AEXX    =    0.0000 exact exchange contribution

 Parameters of functionals:
   SCAN:
     P1 =  0.000000E+00
     P2 =  0.000000E+00
     P3 =  0.000000E+00

 Accuracy and mixing parameters for tau-dependent meta-GGA functionals:
   LMAXTAU = 6
   LMIXTAU = T

 Van der Waals corrections
   IVDW    =     0    specifies the selected vdW correction

 Linear response parameters
   LEPSILON=     F    determine dielectric tensor
   LRPA    =     F    only Hartree local field effects (RPA)
   LNABLA  =     F    use nabla operator in PAW spheres
   LVEL    =     F    velocity operator in full k-point grid
   CSHIFT  =0.1000    complex shift for real part using Kramers Kronig
   OMEGAMAX=  -1.0    maximum frequency
   DEG_THRESHOLD= 0.2000000E-02 threshold for treating states as degnerate
   RTIME   =   -0.100 relaxation time in fs
  (WPLASMAI=    0.000 imaginary part of plasma frequency in eV, 0.658/RTIME)
   DFIELD  = 0.0000000 0.0000000 0.0000000 field for delta impulse in time

  Optional k-point grid parameters
   LKPOINTS_OPT  =     F    use optional k-point grid
   KPOINTS_OPT_MODE=     1    mode for optional k-point grid

 Orbital magnetization related:
   ORBITALMAG=     F  switch on orbital magnetization
   LCHIMAG   =     F  perturbation theory with respect to B field
   DQ        =  0.001000  dq finite difference perturbation B field
   LLRAUG    =     F  two centre corrections for induced B field
   LBONE     =     F  B-component reconstruction in AE one-centre
   LVGVCALC  =     T  calculate vGv susceptibility
   LVGVAPPL  =     F  apply vGv susceptibility instead of pGv for G=0

 Random number generation:
   RANDOM_GENERATOR = DEFAULT
   PCG_SEED         = not used


--------------------------------------------------------------------------------------------------------


 Static calculation
 charge density and potential will be updated during run
 non-spin polarized calculation
 Variant of blocked Davidson
 perform Loewdin sub-space diagonalisation
    ordering is kept fixed
    before iterative eigenvector-optimisation
 modified Broyden-mixing scheme, WC =      100.0
 initial mixing is a Kerker type mixing with AMIX =  0.4000 and BMIX =      1.0000
 Hartree-type preconditioning will be used
 using additional bands           52
 reciprocal scheme for non local part
 use partial core corrections
 calculate Harris-corrections to forces   (improved forces if not selfconsistent)
 use gradient corrections 
 use of overlap-Matrix (Vanderbilt PP)
 Gauss-broadening in eV      SIGMA  =   0.10


--------------------------------------------------------------------------------------------------------


  energy-cutoff  :     1200.00
  volume of cell :     2122.85
      direct lattice vectors                 reciprocal lattice vectors
    14.541136322  0.000000000  0.000000000     0.068770416  0.000000000  0.000000000
     0.000000000 14.541136322  0.000000000     0.000000000  0.068770416  0.000000000
     0.000000000  0.000000000 10.039742312     0.000000000  0.000000000  0.099604150

  length of vectors
    14.541136322 14.541136322 10.039742312     0.068770416  0.068770416  0.099604150



 old parameters found on file WAVECAR:
  energy-cutoff  :     1200.00
  volume of cell :     2122.85
      direct lattice vectors                 reciprocal lattice vectors
    14.541136322  0.000000000  0.000000000     0.068770416  0.000000000  0.000000000
     0.000000000 14.541136322  0.000000000     0.000000000  0.068770416  0.000000000
     0.000000000  0.000000000 10.039742312     0.000000000  0.000000000  0.099604150

  length of vectors


 k-points in units of 2pi/SCALE and weight: read from INCAR                         
   0.00000000  0.00000000  0.00000000       0.083
   0.03438521  0.00000000  0.00000000       0.083
   0.00000000  0.03438521  0.00000000       0.083
   0.03438521  0.03438521  0.00000000       0.083
   0.00000000  0.00000000  0.03320138       0.167
   0.03438521  0.00000000  0.03320138       0.167
   0.00000000  0.03438521  0.03320138       0.167
   0.03438521  0.03438521  0.03320138       0.167

 k-points in reciprocal lattice and weights: read from INCAR                         
   0.00000000  0.00000000  0.00000000       0.083
   0.50000000  0.00000000  0.00000000       0.083
   0.00000000  0.50000000  0.00000000       0.083
   0.50000000  0.50000000  0.00000000       0.083
   0.00000000  0.00000000  0.33333333       0.167
   0.50000000  0.00000000  0.33333333       0.167
   0.00000000  0.50000000  0.33333333       0.167
   0.50000000  0.50000000  0.33333333       0.167

 position of ions in fractional coordinates (direct lattice) 
   0.73510074  0.11066742  0.22643609
   0.74954252  0.32103268  0.10855657
   0.91811257  0.15010588  0.82745849
   0.76346165  0.33195824  0.57292108
   0.75077351  0.42492690  0.33917604
   0.88625123  0.52250800  0.50697118
   0.93622669  0.12870934  0.23396915
   0.04494814  0.24949907  0.00573073
   0.65088861  0.29896426  0.12466754
   0.36138029  0.90671731  0.93106872
   0.32638577  0.42447370  0.13089181
   0.60053560  0.18527163  0.74802518
   0.47236336  0.02677095  0.58288647
   0.45177006  0.72096841  0.62207872
   0.80417374  0.70255857  0.14960743
   0.53702956  0.72813429  0.06604403
   0.01863107  0.64397443  0.87522366
   0.51442335  0.13490968  0.43298522
   0.39463147  0.48451097  0.30532557
   0.52074335  0.93325581  0.21402043
   0.87522734  0.69227740  0.72391201
   0.23101014  0.04402992  0.40481318
   0.33421666  0.20572464  0.67298341
   0.41486648  0.71589316  0.39538664
   0.39569191  0.86519373  0.30834656
   0.29056739  0.56478942  0.03451035
   0.24366596  0.60900605  0.68777064
   0.20213551  0.76615746  0.68294681
   0.84000313  0.87220144  0.43968858
   0.65292421  0.15078326  0.53750583
   0.28527894  0.84333162  0.13760612
   0.04273710  0.63905185  0.45789721
   0.96037887  0.73089886  0.06672412
   0.92052641  0.83259655  0.64102143
   0.56716200  0.36738669  0.96281555
   0.90955065  0.91961176  0.23139837
   0.65250265  0.39811400  0.32093154
   0.21728082  0.32002451  0.22120886
   0.38727304  0.16682740  0.11616334
   0.40971557  0.31809962  0.02069017
   0.61044404  0.75752677  0.63036478
   0.80924900  0.70936685  0.38247097
   0.40957116  0.58956328  0.73032054
   0.52427815  0.09539970  0.20769657
   0.45170679  0.11789312  0.76958848
   0.45017252  0.43039277  0.68226851
   0.07071868  0.79155437  0.54523212
   0.75347619  0.85623982  0.89601304
   0.89516388  0.92260328  0.83435110
   0.18328072  0.36746028  0.82973843
   0.16991932  0.94565512  0.22117201
   0.34532790  0.94574452  0.49698188
   0.70797768  0.98292868  0.47899536
   0.69767587  0.09391976  0.91375752
   0.34326478  0.84958972  0.70358678
   0.71728232  0.70789516  0.81275492
   0.66483044  0.31072262  0.53600280
   0.33312458  0.07022766  0.94624540
   0.18647236  0.14685785  0.63435692
   0.01738991  0.87687783  0.96666724
   0.65254598  0.73393852  0.41747287
   0.57053519  0.52157409  0.04374873
   0.17312265  0.54672344  0.49083033
   0.37853438  0.38602279  0.47921549
   0.14782201  0.26143418  0.99411416
   0.38744771  0.22804408  0.46571016
   0.55145415  0.51815620  0.27459370
   0.16846345  0.53006105  0.86704417
   0.29032257  0.17328013  0.29092978
   0.93239618  0.06180397  0.13121154
   0.12793979  0.76708586  0.88455358
   0.21738879  0.67946822  0.16117047
   0.05829070  0.84693519  0.31971239
   0.57824092  0.34340164  0.73586849
   0.66335737  0.14163955  0.12494843
   0.08399481  0.02351109  0.04556900
   0.18894328  0.11426824  0.88740525
   0.12894659  0.29717485  0.61422592
   0.60331186  0.93019553  0.63862296
   0.65809850  0.88713837  0.32200826
   0.33970866  0.34056417  0.79882429
   0.63405430  0.95362561  0.85356573
   0.20861987  0.39301261  0.45683443
   0.89254373  0.62104294  0.52679639
   0.54881818  0.68162967  0.28192257
   0.76291837  0.85029806  0.13604134
   0.68337369  0.63821972  0.01341080
   0.51538407  0.89250246  0.98509998
   0.06363712  0.69161032  0.22939931
   0.86150764  0.07380922  0.91066481
   0.43426111  0.62451997  0.96222689
   0.29075788  0.60850265  0.35502903

 position of ions in cartesian coordinates  (Angst):
  10.68920000  1.60923000  2.27336000
  10.89920000  4.66818000  1.08988000
  13.35040000  2.18271000  8.30747000
  11.10160000  4.82705000  5.75198000
  10.91710000  6.17892000  3.40524000
  12.88710000  7.59786000  5.08986000
  13.61380000  1.87158000  2.34899000
   0.65359700  3.62800000  0.05753510
   9.46466000  4.34728000  1.25163000
   5.25488000 13.18470000  9.34769000
   4.74602000  6.17233000  1.31412000
   8.73247000  2.69406000  7.50998000
   6.86870000  0.38928000  5.85203000
   6.56925000 10.48370000  6.24551000
  11.69360000 10.21600000  1.50202000
   7.80902000 10.58790000  0.66306500
   0.27091700  9.36412000  8.78702000
   7.48030000  1.96174000  4.34706000
   5.73839000  7.04534000  3.06539000
   7.57220000 13.57060000  2.14871000
  12.72680000 10.06650000  7.26789000
   3.35915000  0.64024500  4.06422000
   4.85989000  2.99147000  6.75658000
   6.03263000 10.40990000  3.96958000
   5.75381000 12.58090000  3.09572000
   4.22518000  8.21268000  0.34647500
   3.54318000  8.85564000  6.90504000
   2.93928000 11.14080000  6.85661000
  12.21460000 12.68280000  4.41436000
   9.49426000  2.19256000  5.39642000
   4.14828000 12.26300000  1.38153000
   0.62144600  9.29254000  4.59717000
  13.96500000 10.62810000  0.66989300
  13.38550000 12.10690000  6.43569000
   8.24718000  5.34222000  9.66642000
  13.22590000 13.37220000  2.32318000
   9.48813000  5.78903000  3.22207000
   3.15951000  4.65352000  2.22088000
   5.63139000  2.42586000  1.16625000
   5.95773000  4.62553000  0.20772400
   8.87655000 11.01530000  6.32870000
  11.76740000 10.31500000  3.83991000
   5.95563000  8.57292000  7.33223000
   7.62360000  1.38722000  2.08522000
   6.56833000  1.71430000  7.72647000
   6.54602000  6.25840000  6.84980000
   1.02833000 11.51010000  5.47399000
  10.95640000 12.45070000  8.99574000
  13.01670000 13.41570000  8.37667000
   2.66511000  5.34329000  8.33036000
   2.47082000 13.75090000  2.22051000
   5.02146000 13.75220000  4.98957000
  10.29480000 14.29290000  4.80899000
  10.14500000  1.36570000  9.17389000
   4.99146000 12.35400000  7.06383000
  10.43010000 10.29360000  8.15985000
   9.66739000  4.51826000  5.38133000
   4.84401000  1.02119000  9.50006000
   2.71152000  2.13548000  6.36878000
   0.25286900 12.75080000  9.70509000
   9.48876000 10.67230000  4.19132000
   8.29623000  7.58428000  0.43922600
   2.51740000  7.94998000  4.92781000
   5.50432000  5.61321000  4.81120000
   2.14950000  3.80155000  9.98065000
   5.63393000  3.31602000  4.67561000
   8.01877000  7.53458000  2.75685000
   2.44965000  7.70769000  8.70490000
   4.22162000  2.51969000  2.92086000
  13.55810000  0.89870000  1.31733000
   1.86039000 11.15430000  8.88069000
   3.16108000  9.88024000  1.61811000
   0.84761300 12.31540000  3.20983000
   8.40828000  4.99345000  7.38793000
   9.64597000  2.05960000  1.25445000
   1.22138000  0.34187800  0.45750100
   2.74745000  1.66159000  8.90932000
   1.87503000  4.32126000  6.16667000
   8.77284000 13.52610000  6.41161000
   9.56950000 12.90000000  3.23288000
   4.93975000  4.95219000  8.01999000
   9.21987000 13.86680000  8.56958000
   3.03357000  5.71485000  4.58650000
  12.97860000  9.03067000  5.28890000
   7.98044000  9.91167000  2.83043000
  11.09370000 12.36430000  1.36582000
   9.93703000  9.28044000  0.13464100
   7.49427000 12.97800000  9.89015000
   0.92535600 10.05680000  2.30311000
  12.52730000  1.07327000  9.14284000
   6.31465000  9.08123000  9.66051000
   4.22795000  8.84832000  3.56440000



--------------------------------------------------------------------------------------------------------


 k-point     1 :   0.0000 0.0000 0.0000  plane waves:  200137
 k-point     2 :   0.5000 0.0000 0.0000  plane waves:  200426
 k-point     3 :   0.0000 0.5000 0.0000  plane waves:  200426
 k-point     4 :   0.5000 0.5000 0.0000  plane waves:  200420
 k-point     5 :   0.0000 0.0000 0.3333  plane waves:  200293
 k-point     6 :   0.5000 0.0000 0.3333  plane waves:  200378
 k-point     7 :   0.0000 0.5000 0.3333  plane waves:  200378
 k-point     8 :   0.5000 0.5000 0.3333  plane waves:  200352

 maximum and minimum number of plane-waves per node :     12582    12452

 maximum number of plane-waves:    200426
 maximum index in each direction: 
   IXMAX=   41   IYMAX=   41   IZMAX=   28
   IXMIN=  -41   IYMIN=  -41   IZMIN=  -28


 parallel 3D FFT for wavefunctions:
    minimum data exchange during FFTs selected (reduces bandwidth)
 parallel 3D FFT for charge:
    minimum data exchange during FFTs selected (reduces bandwidth)


 total amount of memory used by VASP MPI-rank0   178969. kBytes
=======================================================================

   base                                    :      30000. kBytes
   nonl-proj                               :      31309. kBytes
   fftplans                                :      40938. kBytes
   grid                                    :      31575. kBytes
   one-center                              :         18. kBytes
   wavefun                                 :      45129. kBytes

     INWAV:  cpu time      8.2081: real time      8.2122
 Broyden mixing: mesh for mixing (old mesh)
   NGX = 83   NGY = 83   NGZ = 57
  (NGX  =336   NGY  =336   NGZ  =240)
  gives a total of 392673 points

 initial charge density was supplied:
 number of electron     343.9999999 magnetization 
 keeping initial charge density in first step


--------------------------------------------------------------------------------------------------------


 Maximum index for augmentation-charges        11188 (set IRDMAX)


--------------------------------------------------------------------------------------------------------


 First call to EWALD:  gamma=   0.138
 Maximum number of real-space cells   2x   2x   3
 Maximum number of reciprocal cells   3x   3x   2

    FEWALD:  cpu time      0.0147: real time      0.0150


--------------------------------------- Ionic step        1  -------------------------------------------




--------------------------------------- Iteration      1(   1)  ---------------------------------------


    POTLOK:  cpu time      0.7332: real time      0.7337
    SETDIJ:  cpu time      1.3429: real time      1.3443
    EDDIAG:  cpu time     18.9478: real time     18.9643
     EDDAV:  cpu time     86.8848: real time     86.9631
       DOS:  cpu time      0.0122: real time      0.0124
    CHARGE:  cpu time      8.3735: real time      8.3801
    MIXING:  cpu time      0.0250: real time      0.0255
    --------------------------------------------
      LOOP:  cpu time    116.3195: real time    116.4235

 eigenvalue-minimisations  :  3608
 total energy-change (2. order) :-0.8959349E+03  (-0.9619159E+00)
 number of electron     343.9999999 magnetization 
 augmentation part      -18.6115955 magnetization 

 Broyden mixing:
  rms(total) = 0.11682E+01    rms(broyden)= 0.44989E+02
  rms(prec ) = 0.12562E+01
  weight for this iteration     100.00
  WARNING: grid for Broyden might be to small

 Free energy of the ion-electron system (eV)
  ---------------------------------------------------
  alpha Z        PSCENC =       117.71289483
  Ewald energy   TEWEN  =     -5723.75080434
  -Hartree energ DENC   =     -3925.18601791
  -exchange      EXHF   =         0.00000000
  -V(xc)+E(xc)   XCENC  =      -384.72994005
  PAW double counting   =     32127.00509827   -31289.73671318
  entropy T*S    EENTRO =        -0.09854546
  eigenvalues    EBANDS =      -574.67196118
  atomic energy  EATOM  =      8757.52110192
  Solvation  Ediel_sol  =         0.00000000
  ---------------------------------------------------
  free energy    TOTEN  =      -895.93488710 eV

  energy without entropy =     -895.83634165  energy(sigma->0) =     -895.88561438


--------------------------------------------------------------------------------------------------------




--------------------------------------- Iteration      1(   2)  ---------------------------------------


    POTLOK:  cpu time      0.7131: real time      0.7399
    SETDIJ:  cpu time      1.2915: real time      1.2921
    EDDIAG:  cpu time     18.9546: real time     18.9710
     EDDAV:  cpu time     86.4677: real time     86.5458
       DOS:  cpu time      0.0034: real time      0.0034
    CHARGE:  cpu time      8.4471: real time      8.4536
    MIXING:  cpu time      0.0163: real time      0.0168
    --------------------------------------------
      LOOP:  cpu time    115.8937: real time    116.0226

 eigenvalue-minimisations  :  3584
 total energy-change (2. order) : 0.6103574E+02  (-0.9218483E+00)
 number of electron     343.9999999 magnetization 
 augmentation part      -18.5355832 magnetization 

 Broyden mixing:
  rms(total) = 0.77985E+00    rms(broyden)= 0.25973E+02
  rms(prec ) = 0.82562E+00
  weight for this iteration     100.00
  WARNING: grid for Broyden might be to small

 eigenvalues of (default mixing * dielectric matrix)
  average eigenvalue GAMMA=   0.6340
  0.6340

 Free energy of the ion-electron system (eV)
  ---------------------------------------------------
  alpha Z        PSCENC =       117.71289483
  Ewald energy   TEWEN  =     -5723.75080434
  -Hartree energ DENC   =     -3916.54790353
  -exchange      EXHF   =         0.00000000
  -V(xc)+E(xc)   XCENC  =      -376.08912108
  PAW double counting   =     38524.90107345   -37687.40272892
  entropy T*S    EENTRO =        -0.09986451
  eigenvalues    EBANDS =      -531.14379781
  atomic energy  EATOM  =      8757.52110192
  Solvation  Ediel_sol  =         0.00000000
  ---------------------------------------------------
  free energy    TOTEN  =      -834.89915001 eV

  energy without entropy =     -834.79928550  energy(sigma->0) =     -834.84921775


--------------------------------------------------------------------------------------------------------




--------------------------------------- Iteration      1(   3)  ---------------------------------------


    POTLOK:  cpu time      0.7147: real time      0.7392
    SETDIJ:  cpu time      1.2882: real time      1.2887
    EDDIAG:  cpu time     18.9954: real time     19.0107
     EDDAV:  cpu time     86.7003: real time     86.7776
       DOS:  cpu time      0.0044: real time      0.0044
    CHARGE:  cpu time      8.3885: real time      8.3958
    MIXING:  cpu time      0.0144: real time      0.0144
    --------------------------------------------
      LOOP:  cpu time    116.1058: real time    116.2308

 eigenvalue-minimisations  :  3584
 total energy-change (2. order) :-0.3043350E+01  (-0.7337505E+00)
 number of electron     343.9999999 magnetization 
 augmentation part      -18.4757931 magnetization 

 Broyden mixing:
  rms(total) = 0.45332E+00    rms(broyden)= 0.21168E+02
  rms(prec ) = 0.51885E+00
  weight for this iteration     100.00
  WARNING: grid for Broyden might be to small

 eigenvalues of (default mixing * dielectric matrix)
  average eigenvalue GAMMA=   0.6981
  0.7746  0.6215

 Free energy of the ion-electron system (eV)
  ---------------------------------------------------
  alpha Z        PSCENC =       117.71289483
  Ewald energy   TEWEN  =     -5723.75080434
  -Hartree energ DENC   =     -3920.66721144
  -exchange      EXHF   =         0.00000000
  -V(xc)+E(xc)   XCENC  =      -380.40679249
  PAW double counting   =     43934.34344345   -43096.92959808
  entropy T*S    EENTRO =        -0.08754883
  eigenvalues    EBANDS =      -525.67798528
  atomic energy  EATOM  =      8757.52110192
  Solvation  Ediel_sol  =         0.00000000
  ---------------------------------------------------
  free energy    TOTEN  =      -837.94250028 eV

  energy without entropy =     -837.85495145  energy(sigma->0) =     -837.89872586


--------------------------------------------------------------------------------------------------------




--------------------------------------- Iteration      1(   4)  ---------------------------------------


    POTLOK:  cpu time      0.7177: real time      0.7373
    SETDIJ:  cpu time      1.2886: real time      1.2893
    EDDIAG:  cpu time     18.9450: real time     18.9620
     EDDAV:  cpu time     92.9381: real time     93.0205
       DOS:  cpu time      0.0046: real time      0.0046
    CHARGE:  cpu time      8.2043: real time      8.2119
    MIXING:  cpu time      0.0148: real time      0.0148
    --------------------------------------------
      LOOP:  cpu time    122.1131: real time    122.2403

 eigenvalue-minimisations  :  4048
 total energy-change (2. order) :-0.3744265E+00  (-0.2590306E+00)
 number of electron     343.9999999 magnetization 
 augmentation part      -18.4680432 magnetization 

 Broyden mixing:
  rms(total) = 0.21606E+00    rms(broyden)= 0.99568E+00
  rms(prec ) = 0.41946E+00
  weight for this iteration     100.00
  WARNING: grid for Broyden might be to small

 eigenvalues of (default mixing * dielectric matrix)
  average eigenvalue GAMMA=   0.8362
  1.2811  0.6467  0.5808

 Free energy of the ion-electron system (eV)
  ---------------------------------------------------
  alpha Z        PSCENC =       117.71289483
  Ewald energy   TEWEN  =     -5723.75080434
  -Hartree energ DENC   =     -3924.47815756
  -exchange      EXHF   =         0.00000000
  -V(xc)+E(xc)   XCENC  =      -380.86117230
  PAW double counting   =     51119.78102394   -50282.41984198
  entropy T*S    EENTRO =        -0.03947679
  eigenvalues    EBANDS =      -521.78249450
  atomic energy  EATOM  =      8757.52110192
  Solvation  Ediel_sol  =         0.00000000
  ---------------------------------------------------
  free energy    TOTEN  =      -838.31692679 eV

  energy without entropy =     -838.27744999  energy(sigma->0) =     -838.29718839


--------------------------------------------------------------------------------------------------------




--------------------------------------- Iteration      1(   5)  ---------------------------------------


    POTLOK:  cpu time      0.7128: real time      0.7369
    SETDIJ:  cpu time      1.2914: real time      1.2923
    EDDIAG:  cpu time     19.0304: real time     19.0470
     EDDAV:  cpu time     93.5324: real time     93.6093
       DOS:  cpu time      0.0049: real time      0.0049
    CHARGE:  cpu time      8.2617: real time      8.2693
    MIXING:  cpu time      0.0145: real time      0.0146
    --------------------------------------------
      LOOP:  cpu time    122.8481: real time    122.9743

 eigenvalue-minimisations  :  4072
 total energy-change (2. order) : 0.9122541E-01  (-0.1042256E+00)
 number of electron     343.9999999 magnetization 
 augmentation part      -18.4670844 magnetization 

 Broyden mixing:
  rms(total) = 0.46349E-01    rms(broyden)= 0.18257E+01
  rms(prec ) = 0.71206E-01
  weight for this iteration     100.00
  WARNING: grid for Broyden might be to small

 eigenvalues of (default mixing * dielectric matrix)
  average eigenvalue GAMMA=   0.9403
  2.0673  0.7290  0.6226  0.3424

 Free energy of the ion-electron system (eV)
  ---------------------------------------------------
  alpha Z        PSCENC =       117.71289483
  Ewald energy   TEWEN  =     -5723.75080434
  -Hartree energ DENC   =     -3926.56836945
  -exchange      EXHF   =         0.00000000
  -V(xc)+E(xc)   XCENC  =      -381.80020878
  PAW double counting   =     51618.91817251   -50781.55372690
  entropy T*S    EENTRO =        -0.09747650
  eigenvalues    EBANDS =      -518.60728466
  atomic energy  EATOM  =      8757.52110192
  Solvation  Ediel_sol  =         0.00000000
  ---------------------------------------------------
  free energy    TOTEN  =      -838.22570138 eV

  energy without entropy =     -838.12822488  energy(sigma->0) =     -838.17696313


--------------------------------------------------------------------------------------------------------




--------------------------------------- Iteration      1(   6)  ---------------------------------------


    POTLOK:  cpu time      0.7136: real time      0.7397
    SETDIJ:  cpu time      1.2888: real time      1.2897
    EDDIAG:  cpu time     18.9885: real time     19.0056
     EDDAV:  cpu time     88.5134: real time     88.5959
       DOS:  cpu time      0.0035: real time      0.0035
    CHARGE:  cpu time      8.4133: real time      8.4211
    MIXING:  cpu time      0.0149: real time      0.0149
    --------------------------------------------
      LOOP:  cpu time    117.9360: real time    118.0703

 eigenvalue-minimisations  :  3712
 total energy-change (2. order) : 0.1334898E-01  (-0.1035811E-01)
 number of electron     343.9999999 magnetization 
 augmentation part      -18.4674039 magnetization 

 Broyden mixing:
  rms(total) = 0.23760E-01    rms(broyden)= 0.31400E+00
  rms(prec ) = 0.31429E-01
  weight for this iteration     100.00
  WARNING: grid for Broyden might be to small

 eigenvalues of (default mixing * dielectric matrix)
  average eigenvalue GAMMA=   1.0138
  2.5563  0.9135  0.3314  0.6339  0.6339

 Free energy of the ion-electron system (eV)
  ---------------------------------------------------
  alpha Z        PSCENC =       117.71289483
  Ewald energy   TEWEN  =     -5723.75080434
  -Hartree energ DENC   =     -3926.58330814
  -exchange      EXHF   =         0.00000000
  -V(xc)+E(xc)   XCENC  =      -382.10200202
  PAW double counting   =     51211.36300258   -50373.97300257
  entropy T*S    EENTRO =        -0.09986414
  eigenvalues    EBANDS =      -518.30037051
  atomic energy  EATOM  =      8757.52110192
  Solvation  Ediel_sol  =         0.00000000
  ---------------------------------------------------
  free energy    TOTEN  =      -838.21235240 eV

  energy without entropy =     -838.11248825  energy(sigma->0) =     -838.16242033


--------------------------------------------------------------------------------------------------------




--------------------------------------- Iteration      1(   7)  ---------------------------------------


    POTLOK:  cpu time      0.7094: real time      0.7373
    SETDIJ:  cpu time      1.2868: real time      1.2880
    EDDIAG:  cpu time     18.9878: real time     19.0051
     EDDAV:  cpu time     96.3203: real time     96.4041
       DOS:  cpu time      0.0051: real time      0.0051
    CHARGE:  cpu time      8.2477: real time      8.2548
    MIXING:  cpu time      0.0150: real time      0.0150
    --------------------------------------------
      LOOP:  cpu time    125.5722: real time    125.7096

 eigenvalue-minimisations  :  4272
 total energy-change (2. order) :-0.1531928E-02  (-0.6874386E-03)
 number of electron     343.9999999 magnetization 
 augmentation part      -18.4662873 magnetization 

 Broyden mixing:
  rms(total) = 0.14126E-01    rms(broyden)= 0.12360E+00
  rms(prec ) = 0.15833E-01
  weight for this iteration     100.00
  WARNING: grid for Broyden might be to small

 eigenvalues of (default mixing * dielectric matrix)
  average eigenvalue GAMMA=   1.0155
  2.5677  1.1069  0.3279  0.8213  0.6347  0.6347

 Free energy of the ion-electron system (eV)
  ---------------------------------------------------
  alpha Z        PSCENC =       117.71289483
  Ewald energy   TEWEN  =     -5723.75080434
  -Hartree energ DENC   =     -3926.82535479
  -exchange      EXHF   =         0.00000000
  -V(xc)+E(xc)   XCENC  =      -382.03754405
  PAW double counting   =     51201.94896608   -50364.54483178
  entropy T*S    EENTRO =        -0.10037648
  eigenvalues    EBANDS =      -518.13793570
  atomic energy  EATOM  =      8757.52110192
  Solvation  Ediel_sol  =         0.00000000
  ---------------------------------------------------
  free energy    TOTEN  =      -838.21388433 eV

  energy without entropy =     -838.11350785  energy(sigma->0) =     -838.16369609


--------------------------------------------------------------------------------------------------------




--------------------------------------- Iteration      1(   8)  ---------------------------------------


    POTLOK:  cpu time      0.7074: real time      0.7343
    SETDIJ:  cpu time      1.2871: real time      1.2877
    EDDIAG:  cpu time     19.0471: real time     19.0628
     EDDAV:  cpu time     92.1475: real time     92.2329
       DOS:  cpu time      0.0050: real time      0.0050
    CHARGE:  cpu time      8.1710: real time      8.1784
    MIXING:  cpu time      0.0150: real time      0.0150
    --------------------------------------------
      LOOP:  cpu time    121.3802: real time    121.5161

 eigenvalue-minimisations  :  3968
 total energy-change (2. order) :-0.8647040E-03  (-0.2449472E-03)
 number of electron     343.9999999 magnetization 
 augmentation part      -18.4649692 magnetization 

 Broyden mixing:
  rms(total) = 0.48514E-02    rms(broyden)= 0.20704E+00
  rms(prec ) = 0.57933E-02
  weight for this iteration     100.00
  WARNING: grid for Broyden might be to small

 eigenvalues of (default mixing * dielectric matrix)
  average eigenvalue GAMMA=   1.0561
  2.5908  1.4866  0.9492  0.3280  0.7708  0.6446  0.6224

 Free energy of the ion-electron system (eV)
  ---------------------------------------------------
  alpha Z        PSCENC =       117.71289483
  Ewald energy   TEWEN  =     -5723.75080434
  -Hartree energ DENC   =     -3927.17448664
  -exchange      EXHF   =         0.00000000
  -V(xc)+E(xc)   XCENC  =      -381.93436692
  PAW double counting   =     51213.05817446   -50375.63825796
  entropy T*S    EENTRO =        -0.10044413
  eigenvalues    EBANDS =      -517.90856024
  atomic energy  EATOM  =      8757.52110192
  Solvation  Ediel_sol  =         0.00000000
  ---------------------------------------------------
  free energy    TOTEN  =      -838.21474903 eV

  energy without entropy =     -838.11430490  energy(sigma->0) =     -838.16452696


--------------------------------------------------------------------------------------------------------




--------------------------------------- Iteration      1(   9)  ---------------------------------------


    POTLOK:  cpu time      0.7348: real time      0.7361
    SETDIJ:  cpu time      1.2934: real time      1.2939
    EDDIAG:  cpu time     18.9675: real time     18.9843
     EDDAV:  cpu time     93.6282: real time     93.7100
       DOS:  cpu time      0.0045: real time      0.0045
    CHARGE:  cpu time      8.3108: real time      8.3175
    MIXING:  cpu time      0.0152: real time      0.0153
    --------------------------------------------
      LOOP:  cpu time    122.9545: real time    123.0617

 eigenvalue-minimisations  :  4080
 total energy-change (2. order) :-0.1813596E-03  (-0.6310207E-04)
 number of electron     343.9999999 magnetization 
 augmentation part      -18.4648878 magnetization 

 Broyden mixing:
  rms(total) = 0.22445E-02    rms(broyden)= 0.15872E+00
  rms(prec ) = 0.30233E-02
  weight for this iteration     100.00
  WARNING: grid for Broyden might be to small

 eigenvalues of (default mixing * dielectric matrix)
  average eigenvalue GAMMA=   1.1164
  2.5828  2.1507  0.3281  1.0002  0.9305  0.6944  0.6298  0.6151

 Free energy of the ion-electron system (eV)
  ---------------------------------------------------
  alpha Z        PSCENC =       117.71289483
  Ewald energy   TEWEN  =     -5723.75080434
  -Hartree energ DENC   =     -3927.25075849
  -exchange      EXHF   =         0.00000000
  -V(xc)+E(xc)   XCENC  =      -381.92891778
  PAW double counting   =     51220.00933233   -50382.58426941
  entropy T*S    EENTRO =        -0.10038811
  eigenvalues    EBANDS =      -517.84312132
  atomic energy  EATOM  =      8757.52110192
  Solvation  Ediel_sol  =         0.00000000
  ---------------------------------------------------
  free energy    TOTEN  =      -838.21493039 eV

  energy without entropy =     -838.11454228  energy(sigma->0) =     -838.16473634


--------------------------------------------------------------------------------------------------------




--------------------------------------- Iteration      1(  10)  ---------------------------------------


    POTLOK:  cpu time      0.7096: real time      0.7358
    SETDIJ:  cpu time      1.2871: real time      1.2877
    EDDIAG:  cpu time     19.0437: real time     19.0596
     EDDAV:  cpu time     91.2127: real time     91.2922
       DOS:  cpu time      0.0049: real time      0.0049
    CHARGE:  cpu time      8.2206: real time      8.2275
    MIXING:  cpu time      0.0150: real time      0.0161
    --------------------------------------------
      LOOP:  cpu time    120.4934: real time    120.6236

 eigenvalue-minimisations  :  3888
 total energy-change (2. order) : 0.4839767E-04  (-0.2334543E-04)
 number of electron     343.9999999 magnetization 
 augmentation part      -18.4648790 magnetization 

 Broyden mixing:
  rms(total) = 0.10854E-02    rms(broyden)= 0.19277E-01
  rms(prec ) = 0.15066E-02
  weight for this iteration     100.00
  WARNING: grid for Broyden might be to small

 eigenvalues of (default mixing * dielectric matrix)
  average eigenvalue GAMMA=   1.1765
  2.6893  2.6893  1.0827  1.0827  0.3282  0.8447  0.6570  0.6291  0.5859

 Free energy of the ion-electron system (eV)
  ---------------------------------------------------
  alpha Z        PSCENC =       117.71289483
  Ewald energy   TEWEN  =     -5723.75080434
  -Hartree energ DENC   =     -3927.25305781
  -exchange      EXHF   =         0.00000000
  -V(xc)+E(xc)   XCENC  =      -381.93636846
  PAW double counting   =     51219.76054191   -50382.33281031
  entropy T*S    EENTRO =        -0.10038332
  eigenvalues    EBANDS =      -517.83599640
  atomic energy  EATOM  =      8757.52110192
  Solvation  Ediel_sol  =         0.00000000
  ---------------------------------------------------
  free energy    TOTEN  =      -838.21488199 eV

  energy without entropy =     -838.11449867  energy(sigma->0) =     -838.16469033


--------------------------------------------------------------------------------------------------------




--------------------------------------- Iteration      1(  11)  ---------------------------------------


    POTLOK:  cpu time      0.7117: real time      0.7369
    SETDIJ:  cpu time      1.2888: real time      1.2897
    EDDIAG:  cpu time     18.9841: real time     19.0001
     EDDAV:  cpu time     94.0592: real time     94.1469
       DOS:  cpu time      0.0040: real time      0.0040
    CHARGE:  cpu time      8.3124: real time      8.3196
    MIXING:  cpu time      0.0157: real time      0.0157
    --------------------------------------------
      LOOP:  cpu time    123.3758: real time    123.5128

 eigenvalue-minimisations  :  4128
 total energy-change (2. order) :-0.1393133E-04  (-0.4883392E-05)
 number of electron     343.9999999 magnetization 
 augmentation part      -18.4649283 magnetization 

 Broyden mixing:
  rms(total) = 0.38296E-03    rms(broyden)= 0.22013E-01
  rms(prec ) = 0.54490E-03
  weight for this iteration     100.00
  WARNING: grid for Broyden might be to small

 eigenvalues of (default mixing * dielectric matrix)
  average eigenvalue GAMMA=   1.1948
  3.1533  2.5970  1.2984  1.0535  0.3282  0.9192  0.7500  0.6339  0.6233  0.5907

 Free energy of the ion-electron system (eV)
  ---------------------------------------------------
  alpha Z        PSCENC =       117.71289483
  Ewald energy   TEWEN  =     -5723.75080434
  -Hartree energ DENC   =     -3927.22078450
  -exchange      EXHF   =         0.00000000
  -V(xc)+E(xc)   XCENC  =      -381.94255367
  PAW double counting   =     51215.72013806   -50378.29145759
  entropy T*S    EENTRO =        -0.10040419
  eigenvalues    EBANDS =      -517.86302644
  atomic energy  EATOM  =      8757.52110192
  Solvation  Ediel_sol  =         0.00000000
  ---------------------------------------------------
  free energy    TOTEN  =      -838.21489592 eV

  energy without entropy =     -838.11449174  energy(sigma->0) =     -838.16469383


--------------------------------------------------------------------------------------------------------




--------------------------------------- Iteration      1(  12)  ---------------------------------------


    POTLOK:  cpu time      0.7124: real time      0.7378
    SETDIJ:  cpu time      1.2903: real time      1.2910
    EDDIAG:  cpu time     18.9271: real time     18.9440
     EDDAV:  cpu time     90.6212: real time     90.7040
       DOS:  cpu time      0.0044: real time      0.0044
    CHARGE:  cpu time      8.3286: real time      8.3357
    MIXING:  cpu time      0.0166: real time      0.0167
    --------------------------------------------
      LOOP:  cpu time    119.9007: real time    120.0335

 eigenvalue-minimisations  :  3856
 total energy-change (2. order) :-0.1418884E-06  (-0.2318095E-05)
 number of electron     343.9999999 magnetization 
 augmentation part      -18.4649649 magnetization 

 Broyden mixing:
  rms(total) = 0.21901E-03    rms(broyden)= 0.97196E-02
  rms(prec ) = 0.32846E-03
  weight for this iteration     100.00
  WARNING: grid for Broyden might be to small

 eigenvalues of (default mixing * dielectric matrix)
  average eigenvalue GAMMA=   1.2265
  3.3046  2.6346  1.7174  1.0235  1.0235  0.3282  0.9063  0.7063  0.6315  0.6236
  0.5925

 Free energy of the ion-electron system (eV)
  ---------------------------------------------------
  alpha Z        PSCENC =       117.71289483
  Ewald energy   TEWEN  =     -5723.75080434
  -Hartree energ DENC   =     -3927.19570056
  -exchange      EXHF   =         0.00000000
  -V(xc)+E(xc)   XCENC  =      -381.94819564
  PAW double counting   =     51214.55835661   -50377.12950422
  entropy T*S    EENTRO =        -0.10041000
  eigenvalues    EBANDS =      -517.88263467
  atomic energy  EATOM  =      8757.52110192
  Solvation  Ediel_sol  =         0.00000000
  ---------------------------------------------------
  free energy    TOTEN  =      -838.21489607 eV

  energy without entropy =     -838.11448607  energy(sigma->0) =     -838.16469107


--------------------------------------------------------------------------------------------------------




--------------------------------------- Iteration      1(  13)  ---------------------------------------


    POTLOK:  cpu time      0.7078: real time      0.7345
    SETDIJ:  cpu time      1.2857: real time      1.2862
    EDDIAG:  cpu time     18.9356: real time     18.9513
     EDDAV:  cpu time     86.7632: real time     86.8399
       DOS:  cpu time      0.0047: real time      0.0047
    --------------------------------------------
      LOOP:  cpu time    107.6974: real time    107.8171

 eigenvalue-minimisations  :  3568
 total energy-change (2. order) : 0.2500310E-06  (-0.5828373E-06)
 number of electron     343.9999999 magnetization 
 augmentation part      -18.4649649 magnetization 

 Free energy of the ion-electron system (eV)
  ---------------------------------------------------
  alpha Z        PSCENC =       117.71289483
  Ewald energy   TEWEN  =     -5723.75080434
  -Hartree energ DENC   =     -3927.18497332
  -exchange      EXHF   =         0.00000000
  -V(xc)+E(xc)   XCENC  =      -381.95030406
  PAW double counting   =     51214.84771826   -50377.41908447
  entropy T*S    EENTRO =        -0.10040637
  eigenvalues    EBANDS =      -517.89103825
  atomic energy  EATOM  =      8757.52110192
  Solvation  Ediel_sol  =         0.00000000
  ---------------------------------------------------
  free energy    TOTEN  =      -838.21489582 eV

  energy without entropy =     -838.11448944  energy(sigma->0) =     -838.16469263


--------------------------------------------------------------------------------------------------------




 average (electrostatic) potential at core
  the test charge radii are     0.5201  0.9892
  (the norm of the test charge is              1.0000)
       1 -34.8538       2 -34.5357       3 -34.4419       4 -34.2368       5 -34.7942
       6 -34.9896       7 -35.3697       8 -34.5633       9 -88.2284      10 -88.7883
      11 -88.1455      12 -88.6752      13 -88.0063      14 -88.4337      15 -88.4212
      16 -88.7640      17 -88.3870      18 -87.9332      19 -88.0849      20 -88.1621
      21 -88.4962      22 -88.9889      23 -88.0381      24 -88.2302      25 -88.2155
      26 -88.6275      27 -88.4164      28 -88.3421      29 -88.6499      30 -88.5270
      31 -88.7009      32 -88.4430      33 -88.5114      34 -88.4205      35 -88.5498
      36 -88.5820      37 -88.6558      38 -88.7667      39 -88.5433      40 -88.4745
      41 -88.6050      42 -88.4364      43 -88.7433      44 -88.1882      45 -88.1613
      46 -88.6581      47 -88.4701      48 -88.1959      49 -88.3853      50 -88.3223
      51 -88.4974      52 -88.3387      53 -88.6324      54 -88.6416      55 -88.7471
      56 -88.7121      57 -88.5273      58 -88.5928      59 -88.8144      60 -88.4617
      61 -88.3983      62 -88.5467      63 -88.5446      64 -88.3328      65 -88.5254
      66 -88.0165      67 -88.4087      68 -88.5439      69 -88.3355      70 -88.5788
      71 -88.2145      72 -88.5918      73 -88.4263      74 -88.7031      75 -88.3338
      76 -88.5721      77 -88.8191      78 -88.4072      79 -88.2637      80 -88.3873
      81 -88.2601      82 -88.2459      83 -88.7102      84 -88.2148      85 -88.4220
      86 -88.2970      87 -88.7909      88 -88.4607      89 -88.2009      90 -88.8497
      91 -88.6394      92 -88.5029



 E-fermi :   3.7592     XC(G=0):  -8.5223     alpha+bet : -9.5946

 WARNING: Could not determine fundamental gap because eigenvalues are not
     sorted.

 Fermi energy:         3.7592009540

 k-point     1 :       0.0000    0.0000    0.0000
  band No.  band energies     occupation 
      1      -8.8347      2.00000
      2      -8.4857      2.00000
      3      -8.2371      2.00000
      4      -8.0922      2.00000
      5      -7.8090      2.00000
      6      -7.6761      2.00000
      7      -7.6494      2.00000
      8      -7.4087      2.00000
      9      -7.3712      2.00000
     10      -7.2688      2.00000
     11      -7.1843      2.00000
     12      -7.0284      2.00000
     13      -6.9222      2.00000
     14      -6.8874      2.00000
     15      -6.8461      2.00000
     16      -6.6405      2.00000
     17      -6.6190      2.00000
     18      -6.5903      2.00000
     19      -6.5470      2.00000
     20      -6.4552      2.00000
     21      -6.4288      2.00000
     22      -6.2632      2.00000
     23      -6.1923      2.00000
     24      -6.0760      2.00000
     25      -5.9976      2.00000
     26      -5.8733      2.00000
     27      -5.7996      2.00000
     28      -5.7639      2.00000
     29      -5.5802      2.00000
     30      -5.5423      2.00000
     31      -5.4703      2.00000
     32      -5.3910      2.00000
     33      -5.3237      2.00000
     34      -5.2882      2.00000
     35      -5.1459      2.00000
     36      -4.9901      2.00000
     37      -4.9106      2.00000
     38      -4.8043      2.00000
     39      -4.7015      2.00000
     40      -4.6855      2.00000
     41      -4.5256      2.00000
     42      -4.4765      2.00000
     43      -4.4125      2.00000
     44      -4.2933      2.00000
     45      -4.2150      2.00000
     46      -4.0692      2.00000
     47      -4.0415      2.00000
     48      -3.9271      2.00000
     49      -3.8871      2.00000
     50      -3.6531      2.00000
     51      -3.5506      2.00000
     52      -3.4773      2.00000
     53      -3.3838      2.00000
     54      -3.2760      2.00000
     55      -3.2083      2.00000
[...]
   0.121E+03 -.781E+01 -.142E+01   -.120E+03 0.658E+01 0.220E+01   -.213E+01 0.161E+01 -.165E+01   -.190E-04 -.500E-03 -.519E-03
   0.351E+02 -.470E+02 -.151E+02   -.361E+02 0.455E+02 0.147E+02   0.399E+00 0.185E+01 0.568E+00   -.768E-04 -.157E-03 -.415E-03
   0.580E+02 -.405E+01 -.154E+02   -.555E+02 0.528E+01 0.140E+02   -.203E+01 -.978E+00 0.220E+01   -.329E-03 0.617E-04 0.173E-04
   -.931E+02 -.846E+02 -.967E+01   0.901E+02 0.790E+02 0.995E+01   0.361E+01 0.584E+01 0.104E+01   0.289E-04 -.181E-03 0.450E-04
   -.737E+02 -.724E+02 0.138E+02   0.730E+02 0.709E+02 -.123E+02   0.456E+00 0.228E+01 -.230E+01   0.524E-04 -.660E-04 0.125E-03
   0.266E+02 -.129E+02 -.101E+02   -.283E+02 0.112E+02 0.887E+01   0.128E+01 0.918E+00 0.197E+00   -.504E-03 0.141E-04 0.358E-03
   -.235E+02 0.891E+02 0.259E+02   0.247E+02 -.875E+02 -.236E+02   -.465E+00 -.112E+01 -.318E+01   0.195E-03 0.376E-04 -.814E-05
   -.103E+03 -.434E+02 0.806E+01   0.107E+03 0.431E+02 -.772E+01   -.244E+01 0.152E+01 -.792E+00   -.429E-03 -.558E-04 -.110E-03
   0.344E+02 0.611E+00 -.119E+01   -.353E+02 0.258E+00 0.193E+01   0.259E+01 -.139E+01 -.133E+01   -.361E-03 -.135E-04 0.960E-04
   0.126E+03 0.237E+02 0.204E+02   -.124E+03 -.196E+02 -.197E+02   -.197E+01 -.449E+01 -.468E+00   -.219E-04 0.743E-03 0.173E-03
   -.936E+01 -.324E+02 0.171E+02   0.925E+01 0.325E+02 -.195E+02   0.794E+00 -.518E+00 0.252E+01   0.468E-03 -.425E-03 -.206E-03
   -.402E+02 0.644E+02 -.257E+02   0.395E+02 -.639E+02 0.252E+02   0.238E+01 0.823E+00 0.690E+00   0.334E-03 -.916E-04 0.425E-04
   -.740E+02 0.376E+02 0.336E+02   0.732E+02 -.386E+02 -.317E+02   0.103E-01 0.859E+00 -.261E+01   0.321E-04 -.558E-04 -.152E-05
   0.894E+02 0.533E+02 0.259E+01   -.877E+02 -.530E+02 -.193E+01   -.101E+01 0.206E+00 -.179E+00   -.265E-03 -.929E-04 0.150E-03
   -.670E+01 -.704E+01 -.283E+01   0.747E+01 0.655E+01 0.596E+00   -.109E+01 0.575E+00 0.234E+01   -.213E-03 -.238E-03 0.308E-04
   0.105E+03 -.200E+02 -.270E+02   -.108E+03 0.208E+02 0.245E+02   0.222E+01 -.701E+00 0.306E+01   0.214E-03 -.270E-03 -.252E-03
   0.546E+01 -.203E+02 0.203E+02   -.670E+01 0.197E+02 -.187E+02   0.146E+01 0.920E+00 -.270E+01   -.358E-03 0.128E-03 -.106E-03
   -.695E+02 0.346E+02 -.382E+02   0.681E+02 -.340E+02 0.357E+02   0.998E+00 -.179E+00 0.206E+01   0.125E-03 -.413E-04 0.344E-04
   0.105E+03 0.445E+02 -.158E+02   -.101E+03 -.448E+02 0.147E+02   -.366E+01 0.802E+00 0.957E+00   -.279E-04 0.295E-03 -.303E-04
   0.862E+02 -.650E+01 0.238E+01   -.834E+02 0.744E+01 -.247E+01   -.289E+01 0.428E+00 0.109E+01   -.196E-03 0.938E-04 -.725E-04
   0.333E+01 -.105E+03 -.212E+02   -.157E+01 0.105E+03 0.241E+02   -.930E+00 -.912E+00 -.413E+01   0.227E-03 -.253E-03 -.290E-03
   0.396E+01 -.490E+01 -.462E+01   -.495E+01 0.396E+01 0.260E+01   0.459E-01 0.682E+00 0.218E+01   -.648E-04 0.931E-04 0.129E-03
   0.419E+02 0.174E+02 0.119E+02   -.420E+02 -.191E+02 -.104E+02   0.705E+00 0.245E+01 -.136E+01   -.557E-03 0.499E-03 -.533E-03
   0.133E+02 -.406E+02 -.274E+02   -.117E+02 0.386E+02 0.259E+02   -.156E+01 0.179E+01 0.658E+00   0.917E-04 -.141E-03 -.244E-03
   -.102E+03 -.453E+02 0.512E+01   0.102E+03 0.444E+02 -.475E+01   0.686E+00 0.976E+00 -.929E+00   -.190E-03 0.262E-04 0.774E-04
   -.818E+02 -.474E+02 -.699E+01   0.811E+02 0.476E+02 0.759E+01   0.664E+00 -.388E+00 0.278E+00   0.838E-04 -.689E-04 -.180E-04
   0.216E+02 -.708E+02 0.122E+02   -.228E+02 0.693E+02 -.104E+02   0.137E+01 0.780E+00 -.152E+01   0.139E-03 -.188E-03 -.131E-03
   0.928E+02 -.566E+01 0.197E+02   -.905E+02 0.626E+01 -.183E+02   -.381E+01 -.355E+00 -.137E+01   -.128E-03 0.443E-04 -.593E-04
   0.153E+03 -.108E+01 0.191E+02   -.154E+03 0.140E+01 -.192E+02   0.933E+00 0.439E+00 0.494E+00   0.519E-03 -.120E-03 0.193E-03
   -.266E+02 -.211E+01 0.507E+00   0.278E+02 0.360E+01 0.543E+00   -.148E+01 -.213E+01 -.212E+01   0.198E-03 -.367E-04 0.833E-04
   -.294E+02 -.249E+02 0.733E+01   0.284E+02 0.252E+02 -.578E+01   0.202E+00 -.799E+00 -.323E+01   0.166E-03 0.209E-04 -.117E-04
   0.273E+02 -.150E+02 -.868E+01   -.280E+02 0.141E+02 0.820E+01   0.108E+01 0.878E+00 0.126E+01   -.388E-03 -.130E-03 -.197E-04
   -.251E+02 -.299E+02 -.273E+01   0.274E+02 0.284E+02 0.779E+00   -.215E+01 0.158E+01 0.274E+01   0.177E-03 0.106E-04 -.223E-05
   0.114E+03 0.211E+02 0.159E+02   -.113E+03 -.213E+02 -.135E+02   -.111E+01 -.101E+01 -.246E+01   -.225E-03 -.549E-03 0.507E-03
   0.135E+02 0.115E+03 -.689E+01   -.130E+02 -.117E+03 0.706E+01   -.189E+00 0.553E+00 -.683E+00   0.173E-03 0.542E-03 -.652E-04
   -.312E+02 0.430E+02 -.591E+01   0.303E+02 -.424E+02 0.859E+01   -.653E+00 -.206E+01 -.253E+01   0.221E-03 -.986E-04 -.134E-04
   -.183E+02 -.310E+02 0.667E+01   0.196E+02 0.279E+02 -.675E+01   -.722E+00 0.430E+01 0.298E+00   0.281E-03 0.213E-04 -.967E-04
   -.722E+02 0.915E+02 0.188E+02   0.703E+02 -.907E+02 -.199E+02   0.831E+00 -.553E+00 0.112E+01   0.242E-03 0.890E-04 -.142E-04
   -.931E+01 0.702E+00 0.189E+02   0.800E+01 0.690E+00 -.173E+02   0.161E+01 -.224E+01 -.450E+00   -.116E-03 0.811E-04 0.951E-05
   0.338E+02 0.822E+02 0.515E+01   -.347E+02 -.799E+02 -.565E+01   0.103E+01 -.170E+01 0.127E+01   0.978E-04 0.191E-03 -.383E-03
   -.363E+02 -.101E+03 0.283E+02   0.366E+02 0.101E+03 -.292E+02   0.463E+00 0.154E+01 0.296E+00   0.150E-03 -.260E-03 0.238E-03
   -.515E+01 0.716E+01 0.183E+02   0.532E+01 -.736E+01 -.185E+02   0.534E+00 -.104E+01 0.189E+00   -.255E-03 0.759E-04 -.153E-03
   0.391E+02 0.112E+02 -.729E+01   -.397E+02 -.118E+02 0.612E+01   0.112E+01 0.123E+01 0.680E+00   -.333E-03 -.978E-05 -.424E-04
 -----------------------------------------------------------------------------------------------
   0.188E+02 0.330E+01 0.760E+01   -.490E-12 0.249E-13 -.169E-13   -.188E+02 -.331E+01 -.759E+01   -.296E-02 -.250E-03 -.101E-02


 POSITION                                       TOTAL-FORCE (eV/Angst)
 -----------------------------------------------------------------------------------
     10.68920      1.60923      2.27336        -0.236970      0.181954     -0.390359
     10.89920      4.66818      1.08988         0.410597      0.166280     -0.404739
     13.35040      2.18271      8.30747        -0.861936     -0.993035      0.920170
     11.10160      4.82705      5.75198        -0.206152      0.131908     -0.139003
     10.91710      6.17892      3.40524        -0.094877      0.313135     -0.412402
     12.88710      7.59786      5.08986        -0.636524     -0.763502      0.091030
     13.61380      1.87158      2.34899        -0.182698      1.295013      0.633031
      0.65360      3.62800      0.05754         0.252816      0.125669     -0.040089
      9.46466      4.34728      1.25163         1.121088      0.444782      0.886936
      5.25488     13.18470      9.34769        -0.512792      0.193346      0.344133
      4.74602      6.17233      1.31412        -0.793691     -0.728100     -0.158559
      8.73247      2.69406      7.50998        -0.284421     -1.337146      1.483533
      6.86870      0.38928      5.85203        -0.432132     -1.566673     -0.030391
      6.56925     10.48370      6.24551         0.061098      1.173740      0.215894
     11.69360     10.21600      1.50202         0.792685     -0.703195     -0.032969
      7.80902     10.58790      0.66307         0.634896      0.745561     -1.837077
      0.27092      9.36412      8.78702         0.195090      0.589972      0.231463
      7.48030      1.96174      4.34706         0.258922      0.391605     -0.575824
      5.73839      7.04534      3.06539         0.825491      0.770041      1.044733
      7.57220     13.57060      2.14871         0.548250      0.579453     -0.717321
     12.72680     10.06650      7.26789         0.197313     -0.705378      1.240169
      3.35915      0.64025      4.06422        -0.368645     -0.023174      0.376729
      4.85989      2.99147      6.75658         0.150338     -0.209036      0.502022
      6.03263     10.40990      3.96958        -0.436617      0.167810      0.335640
      5.75381     12.58090      3.09572        -0.742636     -0.557781      0.478895
      4.22518      8.21268      0.34647        -1.313579      0.022530     -0.817575
      3.54318      8.85564      6.90504        -0.254244     -0.968557      0.152571
      2.93928     11.14080      6.85661         0.579034      0.320418      0.262902
     12.21460     12.68280      4.41436         0.225696      0.466860      0.473093
      9.49426      2.19256      5.39642         0.310438     -0.380686     -0.704423
      4.14828     12.26300      1.38153        -0.365264     -0.426961     -0.316491
      0.62145      9.29254      4.59717         0.544677      0.851141     -0.560598
     13.96500     10.62810      0.66989        -0.163572     -0.871371     -0.638253
     13.38550     12.10690      6.43569         0.733969      0.929218     -0.557338
      8.24718      5.34222      9.66642        -0.570046      0.681909      0.553495
     13.22590     13.37220      2.32318        -0.359951     -1.244266      0.542202
      9.48813      5.78903      3.22207         0.034891     -1.079367      0.912970
      3.15951      4.65352      2.22088        -0.326316     -0.585239      0.072725
      5.63139      2.42586      1.16625         1.151645     -0.655618     -0.520460
      5.95773      4.62553      0.20772         0.729572     -0.412205     -1.648081
      8.87655     11.01530      6.32870        -0.525292      0.831735      1.402380
     11.76740     10.31500      3.83991        -0.509479      0.587174     -0.504394
      5.95563      8.57292      7.33223        -0.405877     -0.235096      0.343205
      7.62360      1.38722      2.08522        -0.906771     -0.369526      0.300880
      6.56833      1.71430      7.72647        -1.106404     -0.608617      0.511170
      6.54602      6.25840      6.84980        -1.779830      0.126830     -0.281450
      1.02833     11.51010      5.47399        -0.300011     -0.040904     -0.062997
     10.95640     12.45070      8.99574         0.235645     -0.100694      0.906109
     13.01670     13.41570      8.37667        -0.342997     -0.154609     -0.284854
      2.66511      5.34329      8.33036        -0.515066      0.453343     -0.960448
      2.47082     13.75090      2.22051        -0.566342      0.460254      0.198405
      5.02146     13.75220      4.98957         0.393664      0.224381      0.859416
     10.29480     14.29290      4.80899         0.707247      0.444436      1.341554
     10.14500      1.36570      9.17389        -0.282499      0.815118     -0.863778
      4.99146     12.35400      7.06383        -0.394606     -0.777482     -1.057424
     10.43010     10.29360      8.15985         0.714563      0.602729     -0.994857
      9.66739      4.51826      5.38133         1.305172      1.198644     -0.426021
      4.84401      1.02119      9.50006         1.856613     -0.567535     -0.703410
      2.71152      2.13548      6.36878         0.218566     -0.545037      0.230704
      0.25287     12.75080      9.70509         0.697325     -0.459727      0.287660
      9.48876     10.67230      4.19132         1.810214      1.440100      0.191206
      8.29623      7.58428      0.43923        -0.838663     -0.012304     -0.819839
      2.51740      7.94998      4.92781         0.697083      0.571474      0.443078
      5.50432      5.61321      4.81120        -0.410297      0.127368      0.222127
      2.14950      3.80155      9.98065        -0.253197      0.028478      0.701310
      5.63393      3.31602      4.67561         0.283431      0.403452     -1.267619
      8.01877      7.53458      2.75685        -0.385910      0.363939     -0.431860
      2.44965      7.70769      8.70490        -0.032352      0.618215     -0.121078
      4.22162      2.51969      2.92086        -0.140246      1.422437      1.076976
     13.55810      0.89870      1.31733         0.826990     -0.811605     -1.440231
      1.86039     11.15430      8.88069        -1.102609     -0.256947      0.170845
      3.16108      9.88024      1.61811         0.596421      0.868120      0.078843
      0.84761     12.31540      3.20983        -0.019548     -0.113207     -0.775976
      8.40828      4.99345      7.38793         0.635754      0.053962     -0.592958
      9.64597      2.05960      1.25445         0.002166     -0.209182      0.928086
      1.22138      0.34188      0.45750         0.136596     -0.768443      0.199605
      2.74745      1.66159      8.90932        -1.602137      0.241555      0.031433
      1.87503      4.32126      6.16667         0.406720      0.767332      0.491776
      8.77284     13.52610      6.41161        -0.375713     -0.743039     -1.167191
      9.56950     12.90000      3.23288        -0.730506     -0.539696     -1.842277
      4.93975      4.95219      8.01999         0.366954      0.000009      0.851825
      9.21987     13.86680      8.56958         0.042441      0.072516      0.939238
      3.03357      5.71485      4.58650        -0.205067     -1.249339     -0.216417
     12.97860      9.03067      5.28890         0.338575     -0.621077     -0.588526
      7.98044      9.91167      2.83043        -1.506255     -1.540613      0.030336
     11.09370     12.36430      1.36582         0.612333      1.423057      0.255650
      9.93703      9.28044      0.13464        -1.000219      0.315493      0.163040
      7.49427     12.97800      9.89015         0.377234     -0.991378      1.205805
      0.92536     10.05680      2.30311         0.144905      0.621163      0.862901
     12.52730      1.07327      9.14284         0.780547      1.003355     -0.598784
      6.31465      9.08123      9.66051         0.749402     -1.384815      0.001871
      4.22795      8.84832      3.56440         0.685887      0.683147     -0.477434
 -----------------------------------------------------------------------------------
    total drift:                               -0.007493     -0.011700      0.007482


--------------------------------------------------------------------------------------------------------



  FREE ENERGIE OF THE ION-ELECTRON SYSTEM (eV)
  ---------------------------------------------------
  free  energy   TOTEN  =      -838.21489582 eV

  energy  without entropy=     -838.11448944  energy(sigma->0) =     -838.16469263



--------------------------------------------------------------------------------------------------------


    POTLOK:  cpu time      1.9900: real time      1.9922


--------------------------------------------------------------------------------------------------------


     LOOP+:  cpu time   1741.5031: real time   1743.3212
    4ORBIT:  cpu time      0.0000: real time      0.0000



 total charge

# of ion       s       p       d       tot
------------------------------------------
    1        0.550   0.014   0.000   0.564
    2        0.576   0.016   0.000   0.592
    3        0.514   0.011   0.000   0.525
    4        0.563   0.014   0.000   0.577
    5        0.563   0.016   0.000   0.579
    6        0.581   0.017   0.000   0.599
    7        0.595   0.019   0.000   0.614
    8        0.559   0.014   0.000   0.573
    9        0.744   1.003   0.000   1.747
   10        0.748   0.884   0.000   1.632
   11        0.754   1.015   0.000   1.770
   12        0.768   0.895   0.000   1.663
   13        0.760   0.956   0.000   1.716
   14        0.754   0.920   0.000   1.675
   15        0.750   0.945   0.000   1.695
   16        0.759   0.881   0.000   1.641
   17        0.772   0.810   0.000   1.582
   18        0.754   1.004   0.000   1.758
   19        0.758   1.000   0.000   1.758
   20        0.750   0.961   0.000   1.711
   21        0.762   0.906   0.000   1.668
   22        0.764   0.827   0.000   1.590
   23        0.760   0.975   0.000   1.735
   24        0.757   0.947   0.000   1.704
   25        0.750   0.970   0.000   1.720
   26        0.753   0.904   0.000   1.658
   27        0.757   0.897   0.000   1.655
   28        0.751   0.934   0.000   1.684
   29        0.762   0.852   0.000   1.615
   30        0.758   0.927   0.000   1.685
   31        0.759   0.852   0.000   1.611
   32        0.752   0.929   0.000   1.681
   33        0.770   0.857   0.000   1.628
   34        0.758   0.913   0.000   1.670
   35        0.749   0.946   0.000   1.695
   36        0.750   0.871   0.000   1.622
   37        0.741   0.927   0.000   1.668
   38        0.760   0.823   0.000   1.584
   39        0.749   0.935   0.000   1.684
   40        0.753   0.919   0.000   1.672
   41        0.750   0.913   0.000   1.664
   42        0.756   0.942   0.000   1.698
   43        0.748   0.902   0.000   1.650
   44        0.748   0.962   0.000   1.710
   45        0.762   0.922   0.000   1.684
   46        0.749   0.926   0.000   1.676
   47        0.760   0.885   0.000   1.645
   48        0.758   0.949   0.000   1.708
   49        0.746   0.950   0.000   1.696
   50        0.752   0.918   0.000   1.671
   51        0.753   0.886   0.000   1.639
   52        0.747   0.922   0.000   1.670
   53        0.760   0.893   0.000   1.653
   54        0.749   0.931   0.000   1.679
   55        0.754   0.851   0.000   1.604
   56        0.747   0.899   0.000   1.646
   57        0.754   0.907   0.000   1.661
   58        0.752   0.914   0.000   1.666
   59        0.772   0.827   0.000   1.598
   60        0.755   0.887   0.000   1.642
   61        0.761   0.995   0.000   1.756
   62        0.761   0.886   0.000   1.647
   63        0.750   0.936   0.000   1.686
   64        0.759   0.936   0.000   1.695
   65        0.746   0.905   0.000   1.651
   66        0.756   0.987   0.000   1.742
   67        0.748   0.961   0.000   1.709
   68        0.767   0.834   0.000   1.601
   69        0.751   0.947   0.000   1.697
   70        0.740   0.965   0.000   1.706
   71        0.793   0.853   0.000   1.646
   72        0.752   0.879   0.000   1.631
   73        0.772   0.862   0.000   1.634
   74        0.742   0.954   0.000   1.697
   75        0.740   1.009   0.000   1.748
   76        0.761   0.853   0.000   1.614
   77        0.762   0.856   0.000   1.618
   78        0.797   0.820   0.000   1.617
   79        0.756   0.937   0.000   1.693
   80        0.762   0.927   0.000   1.688
   81        0.758   0.925   0.000   1.682
   82        0.750   1.002   0.000   1.752
   83        0.761   0.858   0.000   1.619
   84        0.744   1.034   0.000   1.778
   85        0.758   1.003   0.000   1.761
   86        0.766   0.906   0.000   1.672
   87        0.754   0.891   0.000   1.645
   88        0.751   0.923   0.000   1.675
   89        0.756   0.933   0.000   1.689
   90        0.736   0.898   0.000   1.634
   91        0.751   0.896   0.000   1.646
   92        0.761   0.897   0.000   1.659
--------------------------------------------------
tot         67.980  77.164   0.000 145.145


 total amount of memory used by VASP MPI-rank0   178969. kBytes
=======================================================================

   base                                    :      30000. kBytes
   nonl-proj                               :      31309. kBytes
   fftplans                                :      40938. kBytes
   grid                                    :      31575. kBytes
   one-center                              :         18. kBytes
   wavefun                                 :      45129. kBytes

  
  
 General timing and accounting informations for this job:
 ========================================================
  
                  Total CPU time used (sec):     1807.177
                            User time (sec):     1800.687
                          System time (sec):        6.491
                         Elapsed time (sec):     1809.109
  
                   Maximum memory used (kb):      344008.
                   Average memory used (kb):          N/A
  
                          Minor page faults:       245031
                          Major page faults:         1151
                 Voluntary context switches:         2615
