 vasp.6.5.0 16Dec24 (build Jan 20 2025 08:32:48) complex                         
 executed on        HPECrayEX_GCC date 2025.07.21  17:33:20
 running  128 mpi-ranks, with    1 threads/rank, on    1 nodes
 distrk:  each k-point on  128 cores,    1 groups
 distr:  one band on NCORE=  16 cores,    8 groups


--------------------------------------------------------------------------------------------------------


 INCAR:
   SYSTEM = a-Si SPC
   NCORE = 16
   ISTART = 1
   ICHARG = 1
   ISPIN = 1
   ISYM = 1
   EDIFF = 1E-6
   NELM = 150
   EDIFFG = -0.01
   NSW = 0
   ISIF = 2
   IBRION = -1
   PREC = Accurate
   ENCUT = 1200
   KSPACING = 0.23
   KGAMMA = .TRUE.
   METAGGA = SCAN
   LASPH = .TRUE.
   LDIAG = .FALSE.
   LMIXTAU = .TRUE.
   ADDGRID = .TRUE.
   ALGO = Normal
   ISMEAR = 0
   SIGMA = 0.1
   LORBIT = 11
   NEDOS = 2000
   LWAVE = .FALSE.
   LCHARG = .FALSE.

 POTCAR:    PAW_PBE H 15Jun2001                   
 POTCAR:    PAW_PBE Si 05Jan2001                  
 POTCAR:    PAW_PBE H 15Jun2001                   
   SHA256 =  030f79b5d3ab3cf0e668861823c8fb652ff669f3e15e46930bd03bfd63a607b6 H/POTCAR              
   COPYR  = (c) Copyright 15Jun2001 Georg Kresse                                                    
   COPYR  = This file is part of the software VASP. Any use, copying, and all other rights are regul
   COPYR  = If you do not have a valid VASP license, you may not use, copy or distribute this file. 
   VRHFIN =H: ultrasoft test                                                                        
   LEXCH  = PE                                                                                      
   EATOM  =    12.4884 eV,    0.9179 Ry                                                             
                                                                                                    
   TITEL  = PAW_PBE H 15Jun2001                                                                     
   LULTRA =        F    use ultrasoft PP ?                                                          
   IUNSCR =        0    unscreen: 0-lin 1-nonlin 2-no                                               
   RPACOR =    0.000    partial core radius                                                         
   POMASS =    1.000; ZVAL   =    1.000    mass and valenz                                          
   RCORE  =    1.100    outmost cutoff radius                                                       
   RWIGS  =    0.700; RWIGS  =    0.370    wigner-seitz radius (au A)                               
   ENMAX  =  250.000; ENMIN  =  200.000 eV                                                          
   RCLOC  =    0.701    cutoff for local pot                                                        
   LCOR   =        T    correct aug charges                                                         
   LPAW   =        T    paw PP                                                                      
   EAUG   =  400.000                                                                                
   RMAX   =    1.123    core radius for proj-oper                                                   
   RAUG   =    1.200    factor for augmentation sphere                                              
   RDEP   =    1.112    radius for radial grids                                                     
   RDEPT  =    0.926    core radius for aug-charge                                                  
                                                                                                    
   Atomic configuration                                                                             
    2 entries                                                                                       
     n  l   j            E        occ.                                                              
     1  0  0.50        -6.4927   1.0000                                                             
     2  1  0.50        -3.4015   0.0000                                                             
   Description                                                                                      
     l       E           TYP  RCUT    TYP  RCUT                                                     
     0     -6.4927494     23  1.100                                                                 
     0      6.8029130     23  1.100                                                                 
     1     -4.0817478     23  1.100                                                                 
  local pseudopotential read in
  atomic valenz-charges read in
  non local Contribution for L=           0  read in
    real space projection operators read in
  non local Contribution for L=           0  read in
    real space projection operators read in
  non local Contribution for L=           1  read in
    real space projection operators read in
    PAW grid and wavefunctions read in

   number of l-projection  operators is LMAX  =           3
   number of lm-projection operators is LMMAX =           5

 POTCAR:    PAW_PBE Si 05Jan2001                  
   SHA256 =  79d9987ad8750f624c4d6acb2a16d13abf6a777132adc04dc6c8399be72b42bb Si/POTCAR             
   COPYR  = (c) Copyright 05Jan2001 Georg Kresse                                                    
   COPYR  = This file is part of the software VASP. Any use, copying, and all other rights are regul
   COPYR  = If you do not have a valid VASP license, you may not use, copy or distribute this file. 
   VRHFIN =Si: s2p2                                                                                 
   LEXCH  = PE                                                                                      
   EATOM  =   103.0669 eV,    7.5752 Ry                                                             
                                                                                                    
   TITEL  = PAW_PBE Si 05Jan2001                                                                    
   LULTRA =        F    use ultrasoft PP ?                                                          
   IUNSCR =        1    unscreen: 0-lin 1-nonlin 2-no                                               
   RPACOR =    1.500    partial core radius                                                         
   POMASS =   28.085; ZVAL   =    4.000    mass and valenz                                          
   RCORE  =    1.900    outmost cutoff radius                                                       
   RWIGS  =    2.480; RWIGS  =    1.312    wigner-seitz radius (au A)                               
   ENMAX  =  245.345; ENMIN  =  184.009 eV                                                          
   ICORE  =        2    local potential                                                             
   LCOR   =        T    correct aug charges                                                         
   LPAW   =        T    paw PP                                                                      
   EAUG   =  322.069                                                                                
   DEXC   =    0.000                                                                                
   RMAX   =    1.950    core radius for proj-oper                                                   
   RAUG   =    1.300    factor for augmentation sphere                                              
   RDEP   =    1.993    radius for radial grids                                                     
   RDEPT  =    1.837    core radius for aug-charge                                                  
                                                                                                    
   Atomic configuration                                                                             
    6 entries                                                                                       
     n  l   j            E        occ.                                                              
     1  0  0.50     -1785.8828   2.0000                                                             
     2  0  0.50      -139.4969   2.0000                                                             
     2  1  1.50       -95.5546   6.0000                                                             
     3  0  0.50       -10.8127   2.0000                                                             
     3  1  0.50        -4.0811   2.0000                                                             
     3  2  1.50        -4.0817   0.0000                                                             
   Description                                                                                      
     l       E           TYP  RCUT    TYP  RCUT                                                     
     0    -10.8127223     23  1.900                                                                 
     0     -7.6451159     23  1.900                                                                 
     1     -4.0811372     23  1.900                                                                 
     1      2.4879257     23  1.900                                                                 
     2     -4.0817478      7  1.900                                                                 
  local pseudopotential read in
  partial core-charges read in
  partial kinetic energy density read in
  atomic valenz-charges read in
  non local Contribution for L=           0  read in
    real space projection operators read in
  non local Contribution for L=           0  read in
    real space projection operators read in
  non local Contribution for L=           1  read in
    real space projection operators read in
  non local Contribution for L=           1  read in
    real space projection operators read in
    PAW grid and wavefunctions read in

   number of l-projection  operators is LMAX  =           4
   number of lm-projection operators is LMMAX =           8

 -----------------------------------------------------------------------------
|                                                                             |
|               ----> ADVICE to this user running VASP <----                  |
|                                                                             |
|     You have a (more or less) 'large supercell' and for larger cells it     |
|     might be more efficient to use real-space projection operators.         |
|     Therefore, try LREAL= Auto in the INCAR file.                           |
|     Mind: For very accurate calculation, you might also keep the            |
|     reciprocal projection scheme (i.e. LREAL=.FALSE.).                      |
|                                                                             |
 -----------------------------------------------------------------------------

 -----------------------------------------------------------------------------
|                                                                             |
|               ----> ADVICE to this user running VASP <----                  |
|                                                                             |
|     You enforced a specific xc type in the INCAR file but a different       |
|     type was found in the POTCAR file.                                      |
|     I HOPE YOU KNOW WHAT YOU ARE DOING!                                     |
|                                                                             |
 -----------------------------------------------------------------------------

  PAW_PBE H 15Jun2001                   :
 energy of atom  1       EATOM=  -12.4884
 kinetic energy error for atom=    0.0000 (will be added to EATOM!!)
  PAW_PBE Si 05Jan2001                  :
 energy of atom  2       EATOM= -103.0669
 kinetic energy error for atom=    0.0001 (will be added to EATOM!!)


 POSCAR:  H Si
  positions in cartesian coordinates
  No initial velocities read in


 exchange-correlation table for SCAN
   RHO(1)=    0.500       N(1)  =     2000
   RHO(2)=  100.500       N(2)  =     4000



--------------------------------------------------------------------------------------------------------


 ion  position               nearest neighbor table
   1  0.721  0.200  0.504-  72 1.51
   2  0.769  0.409  0.531-  12 0.72
   3  0.563  0.654  0.559- 127 1.48
   4  0.729  0.373  0.611- 104 1.46
   5  0.604  0.214  0.483-   8 0.74
   6  0.746  0.008  0.631-  98 1.88
   7  0.781  0.279  0.420- 106 1.41
   8  0.579  0.258  0.485-   5 0.74
   9  0.516  0.391  0.342- 111 1.55
  10  0.551  0.395  0.650-
  11  0.836  0.303  0.481-  26 0.77
  12  0.806  0.386  0.543-   2 0.72
  13  0.507  0.262  0.639-  19 0.74
  14  0.712  0.357  0.486-  20 0.78
  15  0.807  0.358  0.649-
  16  0.633  0.485  0.360-  24 0.77
  17  0.744  0.485  0.592-  89 1.47
  18  0.682  0.493  0.439-  88 1.45
  19  0.468  0.242  0.652-  13 0.74
  20  0.697  0.306  0.485-  14 0.78
  21  0.617  0.940  0.511- 110 1.52
  22  0.788  0.410  0.367- 106 1.40
  23  0.884  0.508  0.549-  34 0.73
  24  0.602  0.472  0.380-  16 0.77
  25  0.780  0.181  0.571- 126 1.45
  26  0.871  0.264  0.480-  11 0.77
  27  0.006  0.290  0.478- 102 1.45
  28  0.762  0.512  0.386-  37 0.68
  29  0.640  0.236  0.360-  63 1.43
  30  0.896  0.387  0.599-  90 1.53
  31  0.694  0.248  0.649-
  32  0.585  0.320  0.414- 111 1.50
  33  0.030  0.918  0.491-  83 1.52
  34  0.920  0.523  0.533-  23 0.73
  35  0.579  0.316  0.606- 104 1.52
  36  0.676  0.242  0.556- 104 1.46
  37  0.763  0.555  0.376-  28 0.68
  38  0.906  0.524  0.359-
  39  0.121  0.042  0.630-  78 2.28  69 2.29
  40  0.919  0.813  0.406- 101 2.17  95 2.26  83 2.29  79 2.31
  41  0.430  0.926  0.386- 129 2.29 124 2.38  43 2.38  96 2.52
  42  0.349  0.980  0.623-  69 2.27 117 2.30  82 2.37 134 3.02
  43  0.490  0.076  0.399- 115 2.26  81 2.33  41 2.38  60 2.38
  44  0.272  0.315  0.452- 116 2.26  70 2.26  74 2.34  86 2.38
  45  0.573  0.084  0.654- 100 2.32
  46  0.108  0.454  0.525- 121 2.22 102 2.22 103 2.25  86 2.30
  47  0.163  0.222  0.545- 125 2.31  93 2.33 134 2.35  86 2.38
  48  0.156  0.411  0.646- 121 2.31 130 2.35 125 2.42
  49  0.154  0.877  0.555-  55 2.36  78 2.37  65 2.38  82 2.39
  50  0.460  0.358  0.522-  70 2.31 112 2.34 109 2.34  62 2.41
  51  0.929  0.768  0.584-  87 2.24 119 2.30 132 2.42  55 2.43 105 2.92
  52  0.190  0.045  0.461-  65 2.24 107 2.28  93 2.36  74 2.39  75 3.15
  53  0.467  0.753  0.625-  77 2.26 113 2.30  61 2.41
  54  0.539  0.760  0.492-  59 2.30  71 2.32 124 2.42  77 2.44 123 3.09
  55  0.077  0.734  0.549- 114 2.28 133 2.33  49 2.36  51 2.43
  56  0.937  0.268  0.375-  67 2.26 106 2.28 120 2.34
  57  0.291  0.751  0.443-  64 2.25 128 2.31 124 2.46  68 2.48
  58  0.862  0.028  0.472- 131 2.24  72 2.28  76 2.34 105 2.39 101 3.03
  59  0.541  0.620  0.456-  54 2.30 123 2.32  99 2.36  88 2.38
  60  0.425  0.120  0.470-  62 2.32  85 2.32  43 2.38  74 2.39
  61  0.498  0.599  0.650- 127 2.33  53 2.41 113 3.15
  62  0.455  0.196  0.538-  60 2.32 100 2.37  50 2.41 134 2.57
  63  0.689  0.152  0.359-  29 1.43  67 2.27 115 2.32
  64  0.303  0.615  0.479-  57 2.25 118 2.27  99 2.33 103 2.40
  65  0.252  0.994  0.526-  52 2.24  85 2.30  49 2.38 134 2.41
  66  0.099  0.676  0.366- 128 2.29  95 2.33
  67  0.845  0.151  0.355-  56 2.26  63 2.27 131 2.30
  68  0.344  0.715  0.364- 108 2.28  96 2.29  57 2.48
  69  0.263  0.108  0.634- 134 2.24  42 2.27  39 2.29
  70  0.410  0.384  0.448-  99 2.26  44 2.26  50 2.31 111 2.32
  71  0.651  0.817  0.444-  84 2.24 123 2.29  54 2.32  79 2.43
  72  0.729  0.108  0.480-   1 1.51 115 2.15  58 2.28 110 2.30
  73  0.921  0.450  0.446- 102 2.27  80 2.29 106 2.33  94 2.57
  74  0.288  0.161  0.430-  44 2.34  91 2.35  52 2.39  60 2.39
  75  0.068  0.076  0.374- 120 2.32 131 2.34 107 2.35  52 3.15
  76  0.958  0.095  0.527-  58 2.34  78 2.36  93 2.36 126 2.47
  77  0.546  0.825  0.569-  53 2.26  97 2.35 117 2.36  54 2.44
  78  0.037  0.985  0.571-  87 2.20  39 2.28  76 2.36  49 2.37
  79  0.811  0.785  0.462- 105 2.21  92 2.29  40 2.31  71 2.43  80 2.97 101 3.08
  80  0.905  0.606  0.451-  73 2.29  92 2.31  95 2.38 133 2.41  79 2.97
  81  0.446  0.196  0.351-  91 2.30  43 2.33 111 2.44
  82  0.258  0.846  0.616-  42 2.37  49 2.39 113 2.51
  83  0.039  0.884  0.442-  33 1.52  40 2.29 107 2.30 128 2.37
  84  0.676  0.937  0.398-  71 2.24 101 2.30 115 2.32
  85  0.402  0.976  0.503- 124 2.20 117 2.28  65 2.30  60 2.32
  86  0.237  0.362  0.527- 112 2.30  46 2.30  44 2.38  47 2.38
  87  0.923  0.915  0.606-  78 2.20  51 2.24  98 2.33 105 2.93
  88  0.665  0.531  0.484-  18 1.45 109 2.30  59 2.38  92 2.42
  89  0.792  0.560  0.615-  17 1.47 122 2.36 119 2.37
  90  0.947  0.313  0.572-  30 1.53 102 2.23 126 2.32 125 2.32
  91  0.289  0.187  0.351-  81 2.30  74 2.35 116 3.15
  92  0.781  0.647  0.496- 119 2.28  79 2.29  80 2.31  88 2.42
  93  0.082  0.156  0.484-  47 2.33 120 2.33  76 2.36  52 2.36
  94  0.081  0.470  0.410- 116 2.30 103 2.32  73 2.57
  95  0.941  0.670  0.379-  40 2.26  66 2.33  80 2.38
  96  0.487  0.775  0.356-  68 2.29 123 2.33  41 2.52
  97  0.696  0.813  0.598-  77 2.35  98 2.37 119 2.37
  98  0.778  0.946  0.577-   6 1.88 110 2.24 105 2.33  87 2.33  97 2.37
  99  0.410  0.537  0.434-  70 2.26  64 2.33  59 2.36 108 2.43
 100  0.561  0.099  0.576- 110 2.28  45 2.32 117 2.33  62 2.37
 101  0.831  0.924  0.384-  40 2.17  84 2.30 131 2.30  58 3.03  79 3.08
 102  0.987  0.372  0.505-  27 1.45  46 2.22  90 2.23  73 2.27
 103  0.154  0.548  0.469-  46 2.25 133 2.31  94 2.32  64 2.40
 104  0.666  0.330  0.579-  36 1.46   4 1.46  35 1.52 109 2.32
 105  0.854  0.887  0.513-  79 2.21  98 2.33  58 2.39  51 2.92  87 2.93
 106  0.822  0.359  0.403-  22 1.40   7 1.41  56 2.28  73 2.33
 107  0.155  0.952  0.401-  52 2.28  83 2.30  75 2.35 129 2.38 128 3.05
 108  0.342  0.559  0.359-  68 2.28  99 2.43
 109  0.591  0.445  0.539- 127 2.27  88 2.30 104 2.32  50 2.34
 110  0.667  0.016  0.537-  21 1.52  98 2.24 100 2.28  72 2.30
 111  0.500  0.338  0.387-  32 1.50   9 1.55  70 2.32  81 2.44
 112  0.353  0.430  0.569-  86 2.30  50 2.34 118 2.36 130 2.37
 113  0.329  0.692  0.602- 118 2.29  53 2.30 114 2.44  82 2.51  61 3.15
 114  0.166  0.652  0.599- 121 2.28  55 2.28 113 2.44
 115  0.635  0.082  0.425-  72 2.15  43 2.26  63 2.32  84 2.32
 116  0.166  0.339  0.396-  44 2.26 120 2.30  94 2.30  91 3.15
 117  0.470  0.968  0.573-  85 2.28  42 2.30 100 2.33  77 2.36
 118  0.368  0.586  0.548-  64 2.27 113 2.29 112 2.36 127 2.37
 119  0.792  0.695  0.570-  92 2.28  51 2.30  97 2.37  89 2.37
 120  0.071  0.216  0.411- 116 2.30  75 2.32  93 2.33  56 2.34
 121  0.095  0.514  0.594-  46 2.22 114 2.28  48 2.31 122 2.48
 122  0.949  0.545  0.635- 132 2.36  89 2.36 121 2.48
 123  0.605  0.703  0.396-  71 2.29  59 2.32  96 2.33  54 3.09
 124  0.420  0.855  0.459-  85 2.20  41 2.38  54 2.42  57 2.46
 125  0.086  0.282  0.607-  47 2.31  90 2.32  48 2.42
 126  0.874  0.176  0.588-  25 1.45  90 2.32  76 2.47
 127  0.521  0.566  0.573-   3 1.48 109 2.27  61 2.33 118 2.37
 128  0.134  0.753  0.431- 133 2.27  66 2.29  57 2.31  83 2.37 107 3.05
 129  0.287  0.933  0.354-  41 2.29 107 2.38
 130  0.316  0.427  0.648-  48 2.35 112 2.37
 131  0.920  0.049  0.402-  58 2.24  67 2.30 101 2.30  75 2.34
 132  0.952  0.700  0.658- 122 2.36  51 2.42
 133  0.049  0.665  0.479- 128 2.27 103 2.31  55 2.33  80 2.41
 134  0.296  0.137  0.561-  69 2.24  47 2.35  65 2.41  62 2.57  42 3.02

  LATTYP: Found a simple tetragonal cell.
 ALAT       =    14.5848868249
 C/A-ratio  =     2.0077039576
  
  Lattice vectors:
  
 A1 = (  14.5848868249,   0.0000000000,   0.0000000000)
 A2 = (   0.0000000000,  14.5848868249,   0.0000000000)
 A3 = (   0.0000000000,   0.0000000000,  29.2821350000)


Analysis of symmetry for initial positions (statically):
=====================================================================
 Subroutine PRICEL returns:
 Original cell was already a primitive cell.
 

 Routine SETGRP: Setting up the symmetry group for a 
 simple tetragonal supercell.


 Subroutine GETGRP returns: Found  1 space group operations
 (whereof  1 operations were pure point group operations)
 out of a pool of 16 trial point group operations.


The static configuration has the point symmetry C_1 .


Analysis of symmetry for dynamics (positions and initial velocities):
=====================================================================
 Subroutine PRICEL returns:
 Original cell was already a primitive cell.
 

 Routine SETGRP: Setting up the symmetry group for a 
 simple tetragonal supercell.


 Subroutine GETGRP returns: Found  1 space group operations
 (whereof  1 operations were pure point group operations)
 out of a pool of 16 trial point group operations.


The dynamic configuration has the point symmetry C_1 .


 Subroutine INISYM returns: Found  1 space group operations
 (whereof  1 operations are pure point group operations),
 and found     1 'primitive' translations


----------------------------------------------------------------------------------------

                                     Primitive cell                                     

  volume of cell :    6228.8642

  direct lattice vectors                    reciprocal lattice vectors
    14.584886825  0.000000000  0.000000000     0.068564125  0.000000000  0.000000000
     0.000000000 14.584886825  0.000000000     0.000000000  0.068564125  0.000000000
     0.000000000  0.000000000 29.282135000     0.000000000  0.000000000  0.034150515

  length of vectors
    14.584886825 14.584886825 29.282135000     0.068564125  0.068564125  0.034150515

  position of ions in fractional coordinates (direct lattice)
     0.721136895  0.199880193  0.503764326
     0.769159208  0.408959636  0.530739818
     0.562699601  0.654169629  0.559433422
     0.729446867  0.372951128  0.611316934
     0.604368077  0.214346538  0.482898020
     0.746121662  0.007791696  0.630693254
     0.780945381  0.278792016  0.420368426
     0.578800515  0.258028056  0.484827524
     0.516289231  0.390636559  0.341505153
     0.551362523  0.394570083  0.649933654
     0.835604701  0.303108283  0.480652965
     0.806101558  0.386382155  0.542696938
     0.507074898  0.262023288  0.638652714
     0.711867025  0.357097732  0.485574395
     0.806896902  0.358347656  0.649195320
     0.633290482  0.484813498  0.359927615
     0.743817908  0.484980794  0.591713173
     0.681877077  0.493464919  0.439210290
     0.468369764  0.242432461  0.651557511
     0.696700641  0.305668467  0.485191227
     0.617471367  0.939938730  0.511033605
     0.787609814  0.410457762  0.367048748
     0.883572163  0.507519194  0.549053373
     0.602159626  0.471533998  0.379951564
     0.780376299  0.180577335  0.570961612
     0.871148344  0.264348983  0.479622302
     0.006415106  0.289688227  0.478250817
     0.762220519  0.512430442  0.386127753
     0.639825328  0.236038856  0.359757169
     0.895968557  0.387272117  0.599254972
     0.694054066  0.248025236  0.648547143
     0.584830044  0.320014825  0.414311149
     0.030319056  0.917710241  0.490704486
     0.919986570  0.522782939  0.533475274
     0.578622248  0.315754250  0.606450486
     0.676119748  0.242075241  0.556251277
     0.762679898  0.554700225  0.375983923
     0.905505827  0.524132281  0.359350949
     0.120964943  0.042144105  0.629779044
     0.918958108  0.813499628  0.406103073
     0.429996480  0.926294469  0.386411544
     0.348938601  0.979891046  0.622814388
     0.490015458  0.075912142  0.398819451
     0.271614038  0.314505012  0.451529064
     0.572961594  0.083624920  0.654441181
     0.108406738  0.453877365  0.524894616
     0.162531943  0.221764491  0.544874375
     0.156159594  0.411065925  0.645904576
     0.153607637  0.876702038  0.554692306
     0.460432095  0.357771717  0.521526350
     0.929139880  0.768007331  0.584221233
     0.189834178  0.044798291  0.460869230
     0.466779762  0.752662680  0.624909864
     0.538913335  0.759841344  0.492255944
     0.076907693  0.734280638  0.549445080
     0.937285298  0.268357927  0.375316042
     0.290804451  0.751311966  0.442921085
     0.862495551  0.028148384  0.471698700
     0.541164981  0.619923220  0.455842957
     0.424647107  0.119622457  0.470089527
     0.498374111  0.598653257  0.649709285
     0.455324068  0.196161961  0.537833563
     0.689473982  0.151558255  0.359371508
     0.303056860  0.615427470  0.478734389
     0.252322150  0.993549019  0.526049928
     0.098973000  0.675972335  0.365759874
     0.845135115  0.150868500  0.354512606
     0.343583057  0.715411791  0.364432511
     0.263413768  0.107773205  0.634362727
     0.410212302  0.383992009  0.447685082
     0.651447633  0.817099244  0.444197973
     0.728781795  0.107868509  0.480451818
     0.921207011  0.449668213  0.446333746
     0.287649815  0.160902860  0.430261147
     0.067755822  0.075816838  0.373650077
     0.958389336  0.094940058  0.526678297
     0.545577768  0.825347508  0.569037230
     0.036665146  0.984642539  0.570990298
     0.810688498  0.784682126  0.461939165
     0.904559642  0.605511726  0.451471349
     0.446218752  0.196354626  0.351046944
     0.257898470  0.846328130  0.615659514
     0.039288889  0.883928697  0.441846710
     0.676044327  0.937312724  0.398252894
     0.402230752  0.976373706  0.502821089
     0.237002182  0.362323003  0.527194653
     0.923373637  0.914830548  0.606284514
     0.664945167  0.530813855  0.484318339
     0.792498436  0.559728032  0.615284883
     0.947412220  0.313118645  0.572309874
     0.288678277  0.187169090  0.351125080
     0.781445899  0.646611120  0.496450993
     0.081992409  0.156230900  0.484400984
     0.080758254  0.469510671  0.410425503
     0.941220879  0.670236260  0.378944841
     0.487493670  0.775323123  0.355609487
     0.695562477  0.813341930  0.597773181
     0.778250811  0.946328906  0.576608741
     0.409680930  0.536767278  0.434099324
     0.560854541  0.099300736  0.575816791
     0.830510387  0.924422669  0.383634766
     0.986843448  0.371554477  0.504813430
     0.154320704  0.548380669  0.468739557
     0.665848156  0.330463312  0.578952833
     0.854487261  0.887480318  0.513136252
     0.822495241  0.358852287  0.403214964
     0.155086565  0.951628913  0.400655041
     0.341626237  0.559285793  0.359340977
     0.590786209  0.444767935  0.538733088
     0.667473126  0.016025287  0.536534819
     0.500154035  0.337740708  0.386574442
     0.353004453  0.429902547  0.568561855
     0.328671045  0.691681747  0.602063169
     0.166348908  0.652395189  0.598839702
     0.635293925  0.081543999  0.425053535
     0.165878558  0.339428071  0.396429256
     0.469998848  0.968365416  0.573018839
     0.367530449  0.585653499  0.547833858
     0.792361308  0.695103097  0.570426815
     0.071492499  0.216443229  0.410714075
     0.094529359  0.513750301  0.594207868
     0.948954912  0.545018970  0.635068276
     0.604501091  0.702535448  0.395922463
     0.419758485  0.854651815  0.459193122
     0.086446334  0.282236678  0.607339424
     0.873980042  0.175782646  0.587635601
     0.521182652  0.565774017  0.572774663
     0.133923562  0.753266044  0.431490566
     0.287289168  0.932821774  0.353776116
     0.316380926  0.426629982  0.647525018
     0.920089416  0.049291229  0.401572665
     0.952307698  0.699511770  0.658494847
     0.048865377  0.664676395  0.479158197
     0.295972814  0.136845080  0.560978050

  ion indices of the primitive-cell ions
   primitive index   ion index
                 1           1
                 2           2
                 3           3
                 4           4
                 5           5
                 6           6
                 7           7
                 8           8
                 9           9
                10          10
                11          11
                12          12
                13          13
                14          14
                15          15
                16          16
                17          17
                18          18
                19          19
                20          20
                21          21
                22          22
                23          23
                24          24
                25          25
                26          26
                27          27
                28          28
                29          29
                30          30
                31          31
                32          32
                33          33
                34          34
                35          35
                36          36
                37          37
                38          38
                39          39
                40          40
                41          41
                42          42
                43          43
                44          44
                45          45
                46          46
                47          47
                48          48
                49          49
                50          50
                51          51
                52          52
                53          53
                54          54
                55          55
                56          56
                57          57
                58          58
                59          59
                60          60
                61          61
                62          62
                63          63
                64          64
                65          65
                66          66
                67          67
                68          68
                69          69
                70          70
                71          71
                72          72
                73          73
                74          74
                75          75
                76          76
                77          77
                78          78
                79          79
                80          80
                81          81
                82          82
                83          83
                84          84
                85          85
                86          86
                87          87
                88          88
                89          89
                90          90
                91          91
                92          92
                93          93
                94          94
                95          95
                96          96
                97          97
                98          98
                99          99
               100         100
               101         101
               102         102
               103         103
               104         104
               105         105
               106         106
               107         107
               108         108
               109         109
               110         110
               111         111
               112         112
               113         113
               114         114
               115         115
               116         116
               117         117
               118         118
               119         119
               120         120
               121         121
               122         122
               123         123
               124         124
               125         125
               126         126
               127         127
               128         128
               129         129
               130         130
               131         131
               132         132
               133         133
               134         134

----------------------------------------------------------------------------------------


 -----------------------------------------------------------------------------
|                                                                             |
|           W    W    AA    RRRRR   N    N  II  N    N   GGGG   !!!           |
|           W    W   A  A   R    R  NN   N  II  NN   N  G    G  !!!           |
|           W    W  A    A  R    R  N N  N  II  N N  N  G       !!!           |
|           W WW W  AAAAAA  RRRRR   N  N N  II  N  N N  G  GGG   !            |
|           WW  WW  A    A  R   R   N   NN  II  N   NN  G    G                |
|           W    W  A    A  R    R  N    N  II  N    N   GGGG   !!!           |
|                                                                             |
|     The requested file  could not be found or opened for reading            |
|     k-point information. Automatic k-point generation is used as a          |
|     fallback, which may lead to unwanted results.                           |
|                                                                             |
 -----------------------------------------------------------------------------



Automatic generation of k-mesh.
 Grid dimensions derived from KSPACING:
 generate k-points for:    2    2    1

 Generating k-lattice:

  Cartesian coordinates                     Fractional coordinates (reciprocal lattice)
     0.034282062  0.000000000  0.000000000     0.500000000  0.000000000  0.000000000
     0.000000000  0.034282062  0.000000000     0.000000000  0.500000000  0.000000000
     0.000000000  0.000000000  0.034150515     0.000000000  0.000000000  1.000000000

  Length of vectors
     0.034282062  0.034282062  0.034150515

  Shift w.r.t. Gamma in fractional coordinates (k-lattice)
     0.000000000  0.000000000  0.000000000

 
 Subroutine IBZKPT returns following result:
 ===========================================
 
 Found      4 irreducible k-points:
 
 Following reciprocal coordinates:
            Coordinates               Weight
  0.000000  0.000000  0.000000      1.000000
  0.500000  0.000000  0.000000      1.000000
  0.000000  0.500000  0.000000      1.000000
  0.500000  0.500000  0.000000      1.000000
 
 Following cartesian coordinates:
            Coordinates               Weight
  0.000000  0.000000  0.000000      1.000000
  0.034282  0.000000  0.000000      1.000000
  0.000000  0.034282  0.000000      1.000000
  0.034282  0.034282  0.000000      1.000000
 


--------------------------------------------------------------------------------------------------------




 Dimension of arrays:
   k-points           NKPTS =      4   k-points in BZ     NKDIM =      4   number of bands    NBANDS=    280
   number of dos      NEDOS =   2000   number of ions     NIONS =    134
   non local maximal  LDIM  =      4   non local SUM 2l+1 LMDIM =      8
   total plane-waves  NPLWV = ******
   max r-space proj   IRMAX =      1   max aug-charges    IRDMAX= 407382
   dimension x,y,z NGX =   168 NGY =  168 NGZ =  336
   dimension x,y,z NGXF=   336 NGYF=  336 NGZF=  672
   support grid    NGXF=   672 NGYF=  672 NGZF= 1344
   ions per type =              38  96
   NGX,Y,Z   is equivalent  to a cutoff of  19.15, 19.15, 19.08 a.u.
   NGXF,Y,Z  is equivalent  to a cutoff of  38.30, 38.30, 38.15 a.u.

 SYSTEM =  a-Si SPC                                
 POSCAR =   H Si                                   

 Startparameter for this run:
   NWRITE =      2    write-flag & timer
   PREC   = accura    normal or accurate (medium, high low for compatibility)
   ISTART =      1    job   : 0-new  1-cont  2-samecut
   ICHARG =      1    charge: 1-file 2-atom 10-const
   ISPIN  =      1    spin polarized calculation?
   LNONCOLLINEAR =      F non collinear calculations
   LSORBIT =      F    spin-orbit coupling
   INIWAV =      1    electr: 0-lowe 1-rand  2-diag
   LASPH  =      T    aspherical Exc in radial PAW
 Electronic Relaxation 1
   ENCUT  = 1200.0 eV  88.20 Ry    9.39 a.u.  41.20 41.20 82.71*2*pi/ulx,y,z
   ENINI  = 1200.0     initial cutoff
   ENAUG  =  400.0 eV  augmentation charge cutoff
   NELM   =    150;   NELMIN=  2; NELMDL=  0     # of ELM steps 
   EDIFF  = 0.1E-05   stopping-criterion for ELM
   LREAL  =      F    real-space projection
   NLSPLINE    = F    spline interpolate recip. space projectors
   LCOMPAT=      F    compatible to vasp.4.4
   GGA_COMPAT  = T    GGA compatible to vasp.4.4-vasp.4.6
   LMAXPAW     = -100 max onsite density
   LMAXMIX     =    2 max onsite mixed and CHGCAR
   VOSKOWN=      0    Vosko Wilk Nusair interpolation
   ROPT   =    0.00000   0.00000
 Ionic relaxation
   EDIFFG = -.1E-01   stopping-criterion for IOM
   NSW    =      0    number of steps for IOM
   NBLOCK =      1;   KBLOCK =      1    inner block; outer block 
   IBRION =     -1    ionic relax: 0-MD 1-quasi-New 2-CG
   NFREE  =      0    steps in history (QN), initial steepest desc. (CG)
   ISIF   =      2    stress and relaxation
   IWAVPR =     10    prediction:  0-non 1-charg 2-wave 3-comb
   ISYM   =      1    0-nonsym 1-usesym 2-fastsym
   LCORR  =      T    Harris-Foulkes like correction to forces

   POTIM  = 0.5000    time-step for ionic-motion
   TEIN   =    0.0    initial temperature
   TEBEG  =    0.0;   TEEND  =   0.0 temperature during run
   SMASS  =  -3.00    Nose mass-parameter (am)
   estimated Nose-frequenzy (Omega)   =  0.10E-29 period in steps = 0.13E+47 mass=  -0.486E-26a.u.
   SCALEE = 1.0000    scale energy and forces
   NPACO  =    256;   APACO  = 10.0  distance and # of slots for P.C.
   PSTRESS=    0.0 pullay stress

  Mass of Ions in am
   POMASS =   1.00 28.09
  Ionic Valenz
   ZVAL   =   1.00  4.00
  Atomic Wigner-Seitz radii
   RWIGS  =  -1.00 -1.00
  virtual crystal weights 
   VCA    =   1.00  1.00
   NELECT =     422.0000    total number of electrons
   NUPDOWN=      -1.0000    fix difference up-down

 DOS related values:
   EMIN   =  10.00;   EMAX   =-10.00  energy-range for DOS
   EFERMI =   0.00;   METHOD = LEGACY      
   ISMEAR =     0;   SIGMA  =   0.10  broadening in eV -4-tet -1-fermi 0-gaus
   EFERMI_NEDOS =   21; number of points for ismear=-14 and -15

 Electronic relaxation 2 (details)
   IALGO  =     38    algorithm
   LDIAG  =      F    sub-space diagonalisation (order eigenvalues)
   LSUBROT=      F    optimize rotation matrix (better conditioning)
   TURBO    =      0    0=normal 1=particle mesh
   IRESTART =      0    0=no restart 2=restart with 2 vectors
   NREBOOT  =      0    no. of reboots
   NMIN     =      0    reboot dimension
   EREF     =   0.00    reference energy to select bands
   IMIX   =      4    mixing-type and parameters
     AMIX     =   0.40;   BMIX     =  1.00
     AMIX_MAG =   1.60;   BMIX_MAG =  1.00
     AMIN     =   0.10
     WC   =   100.;   INIMIX=   1;  MIXPRE=   1;  MAXMIX= -45

 Intra band minimization:
   WEIMIN = 0.0000     energy-eigenvalue tresh-hold
   EBREAK =  0.89E-09  absolut break condition
   DEPER  =   0.30     relativ break condition  

   TIME   =   0.40     timestep for ELM

  volume/ion in A,a.u.               =      46.48       313.69
  Fermi-wavevector in a.u.,A,eV,Ry     =   0.667384  1.261174  6.060061  0.445402
  Thomas-Fermi vector in A             =   1.741975

 Write flags
   LWAVE        =      F    write WAVECAR
   LDOWNSAMPLE  =      F    k-point downsampling of WAVECAR
   LCHARG       =      F    write CHGCAR
   LVTOT        =      F    write LOCPOT, total local potential
   LVHAR        =      F    write LOCPOT, Hartree potential only
   WRT_POTENTIAL= false  ! write potential to hdf5 file
   LELF         =      F    write electronic localiz. function (ELF)
   LORBIT       =     11    0 simple, 1 ext, 2 COOP (PROOUT), +10 PAW based schemes


 Python interface
   PLUGINS active      =      F    recompile with -DPLUGINS to activate

 Dipole corrections
   LMONO      =      F    monopole corrections only (constant potential shift)
   LDIPOL     =      F    correct potential (dipole corrections)
   IDIPOL     =      0    1-x, 2-y, 3-z, 4-all directions 
   EPSILON    =  1.0000000 bulk dielectric constant
   LVACPOTAV  =      F  vacuum potentials using an averaging scheme for the charge density
   VACPOTFLAT =  0.1000000 required flatness to determine vacuum potential

Coulomb truncation method
  LTRUNCATE          =      F  Coulomb kernel truncation to be used
  IDIMENSIONALITY    =      3  Dimensionality of cutoff (0 molecules / 2 surfaces)
  ISURFACE           =     -1  Direction of surface normal
  LCOARSEN           =      F  Coarsen the charge grid before padding, preferred


 Exchange correlation treatment:
   METAGGA = SCAN    functional components
   XC_C    = 1    coefficients multiplying the functional components
   LIBXC   =     F    Libxc                    
   VOSKOWN =     0    Vosko Wilk Nusair interpolation
   LHFCALC =     F    Hartree Fock is set to
   LHFONE  =     F    Hartree Fock one center treatment
   AEXX    =    0.0000 exact exchange contribution

 Parameters of functionals:
   SCAN:
     P1 =  0.000000E+00
     P2 =  0.000000E+00
     P3 =  0.000000E+00

 Accuracy and mixing parameters for tau-dependent meta-GGA functionals:
   LMAXTAU = 6
   LMIXTAU = T

 Van der Waals corrections
   IVDW    =     0    specifies the selected vdW correction

 Linear response parameters
   LEPSILON=     F    determine dielectric tensor
   LRPA    =     F    only Hartree local field effects (RPA)
   LNABLA  =     F    use nabla operator in PAW spheres
   LVEL    =     F    velocity operator in full k-point grid
   CSHIFT  =0.1000    complex shift for real part using Kramers Kronig
   OMEGAMAX=  -1.0    maximum frequency
   DEG_THRESHOLD= 0.2000000E-02 threshold for treating states as degnerate
   RTIME   =   -0.100 relaxation time in fs
  (WPLASMAI=    0.000 imaginary part of plasma frequency in eV, 0.658/RTIME)
   DFIELD  = 0.0000000 0.0000000 0.0000000 field for delta impulse in time

  Optional k-point grid parameters
   LKPOINTS_OPT  =     F    use optional k-point grid
   KPOINTS_OPT_MODE=     1    mode for optional k-point grid

 Orbital magnetization related:
   ORBITALMAG=     F  switch on orbital magnetization
   LCHIMAG   =     F  perturbation theory with respect to B field
   DQ        =  0.001000  dq finite difference perturbation B field
   LLRAUG    =     F  two centre corrections for induced B field
   LBONE     =     F  B-component reconstruction in AE one-centre
   LVGVCALC  =     T  calculate vGv susceptibility
   LVGVAPPL  =     F  apply vGv susceptibility instead of pGv for G=0

 Random number generation:
   RANDOM_GENERATOR = DEFAULT
   PCG_SEED         = not used


--------------------------------------------------------------------------------------------------------


 Static calculation
 charge density and potential will be updated during run
 non-spin polarized calculation
 Variant of blocked Davidson
 perform Loewdin sub-space diagonalisation
    ordering is kept fixed
    before iterative eigenvector-optimisation
 modified Broyden-mixing scheme, WC =      100.0
 initial mixing is a Kerker type mixing with AMIX =  0.4000 and BMIX =      1.0000
 Hartree-type preconditioning will be used
 using additional bands           69
 reciprocal scheme for non local part
 use partial core corrections
 calculate Harris-corrections to forces   (improved forces if not selfconsistent)
 use gradient corrections 
 use of overlap-Matrix (Vanderbilt PP)
 Gauss-broadening in eV      SIGMA  =   0.10


--------------------------------------------------------------------------------------------------------


  energy-cutoff  :     1200.00
  volume of cell :     6228.86
      direct lattice vectors                 reciprocal lattice vectors
    14.584886825  0.000000000  0.000000000     0.068564125  0.000000000  0.000000000
     0.000000000 14.584886825  0.000000000     0.000000000  0.068564125  0.000000000
     0.000000000  0.000000000 29.282135000     0.000000000  0.000000000  0.034150515

  length of vectors
    14.584886825 14.584886825 29.282135000     0.068564125  0.068564125  0.034150515



 old parameters found on file WAVECAR:
  energy-cutoff  :     1200.00
  volume of cell :     6228.86
      direct lattice vectors                 reciprocal lattice vectors
    14.584886825  0.000000000  0.000000000     0.068564125  0.000000000  0.000000000
     0.000000000 14.584886825  0.000000000     0.000000000  0.068564125  0.000000000
     0.000000000  0.000000000 29.282135000     0.000000000  0.000000000  0.034150515

  length of vectors


 k-points in units of 2pi/SCALE and weight: read from INCAR                         
   0.00000000  0.00000000  0.00000000       0.250
   0.03428206  0.00000000  0.00000000       0.250
   0.00000000  0.03428206  0.00000000       0.250
   0.03428206  0.03428206  0.00000000       0.250

 k-points in reciprocal lattice and weights: read from INCAR                         
   0.00000000  0.00000000  0.00000000       0.250
   0.50000000  0.00000000  0.00000000       0.250
   0.00000000  0.50000000  0.00000000       0.250
   0.50000000  0.50000000  0.00000000       0.250

 position of ions in fractional coordinates (direct lattice) 
   0.72113690  0.19988019  0.50376433
   0.76915921  0.40895964  0.53073982
   0.56269960  0.65416963  0.55943342
   0.72944687  0.37295113  0.61131693
   0.60436808  0.21434654  0.48289802
   0.74612166  0.00779170  0.63069325
   0.78094538  0.27879202  0.42036843
   0.57880051  0.25802806  0.48482752
   0.51628923  0.39063656  0.34150515
   0.55136252  0.39457008  0.64993365
   0.83560470  0.30310828  0.48065296
   0.80610156  0.38638215  0.54269694
   0.50707490  0.26202329  0.63865271
   0.71186703  0.35709773  0.48557440
   0.80689690  0.35834766  0.64919532
   0.63329048  0.48481350  0.35992761
   0.74381791  0.48498079  0.59171317
   0.68187708  0.49346492  0.43921029
   0.46836976  0.24243246  0.65155751
   0.69670064  0.30566847  0.48519123
   0.61747137  0.93993873  0.51103360
   0.78760981  0.41045776  0.36704875
   0.88357216  0.50751919  0.54905337
   0.60215963  0.47153400  0.37995156
   0.78037630  0.18057734  0.57096161
   0.87114834  0.26434898  0.47962230
   0.00641511  0.28968823  0.47825082
   0.76222052  0.51243044  0.38612775
   0.63982533  0.23603886  0.35975717
   0.89596856  0.38727212  0.59925497
   0.69405407  0.24802524  0.64854714
   0.58483004  0.32001482  0.41431115
   0.03031906  0.91771024  0.49070449
   0.91998657  0.52278294  0.53347527
   0.57862225  0.31575425  0.60645049
   0.67611975  0.24207524  0.55625128
   0.76267990  0.55470022  0.37598392
   0.90550583  0.52413228  0.35935095
   0.12096494  0.04214410  0.62977904
   0.91895811  0.81349963  0.40610307
   0.42999648  0.92629447  0.38641154
   0.34893860  0.97989105  0.62281439
   0.49001546  0.07591214  0.39881945
   0.27161404  0.31450501  0.45152906
   0.57296159  0.08362492  0.65444118
   0.10840674  0.45387736  0.52489462
   0.16253194  0.22176449  0.54487437
   0.15615959  0.41106593  0.64590458
   0.15360764  0.87670204  0.55469231
   0.46043210  0.35777172  0.52152635
   0.92913988  0.76800733  0.58422123
   0.18983418  0.04479829  0.46086923
   0.46677976  0.75266268  0.62490986
   0.53891334  0.75984134  0.49225594
   0.07690769  0.73428064  0.54944508
   0.93728530  0.26835793  0.37531604
   0.29080445  0.75131197  0.44292108
   0.86249555  0.02814838  0.47169870
   0.54116498  0.61992322  0.45584296
   0.42464711  0.11962246  0.47008953
   0.49837411  0.59865326  0.64970929
   0.45532407  0.19616196  0.53783356
   0.68947398  0.15155826  0.35937151
   0.30305686  0.61542747  0.47873439
   0.25232215  0.99354902  0.52604993
   0.09897300  0.67597233  0.36575987
   0.84513511  0.15086850  0.35451261
   0.34358306  0.71541179  0.36443251
   0.26341377  0.10777321  0.63436273
   0.41021230  0.38399201  0.44768508
   0.65144763  0.81709924  0.44419797
   0.72878179  0.10786851  0.48045182
   0.92120701  0.44966821  0.44633375
   0.28764982  0.16090286  0.43026115
   0.06775582  0.07581684  0.37365008
   0.95838934  0.09494006  0.52667830
   0.54557777  0.82534751  0.56903723
   0.03666515  0.98464254  0.57099030
   0.81068850  0.78468213  0.46193917
   0.90455964  0.60551173  0.45147135
   0.44621875  0.19635463  0.35104694
   0.25789847  0.84632813  0.61565951
   0.03928889  0.88392870  0.44184671
   0.67604433  0.93731272  0.39825289
   0.40223075  0.97637371  0.50282109
   0.23700218  0.36232300  0.52719465
   0.92337364  0.91483055  0.60628451
   0.66494517  0.53081385  0.48431834
   0.79249844  0.55972803  0.61528488
   0.94741222  0.31311864  0.57230987
   0.28867828  0.18716909  0.35112508
   0.78144590  0.64661112  0.49645099
   0.08199241  0.15623090  0.48440098
   0.08075825  0.46951067  0.41042550
   0.94122088  0.67023626  0.37894484
   0.48749367  0.77532312  0.35560949
   0.69556248  0.81334193  0.59777318
   0.77825081  0.94632891  0.57660874
   0.40968093  0.53676728  0.43409932
   0.56085454  0.09930074  0.57581679
   0.83051039  0.92442267  0.38363477
   0.98684345  0.37155448  0.50481343
   0.15432070  0.54838067  0.46873956
   0.66584816  0.33046331  0.57895283
   0.85448726  0.88748032  0.51313625
   0.82249524  0.35885229  0.40321496
   0.15508657  0.95162891  0.40065504
   0.34162624  0.55928579  0.35934098
   0.59078621  0.44476794  0.53873309
   0.66747313  0.01602529  0.53653482
   0.50015404  0.33774071  0.38657444
   0.35300445  0.42990255  0.56856186
   0.32867105  0.69168175  0.60206317
   0.16634891  0.65239519  0.59883970
   0.63529393  0.08154400  0.42505354
   0.16587856  0.33942807  0.39642926
   0.46999885  0.96836542  0.57301884
   0.36753045  0.58565350  0.54783386
   0.79236131  0.69510310  0.57042681
   0.07149250  0.21644323  0.41071408
   0.09452936  0.51375030  0.59420787
   0.94895491  0.54501897  0.63506828
   0.60450109  0.70253545  0.39592246
   0.41975849  0.85465182  0.45919312
   0.08644633  0.28223668  0.60733942
   0.87398004  0.17578265  0.58763560
   0.52118265  0.56577402  0.57277466
   0.13392356  0.75326604  0.43149057
   0.28728917  0.93282177  0.35377612
   0.31638093  0.42662998  0.64752502
   0.92008942  0.04929123  0.40157267
   0.95230770  0.69951177  0.65849485
   0.04886538  0.66467640  0.47915820
   0.29597281  0.13684508  0.56097805

 position of ions in cartesian coordinates  (Angst):
  10.51770000  2.91523000 14.75129500
  11.21810000  5.96463000 15.54119500
   8.20691000  9.54099000 16.38140500
  10.63890000  5.43945000 17.90066500
   8.81464000  3.12622000 14.14028500
  10.88210000  0.11364100 18.46804500
  11.39000000  4.06615000 12.30928500
   8.44174000  3.76331000 14.19678500
   7.53002000  5.69739000 10.00000000
   8.04156000  5.75476000 19.03144500
  12.18720000  4.42080000 14.07454500
  11.75690000  5.63534000 15.89132500
   7.39563000  3.82158000 18.70111500
  10.38250000  5.20823000 14.21865500
  11.76850000  5.22646000 19.00982500
   9.23647000  7.07095000 10.53944900
  10.84850000  7.07339000 17.32662500
   9.94510000  7.19713000 12.86101500
   6.83112000  3.53585000 19.07899500
  10.16130000  4.45814000 14.20743500
   9.00575000 13.70890000 14.96415500
  11.48720000  5.98648000 10.74797100
  12.88680000  7.40211000 16.07745500
   8.78243000  6.87727000 11.12579300
  11.38170000  2.63370000 16.71897500
  12.70560000  3.85550000 14.04436500
   0.09356360  4.22507000 14.00420500
  11.11690000  7.47374000 11.30664500
   9.33178000  3.44260000 10.53445800
  13.06760000  5.64832000 17.54746500
  10.12270000  3.61742000 18.99084500
   8.52968000  4.66738000 12.13191500
   0.44220000 13.38470000 14.36887500
  13.41790000  7.62473000 15.62129500
   8.43914000  4.60524000 17.75816500
   9.86113000  3.53064000 16.28822500
  11.12360000  8.09024000 11.00961200
  13.20670000  7.64441000 10.52256300
   1.76426000  0.61466700 18.44127500
  13.40290000 11.86480000 11.89156500
   6.27145000 13.50990000 11.31495500
   5.08923000 14.29160000 18.23733500
   7.14682000  1.10717000 11.67828500
   3.96146000  4.58702000 13.22173500
   8.35658000  1.21966000 19.16343500
   1.58110000  6.61975000 15.37003500
   2.37051000  3.23441000 15.95508500
   2.27757000  5.99535000 18.91346500
   2.24035000 12.78660000 16.24257500
   6.71535000  5.21806000 15.27140500
  13.55140000 11.20130000 17.10724500
   2.76871000  0.65337800 13.49523500
   6.80793000 10.97750000 18.29869500
   7.85999000 11.08220000 14.41430500
   1.12169000 10.70940000 16.08892500
  13.67020000  3.91397000 10.99005500
   4.24135000 10.95780000 12.96967500
  12.57940000  0.41054100 13.81234500
   7.89283000  9.04151000 13.34805500
   6.19343000  1.74468000 13.76522500
   7.26873000  8.73129000 19.02487500
   6.64085000  2.86100000 15.74891500
  10.05590000  2.21046000 10.52316500
   4.42005000  8.97594000 14.01836500
   3.68009000 14.49080000 15.40386500
   1.44351000  9.85898000 10.71023000
  12.32620000  2.20040000 10.38088600
   5.01112000 10.43420000 10.67136200
   3.84186000  1.57186000 18.57549500
   5.98290000  5.60048000 13.10917500
   9.50129000 11.91730000 13.00706500
  10.62920000  1.57325000 14.06865500
  13.43570000  6.55836000 13.06960500
   4.19534000  2.34675000 12.59896500
   0.98821100  1.10578000 10.94127200
  13.97800000  1.38469000 15.42226500
   7.95719000 12.03760000 16.66262500
   0.53475700 14.36090000 16.71981500
  11.82380000 11.44450000 13.52656500
  13.19290000  8.83132000 13.22004500
   6.50805000  2.86381000 10.27940400
   3.76142000 12.34360000 18.02782500
   0.57302400 12.89200000 12.93821500
   9.86003000 13.67060000 11.66169500
   5.86649000 14.24030000 14.72367500
   3.45665000  5.28444000 15.43738500
  13.46730000 13.34270000 17.75330500
   9.69815000  7.74186000 14.18187500
  11.55850000  8.16357000 18.01685500
  13.81790000  4.56680000 16.75845500
   4.21034000  2.72984000 10.28169200
  11.39730000  9.43075000 14.53714500
   1.19585000  2.27861000 14.18429500
   1.17785000  6.84776000 12.01813500
  13.72760000  9.77532000 11.09631400
   7.11004000 11.30800000 10.41300500
  10.14470000 11.86250000 17.50407500
  11.35070000 13.80210000 16.88433500
   5.97515000  7.82869000 12.71135500
   8.18000000  1.44829000 16.86114500
  12.11290000 13.48260000 11.23364500
  14.39300000  5.41908000 14.78201500
   2.25075000  7.99807000 13.72569500
   9.71132000  4.81977000 16.95297500
  12.46260000 12.94380000 15.02572500
  11.99600000  5.23382000 11.80699500
   2.26192000 13.87940000 11.73203500
   4.98258000  8.15712000 10.52227100
   8.61655000  6.48689000 15.77525500
   9.73502000  0.23372700 15.71088500
   7.29469000  4.92591000 11.31972500
   5.14853000  6.27008000 16.64870500
   4.79363000 10.08810000 17.62969500
   2.42618000  9.51511000 17.53530500
   9.26569000  1.18931000 12.44647500
   2.41932000  4.95052000 11.60829500
   6.85488000 14.12350000 16.77921500
   5.36039000  8.54169000 16.04174500
  11.55650000 10.13800000 16.70331500
   1.04271000  3.15680000 12.02658500
   1.37870000  7.49299000 17.39967500
  13.84040000  7.94904000 18.59615500
   8.81658000 10.24640000 11.59345500
   6.12213000 12.46500000 13.44615500
   1.26081000  4.11639000 17.78419500
  12.74690000  2.56377000 17.20722500
   7.60139000  8.25175000 16.77206500
   1.95326000 10.98630000 12.63496500
   4.19008000 13.60510000 10.35932000
   4.61438000  6.22235000 18.96091500
  13.41940000  0.71890700 11.75890500
  13.88930000 10.20230000 19.28213500
   0.71269600  9.69423000 14.03077500
   4.31673000  1.99587000 16.42663500



--------------------------------------------------------------------------------------------------------


 k-point     1 :   0.0000 0.0000 0.0000  plane waves:  588013
 k-point     2 :   0.5000 0.0000 0.0000  plane waves:  588026
 k-point     3 :   0.0000 0.5000 0.0000  plane waves:  588026
 k-point     4 :   0.5000 0.5000 0.0000  plane waves:  588068

 maximum and minimum number of plane-waves per node :     36808    36678

 maximum number of plane-waves:    588068
 maximum index in each direction: 
   IXMAX=   41   IYMAX=   41   IZMAX=   82
   IXMIN=  -41   IYMIN=  -41   IZMIN=  -82


 parallel 3D FFT for wavefunctions:
    minimum data exchange during FFTs selected (reduces bandwidth)
 parallel 3D FFT for charge:
    minimum data exchange during FFTs selected (reduces bandwidth)


 total amount of memory used by VASP MPI-rank0   412658. kBytes
=======================================================================

   base                                    :      30000. kBytes
   nonl-proj                               :      97655. kBytes
   fftplans                                :     114289. kBytes
   grid                                    :      88184. kBytes
   one-center                              :         27. kBytes
   wavefun                                 :      82503. kBytes

     INWAV:  cpu time     23.6261: real time     23.6414
 Broyden mixing: mesh for mixing (old mesh)
   NGX = 83   NGY = 83   NGZ =165
  (NGX  =336   NGY  =336   NGZ  =672)
  gives a total of ****** points

 initial charge density was supplied:
 number of electron     421.9999999 magnetization 
 keeping initial charge density in first step


--------------------------------------------------------------------------------------------------------


 Maximum index for augmentation-charges        11074 (set IRDMAX)


--------------------------------------------------------------------------------------------------------


 First call to EWALD:  gamma=   0.096
 Maximum number of real-space cells   3x   3x   2
 Maximum number of reciprocal cells   2x   2x   4

    FEWALD:  cpu time      0.0249: real time      0.0250


--------------------------------------- Ionic step        1  -------------------------------------------




--------------------------------------- Iteration      1(   1)  ---------------------------------------


    POTLOK:  cpu time      2.2743: real time      2.2752
    SETDIJ:  cpu time      2.1504: real time      2.1517
    EDDIAG:  cpu time     47.5097: real time     47.5374
     EDDAV:  cpu time    233.3336: real time    233.4720
       DOS:  cpu time      0.0072: real time      0.0072
    CHARGE:  cpu time     27.3966: real time     27.4239
    MIXING:  cpu time      0.0531: real time      0.0533
    --------------------------------------------
      LOOP:  cpu time    312.7250: real time    312.9208

 eigenvalue-minimisations  :  2256
 total energy-change (2. order) :-0.1078065E+04  (-0.1159701E+01)
 number of electron     421.9999999 magnetization 
 augmentation part      -21.2977954 magnetization 

 Broyden mixing:
  rms(total) = 0.12108E+01    rms(broyden)= 0.12108E+01
  rms(prec ) = 0.12153E+01
  weight for this iteration     100.00

 Free energy of the ion-electron system (eV)
  ---------------------------------------------------
  alpha Z        PSCENC =        61.00736123
  Ewald energy   TEWEN  =     75465.33085859
  -Hartree energ DENC   =    -84638.82531378
  -exchange      EXHF   =         0.00000000
  -V(xc)+E(xc)   XCENC  =      -350.90683001
  PAW double counting   =     38247.79811000   -37291.80576758
  entropy T*S    EENTRO =        -0.25819688
  eigenvalues    EBANDS =     -2939.37872167
  atomic energy  EATOM  =     10368.97399388
  Solvation  Ediel_sol  =         0.00000000
  ---------------------------------------------------
  free energy    TOTEN  =     -1078.06450623 eV

  energy without entropy =    -1077.80630935  energy(sigma->0) =    -1077.93540779


--------------------------------------------------------------------------------------------------------




--------------------------------------- Iteration      1(   2)  ---------------------------------------


    POTLOK:  cpu time      2.2661: real time      2.2679
    SETDIJ:  cpu time      2.1452: real time      2.1462
    EDDIAG:  cpu time     47.5132: real time     47.5434
     EDDAV:  cpu time    233.1811: real time    233.3183
       DOS:  cpu time      0.0030: real time      0.0030
    CHARGE:  cpu time     27.2854: real time     27.3100
    MIXING:  cpu time      0.0459: real time      0.0459
    --------------------------------------------
      LOOP:  cpu time    312.4398: real time    312.6347

 eigenvalue-minimisations  :  2272
 total energy-change (2. order) : 0.7612184E+02  (-0.1276455E+01)
 number of electron     421.9999999 magnetization 
 augmentation part      -21.2895604 magnetization 

 Broyden mixing:
  rms(total) = 0.92747E+00    rms(broyden)= 0.92747E+00
  rms(prec ) = 0.97027E+00
  weight for this iteration     100.00

 eigenvalues of (default mixing * dielectric matrix)
  average eigenvalue GAMMA=   1.3149
  1.3149

 Free energy of the ion-electron system (eV)
  ---------------------------------------------------
  alpha Z        PSCENC =        61.00736123
  Ewald energy   TEWEN  =     75465.33085859
  -Hartree energ DENC   =    -84621.22937273
  -exchange      EXHF   =         0.00000000
  -V(xc)+E(xc)   XCENC  =      -341.25311004
  PAW double counting   =     45386.38036029   -44430.11819375
  entropy T*S    EENTRO =        -0.23107677
  eigenvalues    EBANDS =     -2890.80349192
  atomic energy  EATOM  =     10368.97399388
  Solvation  Ediel_sol  =         0.00000000
  ---------------------------------------------------
  free energy    TOTEN  =     -1001.94267122 eV

  energy without entropy =    -1001.71159445  energy(sigma->0) =    -1001.82713284


--------------------------------------------------------------------------------------------------------




--------------------------------------- Iteration      1(   3)  ---------------------------------------


    POTLOK:  cpu time      2.2238: real time      2.2487
    SETDIJ:  cpu time      2.1544: real time      2.1559
    EDDIAG:  cpu time     47.5409: real time     47.5696
     EDDAV:  cpu time    237.7001: real time    237.8497
       DOS:  cpu time      0.0114: real time      0.0119
    CHARGE:  cpu time     27.3043: real time     27.3289
    MIXING:  cpu time      0.0601: real time      0.0604
    --------------------------------------------
      LOOP:  cpu time    316.9949: real time    317.2250

 eigenvalue-minimisations  :  2344
 total energy-change (2. order) :-0.3310495E+01  (-0.1630303E+01)
 number of electron     421.9999999 magnetization 
 augmentation part      -21.1206227 magnetization 

 Broyden mixing:
  rms(total) = 0.68596E+00    rms(broyden)= 0.68596E+00
  rms(prec ) = 0.80992E+00
  weight for this iteration     100.00

 eigenvalues of (default mixing * dielectric matrix)
  average eigenvalue GAMMA=   1.5229
  2.6427  0.4030

 Free energy of the ion-electron system (eV)
  ---------------------------------------------------
  alpha Z        PSCENC =        61.00736123
  Ewald energy   TEWEN  =     75465.33085859
  -Hartree energ DENC   =    -84634.55405284
  -exchange      EXHF   =         0.00000000
  -V(xc)+E(xc)   XCENC  =      -346.14845123
  PAW double counting   =     50547.58588140   -49591.52002141
  entropy T*S    EENTRO =        -0.22287585
  eigenvalues    EBANDS =     -2875.70586008
  atomic energy  EATOM  =     10368.97399388
  Solvation  Ediel_sol  =         0.00000000
  ---------------------------------------------------
  free energy    TOTEN  =     -1005.25316630 eV

  energy without entropy =    -1005.03029045  energy(sigma->0) =    -1005.14172838


--------------------------------------------------------------------------------------------------------




--------------------------------------- Iteration      1(   4)  ---------------------------------------


    POTLOK:  cpu time      2.2339: real time      2.2561
    SETDIJ:  cpu time      2.1616: real time      2.1637
    EDDIAG:  cpu time     47.5564: real time     47.5867
     EDDAV:  cpu time    257.2327: real time    257.3893
       DOS:  cpu time      0.0045: real time      0.0045
    CHARGE:  cpu time     27.2976: real time     27.3245
    MIXING:  cpu time      0.0463: real time      0.0463
    --------------------------------------------
      LOOP:  cpu time    336.5330: real time    336.7712

 eigenvalue-minimisations  :  2680
 total energy-change (2. order) :-0.4791104E+00  (-0.6249948E+00)
 number of electron     421.9999999 magnetization 
 augmentation part      -21.0935225 magnetization 

 Broyden mixing:
  rms(total) = 0.61984E+00    rms(broyden)= 0.61984E+00
  rms(prec ) = 0.83746E+00
  weight for this iteration     100.00

 eigenvalues of (default mixing * dielectric matrix)
  average eigenvalue GAMMA=   1.1639
  2.6949  0.3984  0.3984

 Free energy of the ion-electron system (eV)
  ---------------------------------------------------
  alpha Z        PSCENC =        61.00736123
  Ewald energy   TEWEN  =     75465.33085859
  -Hartree energ DENC   =    -84631.50890656
  -exchange      EXHF   =         0.00000000
  -V(xc)+E(xc)   XCENC  =      -346.25876483
  PAW double counting   =     59120.94044815   -58164.99400846
  entropy T*S    EENTRO =        -0.21384398
  eigenvalues    EBANDS =     -2879.00941474
  atomic energy  EATOM  =     10368.97399388
  Solvation  Ediel_sol  =         0.00000000
  ---------------------------------------------------
  free energy    TOTEN  =     -1005.73227672 eV

  energy without entropy =    -1005.51843274  energy(sigma->0) =    -1005.62535473


--------------------------------------------------------------------------------------------------------




--------------------------------------- Iteration      1(   5)  ---------------------------------------


    POTLOK:  cpu time      2.2248: real time      2.2556
    SETDIJ:  cpu time      2.1545: real time      2.1566
    EDDIAG:  cpu time     47.5565: real time     47.5898
     EDDAV:  cpu time    252.8756: real time    253.0282
       DOS:  cpu time      0.0022: real time      0.0022
    CHARGE:  cpu time     27.3178: real time     27.3433
    MIXING:  cpu time      0.0459: real time      0.0459
    --------------------------------------------
      LOOP:  cpu time    332.1774: real time    332.4217

 eigenvalue-minimisations  :  2600
 total energy-change (2. order) : 0.6739122E+00  (-0.2816274E+00)
 number of electron     421.9999999 magnetization 
 augmentation part      -21.0943200 magnetization 

 Broyden mixing:
  rms(total) = 0.51224E+00    rms(broyden)= 0.51224E+00
  rms(prec ) = 0.60809E+00
  weight for this iteration     100.00

 eigenvalues of (default mixing * dielectric matrix)
  average eigenvalue GAMMA=   1.0785
  2.6534  0.6975  0.6975  0.2655

 Free energy of the ion-electron system (eV)
  ---------------------------------------------------
  alpha Z        PSCENC =        61.00736123
  Ewald energy   TEWEN  =     75465.33085859
  -Hartree energ DENC   =    -84635.86238097
  -exchange      EXHF   =         0.00000000
  -V(xc)+E(xc)   XCENC  =      -346.85089419
  PAW double counting   =     60158.03660707   -59202.08239378
  entropy T*S    EENTRO =        -0.22455303
  eigenvalues    EBANDS =     -2873.38696337
  atomic energy  EATOM  =     10368.97399388
  Solvation  Ediel_sol  =         0.00000000
  ---------------------------------------------------
  free energy    TOTEN  =     -1005.05836457 eV

  energy without entropy =    -1004.83381154  energy(sigma->0) =    -1004.94608805


--------------------------------------------------------------------------------------------------------




--------------------------------------- Iteration      1(   6)  ---------------------------------------


    POTLOK:  cpu time      2.2291: real time      2.2532
    SETDIJ:  cpu time      2.1486: real time      2.1499
    EDDIAG:  cpu time     47.5314: real time     47.5637
     EDDAV:  cpu time    256.6183: real time    256.7771
       DOS:  cpu time      0.0061: real time      0.0061
    CHARGE:  cpu time     27.3825: real time     27.4079
    MIXING:  cpu time      0.0470: real time      0.0470
    --------------------------------------------
      LOOP:  cpu time    335.9628: real time    336.2048

 eigenvalue-minimisations  :  2656
 total energy-change (2. order) : 0.2017928E+01  (-0.3154066E+00)
 number of electron     421.9999999 magnetization 
 augmentation part      -21.2090786 magnetization 

 Broyden mixing:
  rms(total) = 0.43695E+00    rms(broyden)= 0.43695E+00
  rms(prec ) = 0.50208E+00
  weight for this iteration     100.00

 eigenvalues of (default mixing * dielectric matrix)
  average eigenvalue GAMMA=   0.9445
  2.5902  0.9980  0.4339  0.4339  0.2663

 Free energy of the ion-electron system (eV)
  ---------------------------------------------------
  alpha Z        PSCENC =        61.00736123
  Ewald energy   TEWEN  =     75465.33085859
  -Hartree energ DENC   =    -84631.56682099
  -exchange      EXHF   =         0.00000000
  -V(xc)+E(xc)   XCENC  =      -347.17450330
  PAW double counting   =     59981.08233629   -59025.07988097
  entropy T*S    EENTRO =        -0.22633534
  eigenvalues    EBANDS =     -2875.38744626
  atomic energy  EATOM  =     10368.97399388
  Solvation  Ediel_sol  =         0.00000000
  ---------------------------------------------------
  free energy    TOTEN  =     -1003.04043688 eV

  energy without entropy =    -1002.81410154  energy(sigma->0) =    -1002.92726921


--------------------------------------------------------------------------------------------------------




--------------------------------------- Iteration      1(   7)  ---------------------------------------


    POTLOK:  cpu time      2.2227: real time      2.2464
    SETDIJ:  cpu time      2.1553: real time      2.1566
    EDDIAG:  cpu time     47.5121: real time     47.5436
     EDDAV:  cpu time    235.6745: real time    235.8166
       DOS:  cpu time      0.0062: real time      0.0062
    CHARGE:  cpu time     27.3868: real time     27.4114
    MIXING:  cpu time      0.0462: real time      0.0462
    --------------------------------------------
      LOOP:  cpu time    315.0038: real time    315.2270

 eigenvalue-minimisations  :  2312
 total energy-change (2. order) :-0.1288676E+01  (-0.8646967E-01)
 number of electron     421.9999999 magnetization 
 augmentation part      -21.1685035 magnetization 

 Broyden mixing:
  rms(total) = 0.89718E-01    rms(broyden)= 0.89718E-01
  rms(prec ) = 0.10546E+00
  weight for this iteration     100.00

 eigenvalues of (default mixing * dielectric matrix)
  average eigenvalue GAMMA=   0.8717
  2.5758  1.1032  0.4786  0.4786  0.3312  0.2630

 Free energy of the ion-electron system (eV)
  ---------------------------------------------------
  alpha Z        PSCENC =        61.00736123
  Ewald energy   TEWEN  =     75465.33085859
  -Hartree energ DENC   =    -84632.40337005
  -exchange      EXHF   =         0.00000000
  -V(xc)+E(xc)   XCENC  =      -347.14521814
  PAW double counting   =     59840.69648378   -58884.68501135
  entropy T*S    EENTRO =        -0.22688564
  eigenvalues    EBANDS =     -2875.87732534
  atomic energy  EATOM  =     10368.97399388
  Solvation  Ediel_sol  =         0.00000000
  ---------------------------------------------------
  free energy    TOTEN  =     -1004.32911305 eV

  energy without entropy =    -1004.10222741  energy(sigma->0) =    -1004.21567023


--------------------------------------------------------------------------------------------------------




--------------------------------------- Iteration      1(   8)  ---------------------------------------


    POTLOK:  cpu time      2.2537: real time      2.2549
    SETDIJ:  cpu time      2.1508: real time      2.1524
    EDDIAG:  cpu time     47.4845: real time     47.5173
     EDDAV:  cpu time    239.7860: real time    239.9301
       DOS:  cpu time      0.0037: real time      0.0037
    CHARGE:  cpu time     27.3351: real time     27.3599
    MIXING:  cpu time      0.0459: real time      0.0459
    --------------------------------------------
      LOOP:  cpu time    319.0596: real time    319.2642

 eigenvalue-minimisations  :  2384
 total energy-change (2. order) :-0.4778880E+00  (-0.3775203E-01)
 number of electron     421.9999999 magnetization 
 augmentation part      -21.1425410 magnetization 

 Broyden mixing:
  rms(total) = 0.18088E+00    rms(broyden)= 0.18088E+00
  rms(prec ) = 0.20755E+00
  weight for this iteration     100.00

 eigenvalues of (default mixing * dielectric matrix)
  average eigenvalue GAMMA=   0.7966
  2.5747  1.1340  0.5017  0.5017  0.2702  0.2970  0.2970

 Free energy of the ion-electron system (eV)
  ---------------------------------------------------
  alpha Z        PSCENC =        61.00736123
  Ewald energy   TEWEN  =     75465.33085859
  -Hartree energ DENC   =    -84631.16473277
  -exchange      EXHF   =         0.00000000
  -V(xc)+E(xc)   XCENC  =      -347.31748806
  PAW double counting   =     59813.07833689   -58857.05943665
  entropy T*S    EENTRO =        -0.23339275
  eigenvalues    EBANDS =     -2877.42250142
  atomic energy  EATOM  =     10368.97399388
  Solvation  Ediel_sol  =         0.00000000
  ---------------------------------------------------
  free energy    TOTEN  =     -1004.80700106 eV

  energy without entropy =    -1004.57360831  energy(sigma->0) =    -1004.69030468


--------------------------------------------------------------------------------------------------------




--------------------------------------- Iteration      1(   9)  ---------------------------------------


    POTLOK:  cpu time      2.2226: real time      2.2484
    SETDIJ:  cpu time      2.1529: real time      2.1543
    EDDIAG:  cpu time     47.5219: real time     47.5552
     EDDAV:  cpu time    236.1192: real time    236.2564
       DOS:  cpu time      0.0029: real time      0.0029
    CHARGE:  cpu time     27.2934: real time     27.3216
    MIXING:  cpu time      0.0490: real time      0.0490
    --------------------------------------------
      LOOP:  cpu time    315.3620: real time    315.5876

 eigenvalue-minimisations  :  2320
 total energy-change (2. order) :-0.1161331E+00  (-0.1342941E-01)
 number of electron     421.9999999 magnetization 
 augmentation part      -21.1371745 magnetization 

 Broyden mixing:
  rms(total) = 0.21203E+00    rms(broyden)= 0.21203E+00
  rms(prec ) = 0.24476E+00
  weight for this iteration     100.00

 eigenvalues of (default mixing * dielectric matrix)
  average eigenvalue GAMMA=   0.7732
  2.5788  1.1375  0.5124  0.5124  0.4061  0.4061  0.3677  0.2643

 Free energy of the ion-electron system (eV)
  ---------------------------------------------------
  alpha Z        PSCENC =        61.00736123
  Ewald energy   TEWEN  =     75465.33085859
  -Hartree energ DENC   =    -84629.90662791
  -exchange      EXHF   =         0.00000000
  -V(xc)+E(xc)   XCENC  =      -347.23925298
  PAW double counting   =     59812.66555769   -58856.64220025
  entropy T*S    EENTRO =        -0.23788463
  eigenvalues    EBANDS =     -2878.87493979
  atomic energy  EATOM  =     10368.97399388
  Solvation  Ediel_sol  =         0.00000000
  ---------------------------------------------------
  free energy    TOTEN  =     -1004.92313417 eV

  energy without entropy =    -1004.68524954  energy(sigma->0) =    -1004.80419186


--------------------------------------------------------------------------------------------------------




--------------------------------------- Iteration      1(  10)  ---------------------------------------


    POTLOK:  cpu time      2.2302: real time      2.2530
    SETDIJ:  cpu time      2.1575: real time      2.1593
    EDDIAG:  cpu time     47.5262: real time     47.5615
     EDDAV:  cpu time    253.6916: real time    253.8423
       DOS:  cpu time      0.0045: real time      0.0045
    CHARGE:  cpu time     27.3382: real time     27.3648
    MIXING:  cpu time      0.0498: real time      0.0498
    --------------------------------------------
      LOOP:  cpu time    332.9981: real time    333.2354

 eigenvalue-minimisations  :  2616
 total energy-change (2. order) : 0.1321974E-01  (-0.2546796E-02)
 number of electron     421.9999999 magnetization 
 augmentation part      -21.1440971 magnetization 

 Broyden mixing:
  rms(total) = 0.16035E+00    rms(broyden)= 0.16035E+00
  rms(prec ) = 0.18385E+00
  weight for this iteration     100.00

 eigenvalues of (default mixing * dielectric matrix)
  average eigenvalue GAMMA=   0.8005
  2.5750  1.1867  0.7287  0.7287  0.4991  0.4991  0.2656  0.3611  0.3611

 Free energy of the ion-electron system (eV)
  ---------------------------------------------------
  alpha Z        PSCENC =        61.00736123
  Ewald energy   TEWEN  =     75465.33085859
  -Hartree energ DENC   =    -84628.97290859
  -exchange      EXHF   =         0.00000000
  -V(xc)+E(xc)   XCENC  =      -347.14617097
  PAW double counting   =     59819.01658196   -58862.98869226
  entropy T*S    EENTRO =        -0.24343019
  eigenvalues    EBANDS =     -2879.88750807
  atomic energy  EATOM  =     10368.97399388
  Solvation  Ediel_sol  =         0.00000000
  ---------------------------------------------------
  free energy    TOTEN  =     -1004.90991443 eV

  energy without entropy =    -1004.66648424  energy(sigma->0) =    -1004.78819933


--------------------------------------------------------------------------------------------------------




--------------------------------------- Iteration      1(  11)  ---------------------------------------


    POTLOK:  cpu time      2.2289: real time      2.2539
    SETDIJ:  cpu time      2.1472: real time      2.1490
    EDDIAG:  cpu time     47.5605: real time     47.5925
     EDDAV:  cpu time    251.4287: real time    251.5764
       DOS:  cpu time      0.0031: real time      0.0031
    CHARGE:  cpu time     27.3385: real time     27.3648
    MIXING:  cpu time      0.0495: real time      0.0495
    --------------------------------------------
      LOOP:  cpu time    330.7564: real time    330.9891

 eigenvalue-minimisations  :  2576
 total energy-change (2. order) : 0.3554816E-01  (-0.5564567E-02)
 number of electron     421.9999999 magnetization 
 augmentation part      -21.1662527 magnetization 

 Broyden mixing:
  rms(total) = 0.61862E-01    rms(broyden)= 0.61862E-01
  rms(prec ) = 0.71671E-01
  weight for this iteration     100.00

 eigenvalues of (default mixing * dielectric matrix)
  average eigenvalue GAMMA=   0.8097
  2.5697  1.2104  0.9781  0.9781  0.4419  0.4419  0.4007  0.4007  0.2665  0.4090

 Free energy of the ion-electron system (eV)
  ---------------------------------------------------
  alpha Z        PSCENC =        61.00736123
  Ewald energy   TEWEN  =     75465.33085859
  -Hartree energ DENC   =    -84627.16719267
  -exchange      EXHF   =         0.00000000
  -V(xc)+E(xc)   XCENC  =      -346.99316794
  PAW double counting   =     59823.20346536   -58867.16657998
  entropy T*S    EENTRO =        -0.24641085
  eigenvalues    EBANDS =     -2881.81669389
  atomic energy  EATOM  =     10368.97399388
  Solvation  Ediel_sol  =         0.00000000
  ---------------------------------------------------
  free energy    TOTEN  =     -1004.87436627 eV

  energy without entropy =    -1004.62795542  energy(sigma->0) =    -1004.75116084


--------------------------------------------------------------------------------------------------------




--------------------------------------- Iteration      1(  12)  ---------------------------------------


    POTLOK:  cpu time      2.2501: real time      2.2520
    SETDIJ:  cpu time      2.1536: real time      2.1553
    EDDIAG:  cpu time     47.5772: real time     47.6060
     EDDAV:  cpu time    234.1580: real time    234.2955
       DOS:  cpu time      0.0031: real time      0.0031
    CHARGE:  cpu time     27.2996: real time     27.3558
    MIXING:  cpu time      0.0504: real time      0.0504
    --------------------------------------------
      LOOP:  cpu time    313.4918: real time    313.7181

 eigenvalue-minimisations  :  2288
 total energy-change (2. order) :-0.2191961E-01  (-0.3851394E-02)
 number of electron     421.9999999 magnetization 
 augmentation part      -21.1674461 magnetization 

 Broyden mixing:
  rms(total) = 0.70740E-01    rms(broyden)= 0.70740E-01
  rms(prec ) = 0.82550E-01
  weight for this iteration     100.00

 eigenvalues of (default mixing * dielectric matrix)
  average eigenvalue GAMMA=   0.8601
  2.5694  1.2910  1.2910  1.2231  0.5030  0.5030  0.5202  0.5202  0.2660  0.3870
  0.3870

 Free energy of the ion-electron system (eV)
[...]
   -.211E+02 -.278E+02 -.194E+03   0.177E+02 0.271E+02 0.196E+03   0.355E+01 0.779E+00 -.278E+01   -.733E-04 -.834E-04 -.114E-03
 -----------------------------------------------------------------------------------------------
   -.169E+02 0.194E+01 0.100E+02   -.711E-14 0.142E-12 -.227E-12   0.169E+02 -.194E+01 -.100E+02   -.170E-04 -.508E-04 -.109E-01


 POSITION                                       TOTAL-FORCE (eV/Angst)
 -----------------------------------------------------------------------------------
     10.51770      2.91523     14.75130         0.569710     -0.485529     -0.507622
     11.21810      5.96463     15.54120        -0.561069      0.594154     -0.548400
      8.20691      9.54099     16.38140         0.649123      0.069546     -0.386549
     10.63890      5.43945     17.90067         0.780997     -0.156229      0.218769
      8.81464      3.12622     14.14028        -0.033155     -0.180425     -0.150874
     10.88210      0.11364     18.46805        -0.309363     -0.209261     -1.057247
     11.39000      4.06615     12.30929        -1.393811     -0.535331      0.571316
      8.44174      3.76331     14.19678        -0.246878      0.314428     -0.112873
      7.53002      5.69739     10.00000        -0.372262     -0.296005      1.175292
      8.04156      5.75476     19.03144        -0.237219      0.464921     -0.389313
     12.18720      4.42080     14.07455         0.532955     -0.888144      0.185360
     11.75690      5.63534     15.89132         0.937590     -0.449208      0.444512
      7.39563      3.82158     18.70111         0.298618      0.118816     -0.050495
     10.38250      5.20823     14.21866        -0.491319     -1.198605     -0.314918
     11.76850      5.22646     19.00982        -0.262056     -0.091112     -0.009164
      9.23647      7.07095     10.53945        -0.457029     -0.048492      0.681901
     10.84850      7.07339     17.32662        -0.100280      0.049518     -0.071550
      9.94510      7.19713     12.86102         0.397373     -0.679740     -0.359376
      6.83112      3.53585     19.07900        -0.575915     -0.423780      0.409113
     10.16130      4.45814     14.20744         0.419027      1.284164     -0.160032
      9.00575     13.70890     14.96416         0.238701      0.278903      0.003163
     11.48720      5.98648     10.74797        -0.973723      0.225191     -1.328846
     12.88680      7.40211     16.07746        -0.316716     -0.067177      0.469369
      8.78243      6.87727     11.12579         0.707853      0.475836     -0.743289
     11.38170      2.63370     16.71897        -0.559283     -0.075481     -0.163452
     12.70560      3.85550     14.04437        -0.563817      0.208712      0.195753
      0.09356      4.22507     14.00421         0.488874     -0.533220     -0.244837
     11.11690      7.47374     11.30665        -0.189867     -1.729568      1.073651
      9.33178      3.44260     10.53446        -0.108058      1.165577     -0.566802
     13.06760      5.64832     17.54747         0.285640     -0.304291     -0.044428
     10.12270      3.61742     18.99084        -0.182204     -0.624406     -0.181885
      8.52968      4.66738     12.13192         0.176731      0.143854     -0.574791
      0.44220     13.38470     14.36888        -0.002501     -0.170064     -0.192305
     13.41790      7.62473     15.62130         0.461300      0.217301     -0.463138
      8.43914      4.60524     17.75817         0.086912      0.352530      0.541667
      9.86113      3.53064     16.28822         0.235285     -0.036897     -0.430010
     11.12360      8.09024     11.00961        -0.046081      2.641009     -1.084762
     13.20670      7.64441     10.52256         0.613685      1.694433      0.087371
      1.76426      0.61467     18.44128         0.154621      0.250651      0.561302
     13.40290     11.86480     11.89156        -0.185246     -0.765708      0.153881
      6.27145     13.50990     11.31495         0.887560     -0.596079      0.404655
      5.08923     14.29160     18.23733        -0.558833     -0.931049     -0.043193
      7.14682      1.10717     11.67829        -0.506302      0.147860      0.445293
      3.96146      4.58702     13.22173        -0.276993      0.192126      0.296573
      8.35658      1.21966     19.16343         1.067223      0.551729     -0.290664
      1.58110      6.61975     15.37003         0.951195     -0.275968     -0.469240
      2.37051      3.23441     15.95509         0.930692      0.304993      0.303074
      2.27757      5.99535     18.91346        -0.332576     -0.937866     -0.417906
      2.24035     12.78660     16.24258         0.241292      0.488032      0.278527
      6.71535      5.21806     15.27141         0.425931     -0.127027      0.382541
     13.55140     11.20130     17.10725         0.953353     -1.190695     -0.170001
      2.76871      0.65338     13.49523        -0.587367      1.137740     -0.613179
      6.80793     10.97750     18.29869         0.115060     -0.540496      1.333128
      7.85999     11.08220     14.41431        -0.736482      1.124309      0.085742
      1.12169     10.70940     16.08893        -0.552534      0.321831      0.233279
     13.67020      3.91397     10.99006         0.279988     -0.494303     -0.326773
      4.24135     10.95780     12.96967         0.952657      1.145936     -0.686193
     12.57940      0.41054     13.81234         0.106672     -0.019620      1.147392
      7.89283      9.04151     13.34806         0.217734     -0.667529     -0.364355
      6.19343      1.74468     13.76522        -0.459341     -0.418218     -0.666510
      7.26873      8.73129     19.02487        -0.733700     -0.358914      0.524165
      6.64085      2.86100     15.74892        -0.834757     -0.169052     -0.068939
     10.05590      2.21046     10.52316         0.498632     -0.951696      0.007167
      4.42005      8.97594     14.01836        -0.487706     -1.234446     -0.431583
      3.68009     14.49080     15.40386         0.561586     -0.452850      0.095750
      1.44351      9.85898     10.71023         0.206206     -1.274633     -0.318381
     12.32620      2.20040     10.38089         0.044765      0.213995      0.069643
      5.01112     10.43420     10.67136        -0.572323      0.887897      0.758082
      3.84186      1.57186     18.57550         0.108548      0.317157      1.454899
      5.98290      5.60048     13.10918         0.129557     -0.216031     -0.363990
      9.50129     11.91730     13.00707         0.606315     -0.491258     -0.259982
     10.62920      1.57325     14.06865         0.671477      0.442851      1.788289
     13.43570      6.55836     13.06961         0.807097      0.341720     -0.881427
      4.19534      2.34675     12.59897         0.510864     -0.284586      0.682541
      0.98821      1.10578     10.94127         0.116218     -0.245185      0.083827
     13.97800      1.38469     15.42226        -0.033457      0.462237      0.367498
      7.95719     12.03760     16.66263         0.227287      0.014818     -0.404658
      0.53476     14.36090     16.71982         0.970034      0.776537     -0.866230
     11.82380     11.44450     13.52657        -1.445585     -0.246459     -0.378430
     13.19290      8.83132     13.22004         0.908529      0.299353      0.025017
      6.50805      2.86381     10.27940         0.297753      0.372645      1.047399
      3.76142     12.34360     18.02783         0.011110     -0.014723     -0.158630
      0.57302     12.89200     12.93822         0.849459     -0.392857     -0.343387
      9.86003     13.67060     11.66170         0.410352      0.750718     -0.265238
      5.86649     14.24030     14.72368        -0.651465      0.513752      0.341116
      3.45665      5.28444     15.43738        -0.656744     -0.478689     -0.282949
     13.46730     13.34270     17.75330        -1.079816      0.167114     -0.155724
      9.69815      7.74186     14.18187        -0.463872      1.390313     -0.294266
     11.55850      8.16357     18.01685         0.824816      0.493737      0.420131
     13.81790      4.56680     16.75846        -1.116536      0.015910      1.832425
      4.21034      2.72984     10.28169        -0.880400     -0.111277     -0.142934
     11.39730      9.43075     14.53714        -0.483829     -1.036407     -0.171777
      1.19585      2.27861     14.18430        -0.082437     -0.436793      0.320693
      1.17785      6.84776     12.01813        -0.682286      0.667040     -0.291781
     13.72760      9.77532     11.09631         0.106068     -2.894592     -0.133727
      7.11004     11.30800     10.41301         0.266366      1.004752      0.833197
     10.14470     11.86250     17.50407         0.394664     -0.091350     -0.468854
     11.35070     13.80210     16.88433        -1.264941      0.332582      3.281454
      5.97515      7.82869     12.71135        -0.385346      1.064727     -0.526646
      8.18000      1.44829     16.86114        -0.256642      0.342637      0.541372
     12.11290     13.48260     11.23365        -1.134200      1.233361     -0.199437
     14.39300      5.41908     14.78201        -0.455178      0.483571     -0.618730
      2.25075      7.99807     13.72570         0.346585      0.367446     -0.149926
      9.71132      4.81977     16.95297        -1.373543      0.222175      1.332217
     12.46260     12.94380     15.02572         0.504956      0.733569      1.005020
     11.99600      5.23382     11.80699         2.041750      0.600148      0.346555
      2.26192     13.87940     11.73203         0.263435      0.571172     -0.521439
      4.98258      8.15712     10.52227        -0.146560     -0.638633     -0.012794
      8.61655      6.48689     15.77525         0.457419     -0.569267     -0.237516
      9.73502      0.23373     15.71089        -0.436000      0.388599     -0.944619
      7.29469      4.92591     11.31972         0.085766     -1.148337     -1.138981
      5.14853      6.27008     16.64871        -0.750731     -0.164681     -0.098047
      4.79363     10.08810     17.62969        -1.486435      0.224958      0.193193
      2.42618      9.51511     17.53531         0.584244      0.456920      0.601619
      9.26569      1.18931     12.44648         0.040301     -0.851800     -2.522281
      2.41932      4.95052     11.60829         0.211305     -0.196654     -0.631337
      6.85488     14.12350     16.77922         0.622674     -0.289789      0.481304
      5.36039      8.54169     16.04175         0.186477     -0.487512      0.234068
     11.55650     10.13800     16.70331        -0.621711     -0.015453      0.627285
      1.04271      3.15680     12.02658        -0.366432      0.309030     -0.636982
      1.37870      7.49299     17.39968        -0.631307      0.124682      1.784411
     13.84040      7.94904     18.59616        -0.123003      0.669124     -0.472252
      8.81658     10.24640     11.59346        -0.431573      0.047428     -0.481604
      6.12213     12.46500     13.44615        -0.150603     -1.586156     -1.016587
      1.26081      4.11639     17.78420         0.517069      0.237338      0.582096
     12.74690      2.56377     17.20722         1.411723     -0.458005     -0.288451
      7.60139      8.25175     16.77206        -0.361966      0.558299      0.256816
      1.95326     10.98630     12.63496        -0.248466      0.978637      0.136305
      4.19008     13.60510     10.35932        -0.633044     -0.520385     -0.658647
      4.61438      6.22235     18.96091         0.836632      0.089154      0.278851
     13.41940      0.71891     11.75890         0.309853      0.216945     -1.658714
     13.88930     10.20230     19.28213         0.541161     -0.482344      0.001009
      0.71270      9.69423     14.03077        -0.368513     -0.473662      0.528228
      4.31673      1.99587     16.42663         0.355985      0.062854     -0.863417
 -----------------------------------------------------------------------------------
    total drift:                                0.001818     -0.002696     -0.005892


--------------------------------------------------------------------------------------------------------



  FREE ENERGIE OF THE ION-ELECTRON SYSTEM (eV)
  ---------------------------------------------------
  free  energy   TOTEN  =     -1004.89355911 eV

  energy  without entropy=    -1004.64613944  energy(sigma->0) =    -1004.76984927



--------------------------------------------------------------------------------------------------------


    POTLOK:  cpu time      4.3586: real time      4.3620


--------------------------------------------------------------------------------------------------------


     LOOP+:  cpu time   9682.5929: real time   9689.3965
    4ORBIT:  cpu time      0.0000: real time      0.0000



 total charge

# of ion       s       p       d       tot
------------------------------------------
    1        0.559   0.018   0.000   0.577
    2        0.636   0.041   0.000   0.677
    3        0.579   0.019   0.000   0.598
    4        0.564   0.023   0.000   0.588
    5        0.620   0.038   0.000   0.658
    6        0.456   0.005   0.000   0.461
    7        0.600   0.023   0.000   0.623
    8        0.622   0.036   0.000   0.658
    9        0.540   0.014   0.000   0.554
   10        0.381   0.002   0.000   0.383
   11        0.600   0.035   0.000   0.634
   12        0.631   0.041   0.000   0.671
   13        0.605   0.038   0.000   0.644
   14        0.602   0.030   0.000   0.632
   15        0.374   0.002   0.000   0.377
   16        0.598   0.030   0.000   0.628
   17        0.570   0.020   0.000   0.590
   18        0.585   0.019   0.000   0.604
   19        0.620   0.033   0.000   0.654
   20        0.589   0.032   0.000   0.621
   21        0.560   0.016   0.000   0.576
   22        0.608   0.022   0.000   0.631
   23        0.618   0.038   0.000   0.656
   24        0.605   0.030   0.000   0.636
   25        0.583   0.020   0.000   0.602
   26        0.605   0.032   0.000   0.637
   27        0.594   0.022   0.000   0.616
   28        0.665   0.048   0.000   0.713
   29        0.589   0.021   0.000   0.610
   30        0.544   0.016   0.000   0.560
   31        0.393   0.002   0.000   0.395
   32        0.568   0.015   0.000   0.583
   33        0.542   0.019   0.000   0.561
   34        0.626   0.037   0.000   0.663
   35        0.548   0.017   0.000   0.565
   36        0.583   0.020   0.000   0.602
   37        0.664   0.045   0.000   0.709
   38        0.404   0.003   0.000   0.406
   39        0.847   0.765   0.000   1.613
   40        0.772   1.002   0.000   1.774
   41        0.765   0.897   0.000   1.661
   42        0.798   0.858   0.000   1.656
   43        0.761   0.927   0.000   1.688
   44        0.763   0.971   0.000   1.733
   45        0.932   0.577   0.000   1.509
   46        0.770   1.036   0.000   1.806
   47        0.769   0.926   0.000   1.696
   48        0.799   0.850   0.000   1.650
   49        0.762   0.904   0.000   1.666
   50        0.758   0.936   0.000   1.694
   51        0.764   0.935   0.000   1.700
   52        0.774   0.952   0.000   1.726
   53        0.822   0.838   0.000   1.660
   54        0.778   0.893   0.000   1.671
   55        0.760   0.923   0.000   1.684
   56        0.798   0.891   0.000   1.689
   57        0.759   0.920   0.000   1.679
   58        0.759   0.963   0.000   1.722
   59        0.762   0.935   0.000   1.697
   60        0.763   0.946   0.000   1.709
   61        0.876   0.702   0.000   1.578
   62        0.766   0.876   0.000   1.642
   63        0.774   0.937   0.000   1.711
   64        0.758   0.976   0.000   1.734
   65        0.771   0.926   0.000   1.697
   66        0.850   0.761   0.000   1.612
   67        0.781   0.916   0.000   1.697
   68        0.786   0.863   0.000   1.649
   69        0.815   0.886   0.000   1.700
   70        0.756   1.002   0.000   1.758
   71        0.773   0.939   0.000   1.712
   72        0.756   1.038   0.000   1.793
   73        0.762   0.942   0.000   1.704
   74        0.769   0.914   0.000   1.683
   75        0.819   0.829   0.000   1.648
   76        0.766   0.908   0.000   1.674
   77        0.766   0.920   0.000   1.686
   78        0.771   0.963   0.000   1.734
   79        0.784   0.934   0.000   1.718
   80        0.769   0.923   0.000   1.692
   81        0.798   0.858   0.000   1.657
   82        0.818   0.783   0.000   1.601
   83        0.756   0.958   0.000   1.713
   84        0.791   0.892   0.000   1.683
   85        0.770   1.009   0.000   1.779
   86        0.774   0.939   0.000   1.713
   87        0.837   0.875   0.000   1.712
   88        0.748   0.981   0.000   1.729
   89        0.787   0.877   0.000   1.664
   90        0.759   0.998   0.000   1.756
   91        0.848   0.750   0.000   1.598
   92        0.759   0.963   0.000   1.722
   93        0.767   0.921   0.000   1.688
   94        0.791   0.825   0.000   1.615
   95        0.776   0.852   0.000   1.628
   96        0.805   0.820   0.000   1.625
   97        0.804   0.847   0.000   1.651
   98        0.731   0.947   0.000   1.678
   99        0.762   0.955   0.000   1.718
  100        0.759   0.981   0.000   1.741
  101        0.800   0.915   0.000   1.716
  102        0.770   1.048   0.000   1.819
  103        0.761   0.964   0.000   1.726
  104        0.766   0.991   0.000   1.757
  105        0.791   0.877   0.000   1.668
  106        0.759   1.060   0.000   1.819
  107        0.764   0.938   0.000   1.702
  108        0.878   0.722   0.000   1.601
  109        0.756   0.996   0.000   1.752
  110        0.768   0.988   0.000   1.755
  111        0.736   0.961   0.000   1.697
  112        0.760   0.944   0.000   1.703
  113        0.758   0.885   0.000   1.643
  114        0.793   0.861   0.000   1.654
  115        0.765   1.018   0.000   1.783
  116        0.784   0.891   0.000   1.675
  117        0.764   0.953   0.000   1.717
  118        0.766   0.942   0.000   1.708
  119        0.760   0.937   0.000   1.697
  120        0.763   0.938   0.000   1.701
  121        0.766   0.947   0.000   1.712
  122        0.811   0.801   0.000   1.611
  123        0.802   0.882   0.000   1.683
  124        0.763   0.922   0.000   1.685
  125        0.787   0.851   0.000   1.638
  126        0.797   0.874   0.000   1.671
  127        0.765   0.981   0.000   1.746
  128        0.766   0.965   0.000   1.731
  129        0.847   0.749   0.000   1.596
  130        0.876   0.701   0.000   1.577
  131        0.761   0.966   0.000   1.728
  132        0.876   0.708   0.000   1.584
  133        0.770   0.943   0.000   1.713
  134        0.769   0.896   0.000   1.666
--------------------------------------------------
tot         96.791  87.966   0.000 184.757


 total amount of memory used by VASP MPI-rank0   412658. kBytes
=======================================================================

   base                                    :      30000. kBytes
   nonl-proj                               :      97655. kBytes
   fftplans                                :     114289. kBytes
   grid                                    :      88184. kBytes
   one-center                              :         27. kBytes
   wavefun                                 :      82503. kBytes

  
  
 General timing and accounting informations for this job:
 ========================================================
  
                  Total CPU time used (sec):     9847.598
                            User time (sec):     8797.495
                          System time (sec):     1050.103
                         Elapsed time (sec):     9854.490
  
                   Maximum memory used (kb):      682716.
                   Average memory used (kb):          N/A
  
                          Minor page faults:     10408269
                          Major page faults:         1205
                 Voluntary context switches:         3174
