 vasp.6.5.0 16Dec24 (build Jan 20 2025 08:32:48) complex                         
 executed on        HPECrayEX_GCC date 2025.07.28  14:21:40
 running  128 mpi-ranks, with    1 threads/rank, on    1 nodes
 distrk:  each k-point on  128 cores,    1 groups
 distr:  one band on NCORE=  16 cores,    8 groups


--------------------------------------------------------------------------------------------------------


 INCAR:
   SYSTEM = a-Si SPC
   NCORE = 16
   ISTART = 1
   ICHARG = 1
   ISPIN = 1
   ISYM = 1
   EDIFF = 1E-6
   NELM = 150
   EDIFFG = -0.01
   NSW = 0
   ISIF = 2
   IBRION = -1
   PREC = Accurate
   ENCUT = 1200
   KSPACING = 0.23
   KGAMMA = .TRUE.
   METAGGA = SCAN
   LASPH = .TRUE.
   LDIAG = .FALSE.
   LMIXTAU = .TRUE.
   ADDGRID = .TRUE.
   ALGO = Normal
   ISMEAR = 0
   SIGMA = 0.1
   LORBIT = 11
   NEDOS = 2000
   LWAVE = .FALSE.
   LCHARG = .FALSE.

 POTCAR:    PAW_PBE H 15Jun2001                   
 POTCAR:    PAW_PBE Si 05Jan2001                  
 POTCAR:    PAW_PBE H 15Jun2001                   
   SHA256 =  030f79b5d3ab3cf0e668861823c8fb652ff669f3e15e46930bd03bfd63a607b6 H/POTCAR              
   COPYR  = (c) Copyright 15Jun2001 Georg Kresse                                                    
   COPYR  = This file is part of the software VASP. Any use, copying, and all other rights are regul
   COPYR  = If you do not have a valid VASP license, you may not use, copy or distribute this file. 
   VRHFIN =H: ultrasoft test                                                                        
   LEXCH  = PE                                                                                      
   EATOM  =    12.4884 eV,    0.9179 Ry                                                             
                                                                                                    
   TITEL  = PAW_PBE H 15Jun2001                                                                     
   LULTRA =        F    use ultrasoft PP ?                                                          
   IUNSCR =        0    unscreen: 0-lin 1-nonlin 2-no                                               
   RPACOR =    0.000    partial core radius                                                         
   POMASS =    1.000; ZVAL   =    1.000    mass and valenz                                          
   RCORE  =    1.100    outmost cutoff radius                                                       
   RWIGS  =    0.700; RWIGS  =    0.370    wigner-seitz radius (au A)                               
   ENMAX  =  250.000; ENMIN  =  200.000 eV                                                          
   RCLOC  =    0.701    cutoff for local pot                                                        
   LCOR   =        T    correct aug charges                                                         
   LPAW   =        T    paw PP                                                                      
   EAUG   =  400.000                                                                                
   RMAX   =    1.123    core radius for proj-oper                                                   
   RAUG   =    1.200    factor for augmentation sphere                                              
   RDEP   =    1.112    radius for radial grids                                                     
   RDEPT  =    0.926    core radius for aug-charge                                                  
                                                                                                    
   Atomic configuration                                                                             
    2 entries                                                                                       
     n  l   j            E        occ.                                                              
     1  0  0.50        -6.4927   1.0000                                                             
     2  1  0.50        -3.4015   0.0000                                                             
   Description                                                                                      
     l       E           TYP  RCUT    TYP  RCUT                                                     
     0     -6.4927494     23  1.100                                                                 
     0      6.8029130     23  1.100                                                                 
     1     -4.0817478     23  1.100                                                                 
  local pseudopotential read in
  atomic valenz-charges read in
  non local Contribution for L=           0  read in
    real space projection operators read in
  non local Contribution for L=           0  read in
    real space projection operators read in
  non local Contribution for L=           1  read in
    real space projection operators read in
    PAW grid and wavefunctions read in

   number of l-projection  operators is LMAX  =           3
   number of lm-projection operators is LMMAX =           5

 POTCAR:    PAW_PBE Si 05Jan2001                  
   SHA256 =  79d9987ad8750f624c4d6acb2a16d13abf6a777132adc04dc6c8399be72b42bb Si/POTCAR             
   COPYR  = (c) Copyright 05Jan2001 Georg Kresse                                                    
   COPYR  = This file is part of the software VASP. Any use, copying, and all other rights are regul
   COPYR  = If you do not have a valid VASP license, you may not use, copy or distribute this file. 
   VRHFIN =Si: s2p2                                                                                 
   LEXCH  = PE                                                                                      
   EATOM  =   103.0669 eV,    7.5752 Ry                                                             
                                                                                                    
   TITEL  = PAW_PBE Si 05Jan2001                                                                    
   LULTRA =        F    use ultrasoft PP ?                                                          
   IUNSCR =        1    unscreen: 0-lin 1-nonlin 2-no                                               
   RPACOR =    1.500    partial core radius                                                         
   POMASS =   28.085; ZVAL   =    4.000    mass and valenz                                          
   RCORE  =    1.900    outmost cutoff radius                                                       
   RWIGS  =    2.480; RWIGS  =    1.312    wigner-seitz radius (au A)                               
   ENMAX  =  245.345; ENMIN  =  184.009 eV                                                          
   ICORE  =        2    local potential                                                             
   LCOR   =        T    correct aug charges                                                         
   LPAW   =        T    paw PP                                                                      
   EAUG   =  322.069                                                                                
   DEXC   =    0.000                                                                                
   RMAX   =    1.950    core radius for proj-oper                                                   
   RAUG   =    1.300    factor for augmentation sphere                                              
   RDEP   =    1.993    radius for radial grids                                                     
   RDEPT  =    1.837    core radius for aug-charge                                                  
                                                                                                    
   Atomic configuration                                                                             
    6 entries                                                                                       
     n  l   j            E        occ.                                                              
     1  0  0.50     -1785.8828   2.0000                                                             
     2  0  0.50      -139.4969   2.0000                                                             
     2  1  1.50       -95.5546   6.0000                                                             
     3  0  0.50       -10.8127   2.0000                                                             
     3  1  0.50        -4.0811   2.0000                                                             
     3  2  1.50        -4.0817   0.0000                                                             
   Description                                                                                      
     l       E           TYP  RCUT    TYP  RCUT                                                     
     0    -10.8127223     23  1.900                                                                 
     0     -7.6451159     23  1.900                                                                 
     1     -4.0811372     23  1.900                                                                 
     1      2.4879257     23  1.900                                                                 
     2     -4.0817478      7  1.900                                                                 
  local pseudopotential read in
  partial core-charges read in
  partial kinetic energy density read in
  atomic valenz-charges read in
  non local Contribution for L=           0  read in
    real space projection operators read in
  non local Contribution for L=           0  read in
    real space projection operators read in
  non local Contribution for L=           1  read in
    real space projection operators read in
  non local Contribution for L=           1  read in
    real space projection operators read in
    PAW grid and wavefunctions read in

   number of l-projection  operators is LMAX  =           4
   number of lm-projection operators is LMMAX =           8

 -----------------------------------------------------------------------------
|                                                                             |
|               ----> ADVICE to this user running VASP <----                  |
|                                                                             |
|     You have a (more or less) 'large supercell' and for larger cells it     |
|     might be more efficient to use real-space projection operators.         |
|     Therefore, try LREAL= Auto in the INCAR file.                           |
|     Mind: For very accurate calculation, you might also keep the            |
|     reciprocal projection scheme (i.e. LREAL=.FALSE.).                      |
|                                                                             |
 -----------------------------------------------------------------------------

 -----------------------------------------------------------------------------
|                                                                             |
|               ----> ADVICE to this user running VASP <----                  |
|                                                                             |
|     You enforced a specific xc type in the INCAR file but a different       |
|     type was found in the POTCAR file.                                      |
|     I HOPE YOU KNOW WHAT YOU ARE DOING!                                     |
|                                                                             |
 -----------------------------------------------------------------------------

  PAW_PBE H 15Jun2001                   :
 energy of atom  1       EATOM=  -12.4884
 kinetic energy error for atom=    0.0000 (will be added to EATOM!!)
  PAW_PBE Si 05Jan2001                  :
 energy of atom  2       EATOM= -103.0669
 kinetic energy error for atom=    0.0001 (will be added to EATOM!!)


 POSCAR:  H Si
  positions in cartesian coordinates
  No initial velocities read in


 exchange-correlation table for SCAN
   RHO(1)=    0.500       N(1)  =     2000
   RHO(2)=  100.500       N(2)  =     4000



--------------------------------------------------------------------------------------------------------


 ion  position               nearest neighbor table
   1  0.540  0.330  0.493-  75 1.49
   2  0.035  0.928  0.368-   4 2.32  15 2.41  16 2.42
   3  0.757  0.321  0.393-  37 2.29  43 2.30  10 2.31
   4  0.142  0.821  0.395-   2 2.32  56 2.34  42 2.36  52 2.36
   5  0.810  0.020  0.394-  30 2.29  16 2.32  54 2.32
   6  0.773  0.253  0.607-  29 2.24  74 2.26  14 2.35
   7  0.913  0.510  0.571-  61 2.30  82 2.34  64 2.36  11 2.41
   8  0.483  0.791  0.595-  28 2.32  27 2.36  84 2.42  68 2.43
   9  0.126  0.619  0.597-  32 2.24  66 2.28  60 2.50
  10  0.751  0.227  0.460-   3 2.31  55 2.35  14 2.35  54 2.36
  11  0.981  0.407  0.629-  32 2.27  63 2.36   7 2.41
  12  0.378  0.877  0.476-  83 2.27  53 2.31  56 2.32  84 2.40
  13  0.509  0.299  0.603-  29 2.24  36 2.30  75 2.36
  14  0.809  0.300  0.529-  64 2.34  10 2.35   6 2.35  85 2.41  74 2.90
  15  0.091  0.071  0.400-  76 2.40  70 2.40   2 2.41  80 2.43
  16  0.888  0.881  0.399-   5 2.32  20 2.34  23 2.41   2 2.42
  17  0.814  0.631  0.446-  39 2.33  72 2.39  23 2.40  59 2.47
  18  0.701  0.818  0.537-  28 2.35  65 2.37  68 2.38  72 2.41
  19  0.590  0.086  0.540-  29 2.30  55 2.38  73 2.42  65 2.45
  20  0.938  0.826  0.474-  41 2.32  72 2.32  52 2.34  16 2.34
  21  0.335  0.134  0.499-  34 2.35  73 2.37  57 2.37  40 2.38
  22  0.362  0.597  0.467-  51 2.33  53 2.34  48 2.39  60 2.52
  23  0.797  0.745  0.384-  33 2.31  17 2.40  16 2.41
  24  0.498  0.182  0.404-  46 2.24  40 2.30  55 2.34
  25  0.578  0.916  0.399-  33 2.26  30 2.26  83 2.28
  26  0.096  0.246  0.479-  80 2.31  85 2.34  81 2.35  57 2.38
  27  0.349  0.709  0.617-   8 2.36  45 2.37  62 2.37
  28  0.562  0.738  0.528-  53 2.32   8 2.32  58 2.33  18 2.35  68 2.86
  29  0.631  0.208  0.587-   6 2.24  13 2.24  19 2.30
  30  0.678  0.007  0.439-  25 2.26   5 2.29  55 2.35  65 2.38
  31  0.527  0.686  0.404-  33 2.26  53 2.29  48 2.31
  32  0.122  0.473  0.624-   9 2.24  44 2.25  11 2.27
  33  0.642  0.779  0.378-  31 2.26  25 2.26  23 2.31
  34  0.326  0.294  0.512-  75 2.31  21 2.35  50 2.36  81 2.36
  35  0.152  0.189  0.596-  50 2.29  63 2.30  57 2.33
  36  0.400  0.189  0.620-  13 2.30  50 2.34  73 2.39
  37  0.657  0.439  0.410-  78 2.26   3 2.29  39 2.30
  38  0.262  0.305  0.386-  46 2.31  70 2.33  81 2.36
  39  0.699  0.532  0.473-  37 2.30  17 2.33  58 2.36  64 2.40
  40  0.374  0.088  0.420-  24 2.30  83 2.30  70 2.33  21 2.38
  41  0.002  0.939  0.523-  20 2.32  76 2.34  69 2.42  67 2.42
  42  0.168  0.670  0.366-  71 2.35   4 2.36  52 2.96
  43  0.910  0.354  0.401-   3 2.30  59 2.44  80 2.58
  44  0.271  0.432  0.623-  32 2.25  50 2.34  62 2.38
  45  0.258  0.832  0.588-  27 2.37  84 2.39  67 2.41  49 2.69
  46  0.420  0.314  0.395-  78 2.23  24 2.24  38 2.31
  47  0.669  0.513  0.597-  77 2.32  58 2.35  64 2.37
  48  0.419  0.574  0.388-  78 2.28  31 2.31  22 2.39
  49  0.166  0.759  0.513-  56 2.33  60 2.35  67 2.35  52 2.37  45 2.69
  50  0.279  0.282  0.593-  35 2.29  44 2.34  36 2.34  34 2.36
  51  0.447  0.518  0.525-  58 2.31  75 2.32  22 2.33  62 2.36
  52  0.059  0.730  0.450-  71 2.32  20 2.34   4 2.36  49 2.37  42 2.96
  53  0.447  0.734  0.470-  31 2.29  12 2.31  28 2.32  22 2.34
  54  0.871  0.118  0.452-   5 2.32  80 2.34  10 2.36  69 2.42
  55  0.610  0.147  0.461-  24 2.34  30 2.35  10 2.35  19 2.38
  56  0.221  0.875  0.462-  12 2.32  49 2.33   4 2.34  76 2.38
  57  0.177  0.127  0.520-  76 2.31  35 2.33  21 2.37  26 2.38
  58  0.593  0.581  0.532-  51 2.31  28 2.33  47 2.35  39 2.36
  59  0.931  0.512  0.430-  61 2.35  71 2.37  43 2.44  17 2.47
  60  0.228  0.611  0.524-  79 2.33  49 2.35  62 2.38   9 2.50  22 2.52
  61  0.995  0.470  0.504-   7 2.30  79 2.32  85 2.33  59 2.35  71 3.12
  62  0.336  0.561  0.582-  51 2.36  27 2.37  60 2.38  44 2.38
  63  0.010  0.261  0.596-  35 2.30  85 2.32  74 2.32  11 2.36
  64  0.773  0.456  0.539-  14 2.34   7 2.36  47 2.37  39 2.40
  65  0.714  0.978  0.521-  18 2.37  30 2.38  19 2.45  69 2.51
  66  0.023  0.728  0.620-   9 2.28  67 2.31  82 2.35
  67  0.094  0.841  0.575-  66 2.31  49 2.35  45 2.41  41 2.42
  68  0.646  0.792  0.616-  77 2.36  18 2.38   8 2.43  28 2.86
  69  0.873  0.042  0.529-  74 2.35  41 2.42  54 2.42  65 2.51
  70  0.237  0.147  0.390-  38 2.33  40 2.33  15 2.40
  71  0.076  0.583  0.419-  52 2.32  79 2.35  42 2.35  59 2.37  61 3.12
  72  0.834  0.730  0.513-  20 2.32  82 2.36  17 2.39  18 2.41
  73  0.429  0.073  0.561-  21 2.37  84 2.38  36 2.39  19 2.42
  74  0.889  0.157  0.588-   6 2.26  63 2.32  69 2.35  14 2.90
  75  0.468  0.360  0.527-   1 1.49  34 2.31  51 2.32  13 2.36
  76  0.121  0.002  0.477-  57 2.31  41 2.34  56 2.38  15 2.40
  77  0.734  0.656  0.611-  47 2.32  68 2.36  82 2.36
  78  0.503  0.442  0.395-  46 2.23  37 2.26  48 2.28
  79  0.146  0.500  0.481-  61 2.32  60 2.33  71 2.35  81 2.37
  80  0.994  0.202  0.420-  26 2.31  54 2.34  15 2.43  43 2.58
  81  0.211  0.355  0.462-  26 2.35  38 2.36  34 2.36  79 2.37
  82  0.888  0.666  0.586-   7 2.34  66 2.35  77 2.36  72 2.36
  83  0.424  0.940  0.405-  12 2.27  25 2.28  40 2.30
  84  0.391  0.913  0.560-  73 2.38  45 2.39  12 2.40   8 2.42
  85  0.973  0.314  0.519-  63 2.32  61 2.33  26 2.34  14 2.41

  LATTYP: Found a simple tetragonal cell.
 ALAT       =    14.5214782167
 C/A-ratio  =     1.9197138359
  
  Lattice vectors:
  
 A1 = (  14.5214782167,   0.0000000000,   0.0000000000)
 A2 = (   0.0000000000,  14.5214782167,   0.0000000000)
 A3 = (   0.0000000000,   0.0000000000,  27.8770826500)


Analysis of symmetry for initial positions (statically):
=====================================================================
 Subroutine PRICEL returns:
 Original cell was already a primitive cell.
 

 Routine SETGRP: Setting up the symmetry group for a 
 simple tetragonal supercell.


 Subroutine GETGRP returns: Found  1 space group operations
 (whereof  1 operations were pure point group operations)
 out of a pool of 16 trial point group operations.


The static configuration has the point symmetry C_1 .


Analysis of symmetry for dynamics (positions and initial velocities):
=====================================================================
 Subroutine PRICEL returns:
 Original cell was already a primitive cell.
 

 Routine SETGRP: Setting up the symmetry group for a 
 simple tetragonal supercell.


 Subroutine GETGRP returns: Found  1 space group operations
 (whereof  1 operations were pure point group operations)
 out of a pool of 16 trial point group operations.


The dynamic configuration has the point symmetry C_1 .


 Subroutine INISYM returns: Found  1 space group operations
 (whereof  1 operations are pure point group operations),
 and found     1 'primitive' translations


----------------------------------------------------------------------------------------

                                     Primitive cell                                     

  volume of cell :    5878.5332

  direct lattice vectors                    reciprocal lattice vectors
    14.521478217  0.000000000  0.000000000     0.068863513  0.000000000  0.000000000
     0.000000000 14.521478217  0.000000000     0.000000000  0.068863513  0.000000000
     0.000000000  0.000000000 27.877082650     0.000000000  0.000000000  0.035871759

  length of vectors
    14.521478217 14.521478217 27.877082650     0.068863513  0.068863513  0.035871759

  position of ions in fractional coordinates (direct lattice)
     0.540367923  0.330206029  0.492531918
     0.035428128  0.927514167  0.367599140
     0.756557172  0.321480201  0.392662234
     0.142160941  0.820626775  0.394945968
     0.809726300  0.020159657  0.393743232
     0.773202885  0.253052322  0.607177849
     0.912967391  0.509663956  0.571080945
     0.483200979  0.791182107  0.594719007
     0.125803381  0.618550868  0.596505887
     0.750765912  0.227357805  0.459543806
     0.980680141  0.407415398  0.629102337
     0.378315776  0.876843914  0.476012691
     0.509460148  0.298684066  0.602674364
     0.809034349  0.299680465  0.528549221
     0.090946961  0.070616152  0.400136446
     0.887654864  0.881487744  0.399462922
     0.813838884  0.630565885  0.445631427
     0.701474153  0.817836917  0.537130050
     0.589798647  0.085586958  0.539588431
     0.937872554  0.826430403  0.474005623
     0.334965070  0.134373937  0.499310346
     0.362387665  0.597473022  0.467393477
     0.796829351  0.745464758  0.384371878
     0.498433301  0.181666677  0.403752291
     0.578160578  0.915507400  0.398718643
     0.096464570  0.245757004  0.478740372
     0.349268436  0.709478178  0.617374037
     0.561967603  0.737860026  0.527727338
     0.630964768  0.208011452  0.587425411
     0.678405191  0.006895771  0.438596912
     0.527057997  0.685959354  0.403625614
     0.121881652  0.473292369  0.623636819
     0.641883449  0.778895402  0.378382315
     0.326224905  0.294192030  0.512345726
     0.151569388  0.188773063  0.595961991
     0.400150626  0.188711887  0.619654630
     0.656595908  0.438660285  0.409633523
     0.262145188  0.304691293  0.385674258
     0.698582786  0.531743691  0.472761211
     0.374254944  0.088306764  0.419942964
     0.002430098  0.938568802  0.522729405
     0.167780912  0.670280690  0.366154623
     0.910408801  0.354441831  0.400763801
     0.271201825  0.432165607  0.623093787
     0.257751047  0.831529276  0.587576101
     0.419892097  0.313547916  0.394733771
     0.668662349  0.512685713  0.597108631
     0.418776711  0.573713958  0.387781572
     0.166258389  0.759016461  0.512601772
     0.278647418  0.281935104  0.592989372
     0.447338819  0.518040199  0.525111352
     0.059199504  0.730401496  0.450381429
     0.447418463  0.734310638  0.469825155
     0.870568348  0.118145073  0.451587637
     0.610385958  0.147052595  0.461165160
     0.220603671  0.875362752  0.462303268
     0.176661311  0.126974085  0.519845875
     0.592921199  0.580895093  0.531664723
     0.930875825  0.511508240  0.429555373
     0.227622818  0.611014695  0.524150931
     0.994968755  0.469731556  0.503844120
     0.336078541  0.561027435  0.582433891
     0.010077468  0.260700627  0.595676724
     0.772933618  0.455701499  0.538772214
     0.713810909  0.977551155  0.520684032
     0.022537732  0.728061644  0.620069182
     0.093776165  0.841003400  0.574728672
     0.645617545  0.792135044  0.616168595
     0.873030743  0.042444501  0.528757662
     0.236582862  0.146788712  0.389829481
     0.075701384  0.583298962  0.418770391
     0.834347006  0.730230299  0.513079337
     0.428551450  0.072580342  0.560907324
     0.889370583  0.156597053  0.588115171
     0.468365291  0.359795027  0.527309709
     0.121003986  0.002394369  0.476916419
     0.733618867  0.655990575  0.611110103
     0.503492017  0.442281713  0.394739826
     0.145975319  0.500057750  0.481207912
     0.994062692  0.201931655  0.419536972
     0.210947084  0.355094053  0.461634562
     0.888313758  0.666094520  0.585739422
     0.423835266  0.940372500  0.405494453
     0.390884040  0.912781987  0.559884801
     0.973325163  0.313836393  0.519462267

  ion indices of the primitive-cell ions
   primitive index   ion index
                 1           1
                 2           2
                 3           3
                 4           4
                 5           5
                 6           6
                 7           7
                 8           8
                 9           9
                10          10
                11          11
                12          12
                13          13
                14          14
                15          15
                16          16
                17          17
                18          18
                19          19
                20          20
                21          21
                22          22
                23          23
                24          24
                25          25
                26          26
                27          27
                28          28
                29          29
                30          30
                31          31
                32          32
                33          33
                34          34
                35          35
                36          36
                37          37
                38          38
                39          39
                40          40
                41          41
                42          42
                43          43
                44          44
                45          45
                46          46
                47          47
                48          48
                49          49
                50          50
                51          51
                52          52
                53          53
                54          54
                55          55
                56          56
                57          57
                58          58
                59          59
                60          60
                61          61
                62          62
                63          63
                64          64
                65          65
                66          66
                67          67
                68          68
                69          69
                70          70
                71          71
                72          72
                73          73
                74          74
                75          75
                76          76
                77          77
                78          78
                79          79
                80          80
                81          81
                82          82
                83          83
                84          84
                85          85

----------------------------------------------------------------------------------------


 -----------------------------------------------------------------------------
|                                                                             |
|           W    W    AA    RRRRR   N    N  II  N    N   GGGG   !!!           |
|           W    W   A  A   R    R  NN   N  II  NN   N  G    G  !!!           |
|           W    W  A    A  R    R  N N  N  II  N N  N  G       !!!           |
|           W WW W  AAAAAA  RRRRR   N  N N  II  N  N N  G  GGG   !            |
|           WW  WW  A    A  R   R   N   NN  II  N   NN  G    G                |
|           W    W  A    A  R    R  N    N  II  N    N   GGGG   !!!           |
|                                                                             |
|     The requested file  could not be found or opened for reading            |
|     k-point information. Automatic k-point generation is used as a          |
|     fallback, which may lead to unwanted results.                           |
|                                                                             |
 -----------------------------------------------------------------------------



Automatic generation of k-mesh.
 Grid dimensions derived from KSPACING:
 generate k-points for:    2    2    1

 Generating k-lattice:

  Cartesian coordinates                     Fractional coordinates (reciprocal lattice)
     0.034431756  0.000000000  0.000000000     0.500000000  0.000000000  0.000000000
     0.000000000  0.034431756  0.000000000     0.000000000  0.500000000  0.000000000
     0.000000000  0.000000000  0.035871759     0.000000000  0.000000000  1.000000000

  Length of vectors
     0.034431756  0.034431756  0.035871759

  Shift w.r.t. Gamma in fractional coordinates (k-lattice)
     0.000000000  0.000000000  0.000000000

 
 Subroutine IBZKPT returns following result:
 ===========================================
 
 Found      4 irreducible k-points:
 
 Following reciprocal coordinates:
            Coordinates               Weight
  0.000000  0.000000  0.000000      1.000000
  0.500000  0.000000  0.000000      1.000000
  0.000000  0.500000  0.000000      1.000000
  0.500000  0.500000  0.000000      1.000000
 
 Following cartesian coordinates:
            Coordinates               Weight
  0.000000  0.000000  0.000000      1.000000
  0.034432  0.000000  0.000000      1.000000
  0.000000  0.034432  0.000000      1.000000
  0.034432  0.034432  0.000000      1.000000
 


--------------------------------------------------------------------------------------------------------




 Dimension of arrays:
   k-points           NKPTS =      4   k-points in BZ     NKDIM =      4   number of bands    NBANDS=    216
   number of dos      NEDOS =   2000   number of ions     NIONS =     85
   non local maximal  LDIM  =      4   non local SUM 2l+1 LMDIM =      8
   total plane-waves  NPLWV = ******
   max r-space proj   IRMAX =      1   max aug-charges    IRDMAX= 411102
   dimension x,y,z NGX =   168 NGY =  168 NGZ =  320
   dimension x,y,z NGXF=   336 NGYF=  336 NGZF=  640
   support grid    NGXF=   672 NGYF=  672 NGZF= 1280
   ions per type =               1  84
   NGX,Y,Z   is equivalent  to a cutoff of  19.23, 19.23, 19.08 a.u.
   NGXF,Y,Z  is equivalent  to a cutoff of  38.47, 38.47, 38.17 a.u.

 SYSTEM =  a-Si SPC                                
 POSCAR =   H Si                                   

 Startparameter for this run:
   NWRITE =      2    write-flag & timer
   PREC   = accura    normal or accurate (medium, high low for compatibility)
   ISTART =      1    job   : 0-new  1-cont  2-samecut
   ICHARG =      1    charge: 1-file 2-atom 10-const
   ISPIN  =      1    spin polarized calculation?
   LNONCOLLINEAR =      F non collinear calculations
   LSORBIT =      F    spin-orbit coupling
   INIWAV =      1    electr: 0-lowe 1-rand  2-diag
   LASPH  =      T    aspherical Exc in radial PAW
 Electronic Relaxation 1
   ENCUT  = 1200.0 eV  88.20 Ry    9.39 a.u.  41.02 41.02 78.74*2*pi/ulx,y,z
   ENINI  = 1200.0     initial cutoff
   ENAUG  =  400.0 eV  augmentation charge cutoff
   NELM   =    150;   NELMIN=  2; NELMDL=  0     # of ELM steps 
   EDIFF  = 0.1E-05   stopping-criterion for ELM
   LREAL  =      F    real-space projection
   NLSPLINE    = F    spline interpolate recip. space projectors
   LCOMPAT=      F    compatible to vasp.4.4
   GGA_COMPAT  = T    GGA compatible to vasp.4.4-vasp.4.6
   LMAXPAW     = -100 max onsite density
   LMAXMIX     =    2 max onsite mixed and CHGCAR
   VOSKOWN=      0    Vosko Wilk Nusair interpolation
   ROPT   =    0.00000   0.00000
 Ionic relaxation
   EDIFFG = -.1E-01   stopping-criterion for IOM
   NSW    =      0    number of steps for IOM
   NBLOCK =      1;   KBLOCK =      1    inner block; outer block 
   IBRION =     -1    ionic relax: 0-MD 1-quasi-New 2-CG
   NFREE  =      0    steps in history (QN), initial steepest desc. (CG)
   ISIF   =      2    stress and relaxation
   IWAVPR =     10    prediction:  0-non 1-charg 2-wave 3-comb
   ISYM   =      1    0-nonsym 1-usesym 2-fastsym
   LCORR  =      T    Harris-Foulkes like correction to forces

   POTIM  = 0.5000    time-step for ionic-motion
   TEIN   =    0.0    initial temperature
   TEBEG  =    0.0;   TEEND  =   0.0 temperature during run
   SMASS  =  -3.00    Nose mass-parameter (am)
   estimated Nose-frequenzy (Omega)   =  0.10E-29 period in steps = 0.13E+47 mass=  -0.482E-26a.u.
   SCALEE = 1.0000    scale energy and forces
   NPACO  =    256;   APACO  = 10.0  distance and # of slots for P.C.
   PSTRESS=    0.0 pullay stress

  Mass of Ions in am
   POMASS =   1.00 28.09
  Ionic Valenz
   ZVAL   =   1.00  4.00
  Atomic Wigner-Seitz radii
   RWIGS  =  -1.00 -1.00
  virtual crystal weights 
   VCA    =   1.00  1.00
   NELECT =     337.0000    total number of electrons
   NUPDOWN=      -1.0000    fix difference up-down

 DOS related values:
   EMIN   =  10.00;   EMAX   =-10.00  energy-range for DOS
   EFERMI =   0.00;   METHOD = LEGACY      
   ISMEAR =     0;   SIGMA  =   0.10  broadening in eV -4-tet -1-fermi 0-gaus
   EFERMI_NEDOS =   21; number of points for ismear=-14 and -15

 Electronic relaxation 2 (details)
   IALGO  =     38    algorithm
   LDIAG  =      F    sub-space diagonalisation (order eigenvalues)
   LSUBROT=      F    optimize rotation matrix (better conditioning)
   TURBO    =      0    0=normal 1=particle mesh
   IRESTART =      0    0=no restart 2=restart with 2 vectors
   NREBOOT  =      0    no. of reboots
   NMIN     =      0    reboot dimension
   EREF     =   0.00    reference energy to select bands
   IMIX   =      4    mixing-type and parameters
     AMIX     =   0.40;   BMIX     =  1.00
     AMIX_MAG =   1.60;   BMIX_MAG =  1.00
     AMIN     =   0.10
     WC   =   100.;   INIMIX=   1;  MIXPRE=   1;  MAXMIX= -45

 Intra band minimization:
   WEIMIN = 0.0000     energy-eigenvalue tresh-hold
   EBREAK =  0.12E-08  absolut break condition
   DEPER  =   0.30     relativ break condition  

   TIME   =   0.40     timestep for ELM

  volume/ion in A,a.u.               =      69.16       466.71
  Fermi-wavevector in a.u.,A,eV,Ry     =   0.631241  1.192872  5.421447  0.398465
  Thomas-Fermi vector in A             =   1.694148

 Write flags
   LWAVE        =      F    write WAVECAR
   LDOWNSAMPLE  =      F    k-point downsampling of WAVECAR
   LCHARG       =      F    write CHGCAR
   LVTOT        =      F    write LOCPOT, total local potential
   LVHAR        =      F    write LOCPOT, Hartree potential only
   WRT_POTENTIAL= false  ! write potential to hdf5 file
   LELF         =      F    write electronic localiz. function (ELF)
   LORBIT       =     11    0 simple, 1 ext, 2 COOP (PROOUT), +10 PAW based schemes


 Python interface
   PLUGINS active      =      F    recompile with -DPLUGINS to activate

 Dipole corrections
   LMONO      =      F    monopole corrections only (constant potential shift)
   LDIPOL     =      F    correct potential (dipole corrections)
   IDIPOL     =      0    1-x, 2-y, 3-z, 4-all directions 
   EPSILON    =  1.0000000 bulk dielectric constant
   LVACPOTAV  =      F  vacuum potentials using an averaging scheme for the charge density
   VACPOTFLAT =  0.1000000 required flatness to determine vacuum potential

Coulomb truncation method
  LTRUNCATE          =      F  Coulomb kernel truncation to be used
  IDIMENSIONALITY    =      3  Dimensionality of cutoff (0 molecules / 2 surfaces)
  ISURFACE           =     -1  Direction of surface normal
  LCOARSEN           =      F  Coarsen the charge grid before padding, preferred


 Exchange correlation treatment:
   METAGGA = SCAN    functional components
   XC_C    = 1    coefficients multiplying the functional components
   LIBXC   =     F    Libxc                    
   VOSKOWN =     0    Vosko Wilk Nusair interpolation
   LHFCALC =     F    Hartree Fock is set to
   LHFONE  =     F    Hartree Fock one center treatment
   AEXX    =    0.0000 exact exchange contribution

 Parameters of functionals:
   SCAN:
     P1 =  0.000000E+00
     P2 =  0.000000E+00
     P3 =  0.000000E+00

 Accuracy and mixing parameters for tau-dependent meta-GGA functionals:
   LMAXTAU = 6
   LMIXTAU = T

 Van der Waals corrections
   IVDW    =     0    specifies the selected vdW correction

 Linear response parameters
   LEPSILON=     F    determine dielectric tensor
   LRPA    =     F    only Hartree local field effects (RPA)
   LNABLA  =     F    use nabla operator in PAW spheres
   LVEL    =     F    velocity operator in full k-point grid
   CSHIFT  =0.1000    complex shift for real part using Kramers Kronig
   OMEGAMAX=  -1.0    maximum frequency
   DEG_THRESHOLD= 0.2000000E-02 threshold for treating states as degnerate
   RTIME   =   -0.100 relaxation time in fs
  (WPLASMAI=    0.000 imaginary part of plasma frequency in eV, 0.658/RTIME)
   DFIELD  = 0.0000000 0.0000000 0.0000000 field for delta impulse in time

  Optional k-point grid parameters
   LKPOINTS_OPT  =     F    use optional k-point grid
   KPOINTS_OPT_MODE=     1    mode for optional k-point grid

 Orbital magnetization related:
   ORBITALMAG=     F  switch on orbital magnetization
   LCHIMAG   =     F  perturbation theory with respect to B field
   DQ        =  0.001000  dq finite difference perturbation B field
   LLRAUG    =     F  two centre corrections for induced B field
   LBONE     =     F  B-component reconstruction in AE one-centre
   LVGVCALC  =     T  calculate vGv susceptibility
   LVGVAPPL  =     F  apply vGv susceptibility instead of pGv for G=0

 Random number generation:
   RANDOM_GENERATOR = DEFAULT
   PCG_SEED         = not used


--------------------------------------------------------------------------------------------------------


 Static calculation
 charge density and potential will be updated during run
 non-spin polarized calculation
 Variant of blocked Davidson
 perform Loewdin sub-space diagonalisation
    ordering is kept fixed
    before iterative eigenvector-optimisation
 modified Broyden-mixing scheme, WC =      100.0
 initial mixing is a Kerker type mixing with AMIX =  0.4000 and BMIX =      1.0000
 Hartree-type preconditioning will be used
 using additional bands           47
 reciprocal scheme for non local part
 use partial core corrections
 calculate Harris-corrections to forces   (improved forces if not selfconsistent)
 use gradient corrections 
 use of overlap-Matrix (Vanderbilt PP)
 Gauss-broadening in eV      SIGMA  =   0.10


--------------------------------------------------------------------------------------------------------


  energy-cutoff  :     1200.00
  volume of cell :     5878.53
      direct lattice vectors                 reciprocal lattice vectors
    14.521478217  0.000000000  0.000000000     0.068863513  0.000000000  0.000000000
     0.000000000 14.521478217  0.000000000     0.000000000  0.068863513  0.000000000
     0.000000000  0.000000000 27.877082650     0.000000000  0.000000000  0.035871759

  length of vectors
    14.521478217 14.521478217 27.877082650     0.068863513  0.068863513  0.035871759



 old parameters found on file WAVECAR:
  energy-cutoff  :     1200.00
  volume of cell :     5878.53
      direct lattice vectors                 reciprocal lattice vectors
    14.521478217  0.000000000  0.000000000     0.068863513  0.000000000  0.000000000
     0.000000000 14.521478217  0.000000000     0.000000000  0.068863513  0.000000000
     0.000000000  0.000000000 27.877082650     0.000000000  0.000000000  0.035871759

  length of vectors


 k-points in units of 2pi/SCALE and weight: read from INCAR                         
   0.00000000  0.00000000  0.00000000       0.250
   0.03443176  0.00000000  0.00000000       0.250
   0.00000000  0.03443176  0.00000000       0.250
   0.03443176  0.03443176  0.00000000       0.250

 k-points in reciprocal lattice and weights: read from INCAR                         
   0.00000000  0.00000000  0.00000000       0.250
   0.50000000  0.00000000  0.00000000       0.250
   0.00000000  0.50000000  0.00000000       0.250
   0.50000000  0.50000000  0.00000000       0.250

 position of ions in fractional coordinates (direct lattice) 
   0.54036792  0.33020603  0.49253192
   0.03542813  0.92751417  0.36759914
   0.75655717  0.32148020  0.39266223
   0.14216094  0.82062678  0.39494597
   0.80972630  0.02015966  0.39374323
   0.77320288  0.25305232  0.60717785
   0.91296739  0.50966396  0.57108094
   0.48320098  0.79118211  0.59471901
   0.12580338  0.61855087  0.59650589
   0.75076591  0.22735780  0.45954381
   0.98068014  0.40741540  0.62910234
   0.37831578  0.87684391  0.47601269
   0.50946015  0.29868407  0.60267436
   0.80903435  0.29968046  0.52854922
   0.09094696  0.07061615  0.40013645
   0.88765486  0.88148774  0.39946292
   0.81383888  0.63056588  0.44563143
   0.70147415  0.81783692  0.53713005
   0.58979865  0.08558696  0.53958843
   0.93787255  0.82643040  0.47400562
   0.33496507  0.13437394  0.49931035
   0.36238766  0.59747302  0.46739348
   0.79682935  0.74546476  0.38437188
   0.49843330  0.18166668  0.40375229
   0.57816058  0.91550740  0.39871864
   0.09646457  0.24575700  0.47874037
   0.34926844  0.70947818  0.61737404
   0.56196760  0.73786003  0.52772734
   0.63096477  0.20801145  0.58742541
   0.67840519  0.00689577  0.43859691
   0.52705800  0.68595935  0.40362561
   0.12188165  0.47329237  0.62363682
   0.64188345  0.77889540  0.37838231
   0.32622490  0.29419203  0.51234573
   0.15156939  0.18877306  0.59596199
   0.40015063  0.18871189  0.61965463
   0.65659591  0.43866029  0.40963352
   0.26214519  0.30469129  0.38567426
   0.69858279  0.53174369  0.47276121
   0.37425494  0.08830676  0.41994296
   0.00243010  0.93856880  0.52272941
   0.16778091  0.67028069  0.36615462
   0.91040880  0.35444183  0.40076380
   0.27120183  0.43216561  0.62309379
   0.25775105  0.83152928  0.58757610
   0.41989210  0.31354792  0.39473377
   0.66866235  0.51268571  0.59710863
   0.41877671  0.57371396  0.38778157
   0.16625839  0.75901646  0.51260177
   0.27864742  0.28193510  0.59298937
   0.44733882  0.51804020  0.52511135
   0.05919950  0.73040150  0.45038143
   0.44741846  0.73431064  0.46982515
   0.87056835  0.11814507  0.45158764
   0.61038596  0.14705259  0.46116516
   0.22060367  0.87536275  0.46230327
   0.17666131  0.12697409  0.51984587
   0.59292120  0.58089509  0.53166472
   0.93087582  0.51150824  0.42955537
   0.22762282  0.61101470  0.52415093
   0.99496875  0.46973156  0.50384412
   0.33607854  0.56102743  0.58243389
   0.01007747  0.26070063  0.59567672
   0.77293362  0.45570150  0.53877221
   0.71381091  0.97755116  0.52068403
   0.02253773  0.72806164  0.62006918
   0.09377617  0.84100340  0.57472867
   0.64561755  0.79213504  0.61616859
   0.87303074  0.04244450  0.52875766
   0.23658286  0.14678871  0.38982948
   0.07570138  0.58329896  0.41877039
   0.83434701  0.73023030  0.51307934
   0.42855145  0.07258034  0.56090732
   0.88937058  0.15659705  0.58811517
   0.46836529  0.35979503  0.52730971
   0.12100399  0.00239437  0.47691642
   0.73361887  0.65599057  0.61111010
   0.50349202  0.44228171  0.39473983
   0.14597532  0.50005775  0.48120791
   0.99406269  0.20193166  0.41953697
   0.21094708  0.35509405  0.46163456
   0.88831376  0.66609452  0.58573942
   0.42383527  0.94037250  0.40549445
   0.39088404  0.91278199  0.55988480
   0.97332516  0.31383639  0.51946227

 position of ions in cartesian coordinates  (Angst):
   7.84694103  4.79507966 13.73035298
   0.51446879 13.46887677 10.24759160
  10.98632849  4.66836773 10.94627754
   2.06438701 11.91671384 11.00994139
  11.75842283  0.29274802 10.97641262
  11.22804885  3.67469378 16.92634707
  13.25763608  7.40107403 15.92007069
   7.01679249 11.48913373 16.57903091
   1.82685106  8.98227296 16.62884392
  10.90223084  3.30157141 12.81074066
  14.24092531  5.91627383 17.53753785
   5.49370430 12.73306980 13.26984512
   7.39811444  4.33733416 16.80080306
  11.74837468  4.35180334 14.73441032
   1.32068431  1.02545091 11.15463678
  12.89006077 12.80050507 11.13586090
  11.81814363  9.15674876 12.42290411
  10.18644163 11.87620098 14.97361881
   8.56474820  1.24284914 15.04215128
  13.61929587 12.00099110 13.21389392
   4.86418797  1.95130820 13.91931577
   5.26240458  8.67619147 13.02956658
  11.57114006 10.82525024 10.71516661
   7.23798833  2.63806870 11.25543598
   8.39574624 13.29452077 11.11511257
   1.40080815  3.56875498 13.34588491
   5.07189398 10.30267191 17.21058706
   8.16060031 10.71481830 14.71149861
   9.16254113  3.02063377 16.37570674
   9.85144621  0.10013679 12.22680236
   7.65366122  9.96114382 11.25190461
   1.76990176  6.87290482 17.38517514
   9.32109652 11.31071261 10.54819506
   4.73726785  4.27210316 14.28270415
   2.20101156  2.74126392 16.61368169
   5.81077860  2.74037556 17.27416334
   9.53474318  6.36999578 11.41938757
   3.80673564  4.42456798 10.75147317
  10.14445471  7.72170443 13.17920335
   5.43473502  1.28234475 11.70678471
   0.03528861 13.62940641 14.57217083
   2.43642686  9.73346644 10.20732268
  13.22048157  5.14701933 11.17212560
   3.93825140  6.27568345 17.37003701
   3.74292622 12.07503427 16.37990752
   6.09745394  4.55317923 11.00402595
   9.70996574  7.44495441 16.64564667
   6.08125689  8.33117475 10.81021892
   2.41431757 11.02204100 14.28984196
   4.04637241  4.09411447 16.53081374
   6.49602091  7.52270947 14.63857256
   0.85966431 10.60650941 12.55532033
   6.49717747 10.66327594 13.09735467
  12.64193930  1.71564111 12.58894587
   8.86370639  2.13542105 12.85593928
   3.20349141 12.71156113 12.88766642
   2.56538338  1.84385141 14.49178642
   8.61009227  8.43545544 14.82126143
  13.51769301  7.42785577 11.97475064
   3.30541980  8.87283659 14.61179882
  14.44841710  6.82119656 14.04570417
   4.88035721  8.14694767 16.23655771
   0.14633973  3.78575847 16.60572927
  11.22413869  6.61745939 15.01939754
  10.36558957 14.19548781 14.51515179
   0.32728118 10.57253131 17.28571983
   1.36176854 12.21261256 16.02175868
   9.37532112 11.50297178 17.17698284
  12.67769691  0.61635690 14.74022105
   3.43553287  2.13158908 10.86730866
   1.09929600  8.47036317 11.67409680
  12.11595187 10.60402338 14.30315508
   6.22320055  1.05397386 15.63645984
  12.91497555  2.27402070 16.39493524
   6.80135637  5.22475564 14.69985635
   1.75715674  0.03476977 13.29503842
  10.65323039  9.52595284 17.03596685
   7.31144836  6.42258426 11.00419475
   2.11977742  7.26157773 13.41467273
  14.43525973  2.93234613 11.69546685
   3.06326349  5.15649055 12.86902484
  12.89962889  9.67267706 16.32870629
   6.15471458 13.65559878 11.30400238
   5.67621407 13.25494374 15.60795486
  14.13412015  4.55736834 14.48109255



--------------------------------------------------------------------------------------------------------


 k-point     1 :   0.0000 0.0000 0.0000  plane waves:  554645
 k-point     2 :   0.5000 0.0000 0.0000  plane waves:  554942
 k-point     3 :   0.0000 0.5000 0.0000  plane waves:  554942
 k-point     4 :   0.5000 0.5000 0.0000  plane waves:  555004

 maximum and minimum number of plane-waves per node :     34752    34628

 maximum number of plane-waves:    555004
 maximum index in each direction: 
   IXMAX=   41   IYMAX=   41   IZMAX=   78
   IXMIN=  -41   IYMIN=  -41   IZMIN=  -78


 parallel 3D FFT for wavefunctions:
    minimum data exchange during FFTs selected (reduces bandwidth)
 parallel 3D FFT for charge:
    minimum data exchange during FFTs selected (reduces bandwidth)


 total amount of memory used by VASP MPI-rank0   347850. kBytes
=======================================================================

   base                                    :      30000. kBytes
   nonl-proj                               :      64950. kBytes
   fftplans                                :     108854. kBytes
   grid                                    :      83991. kBytes
   one-center                              :         18. kBytes
   wavefun                                 :      60037. kBytes

     INWAV:  cpu time     18.1225: real time     18.1323
 Broyden mixing: mesh for mixing (old mesh)
   NGX = 83   NGY = 83   NGZ =157
  (NGX  =336   NGY  =336   NGZ  =640)
  gives a total of ****** points

 initial charge density was supplied:
 number of electron     336.9999999 magnetization 
 keeping initial charge density in first step


--------------------------------------------------------------------------------------------------------


 Maximum index for augmentation-charges        11455 (set IRDMAX)


--------------------------------------------------------------------------------------------------------


 First call to EWALD:  gamma=   0.098
 Maximum number of real-space cells   3x   3x   2
 Maximum number of reciprocal cells   2x   2x   4

    FEWALD:  cpu time      0.0121: real time      0.0121


--------------------------------------- Ionic step        1  -------------------------------------------




--------------------------------------- Iteration      1(   1)  ---------------------------------------


    POTLOK:  cpu time      2.1697: real time      2.1711
    SETDIJ:  cpu time      1.5823: real time      1.5831
    EDDIAG:  cpu time     36.1109: real time     36.1313
     EDDAV:  cpu time    163.0615: real time    163.1484
       DOS:  cpu time      0.0052: real time      0.0052
    CHARGE:  cpu time     21.1751: real time     21.1937
    MIXING:  cpu time      0.0500: real time      0.0501
    --------------------------------------------
      LOOP:  cpu time    224.1547: real time    224.2829

 eigenvalue-minimisations  :  1728
 total energy-change (2. order) :-0.8479289E+03  (-0.9466502E+00)
 number of electron     336.9999999 magnetization 
 augmentation part      -19.1032584 magnetization 

 Broyden mixing:
  rms(total) = 0.11299E+01    rms(broyden)= 0.27059E+02
  rms(prec ) = 0.11630E+01
  weight for this iteration     100.00
  WARNING: grid for Broyden might be to small

 Free energy of the ion-electron system (eV)
  ---------------------------------------------------
  alpha Z        PSCENC =        40.66575036
  Ewald energy   TEWEN  =     50156.83055752
  -Hartree energ DENC   =    -57779.78145186
  -exchange      EXHF   =         0.00000000
  -V(xc)+E(xc)   XCENC  =      -413.26751968
  PAW double counting   =     31293.54794497   -30456.14977906
  entropy T*S    EENTRO =        -0.15858260
  eigenvalues    EBANDS =     -2359.71840130
  atomic energy  EATOM  =      8670.10256730
  Solvation  Ediel_sol  =         0.00000000
  ---------------------------------------------------
  free energy    TOTEN  =      -847.92891435 eV

  energy without entropy =     -847.77033175  energy(sigma->0) =     -847.84962305


--------------------------------------------------------------------------------------------------------




--------------------------------------- Iteration      1(   2)  ---------------------------------------


    POTLOK:  cpu time      2.1363: real time      2.1531
    SETDIJ:  cpu time      1.5746: real time      1.5754
    EDDIAG:  cpu time     36.1160: real time     36.1382
     EDDAV:  cpu time    164.8523: real time    164.9423
       DOS:  cpu time      0.0032: real time      0.0032
    CHARGE:  cpu time     21.1253: real time     21.1450
    MIXING:  cpu time      0.0457: real time      0.0457
    --------------------------------------------
      LOOP:  cpu time    225.8533: real time    226.0029

 eigenvalue-minimisations  :  1760
 total energy-change (2. order) : 0.5953284E+02  (-0.8834149E+00)
 number of electron     336.9999999 magnetization 
 augmentation part      -19.0286608 magnetization 

 Broyden mixing:
  rms(total) = 0.76520E+00    rms(broyden)= 0.15684E+02
  rms(prec ) = 0.78207E+00
  weight for this iteration     100.00
  WARNING: grid for Broyden might be to small

 eigenvalues of (default mixing * dielectric matrix)
  average eigenvalue GAMMA=   0.6332
  0.6332

 Free energy of the ion-electron system (eV)
  ---------------------------------------------------
  alpha Z        PSCENC =        40.66575036
  Ewald energy   TEWEN  =     50156.83055752
  -Hartree energ DENC   =    -57767.93516503
  -exchange      EXHF   =         0.00000000
  -V(xc)+E(xc)   XCENC  =      -404.22515343
  PAW double counting   =     37412.78463087   -36575.18516176
  entropy T*S    EENTRO =        -0.14813786
  eigenvalues    EBANDS =     -2321.28596217
  atomic energy  EATOM  =      8670.10256730
  Solvation  Ediel_sol  =         0.00000000
  ---------------------------------------------------
  free energy    TOTEN  =      -788.39607421 eV

  energy without entropy =     -788.24793635  energy(sigma->0) =     -788.32200528


--------------------------------------------------------------------------------------------------------




--------------------------------------- Iteration      1(   3)  ---------------------------------------


    POTLOK:  cpu time      2.1387: real time      2.1588
    SETDIJ:  cpu time      1.5662: real time      1.5672
    EDDIAG:  cpu time     36.1357: real time     36.1591
     EDDAV:  cpu time    163.2289: real time    163.3144
       DOS:  cpu time      0.0029: real time      0.0029
    CHARGE:  cpu time     21.0798: real time     21.0995
    MIXING:  cpu time      0.0410: real time      0.0410
    --------------------------------------------
      LOOP:  cpu time    224.1933: real time    224.3429

 eigenvalue-minimisations  :  1728
 total energy-change (2. order) :-0.3352658E+01  (-0.7402978E+00)
 number of electron     336.9999999 magnetization 
 augmentation part      -18.9643569 magnetization 

 Broyden mixing:
  rms(total) = 0.30819E+00    rms(broyden)= 0.23664E+02
  rms(prec ) = 0.38972E+00
  weight for this iteration     100.00
  WARNING: grid for Broyden might be to small

 eigenvalues of (default mixing * dielectric matrix)
  average eigenvalue GAMMA=   0.8808
  1.1337  0.6279

 Free energy of the ion-electron system (eV)
  ---------------------------------------------------
  alpha Z        PSCENC =        40.66575036
  Ewald energy   TEWEN  =     50156.83055752
  -Hartree energ DENC   =    -57768.91327557
  -exchange      EXHF   =         0.00000000
  -V(xc)+E(xc)   XCENC  =      -407.92778451
  PAW double counting   =     44720.43722614   -43882.97206351
  entropy T*S    EENTRO =        -0.15149903
  eigenvalues    EBANDS =     -2319.82021075
  atomic energy  EATOM  =      8670.10256730
  Solvation  Ediel_sol  =         0.00000000
  ---------------------------------------------------
  free energy    TOTEN  =      -791.74873205 eV

  energy without entropy =     -791.59723302  energy(sigma->0) =     -791.67298253


--------------------------------------------------------------------------------------------------------




--------------------------------------- Iteration      1(   4)  ---------------------------------------


    POTLOK:  cpu time      2.1387: real time      2.1536
    SETDIJ:  cpu time      1.5685: real time      1.5697
    EDDIAG:  cpu time     36.1465: real time     36.1691
     EDDAV:  cpu time    166.5805: real time    166.6771
       DOS:  cpu time      0.0026: real time      0.0026
    CHARGE:  cpu time     21.0872: real time     21.1064
    MIXING:  cpu time      0.0415: real time      0.0415
    --------------------------------------------
      LOOP:  cpu time    227.5656: real time    227.7200

 eigenvalue-minimisations  :  1792
 total energy-change (2. order) : 0.3431274E+00  (-0.7700617E-01)
 number of electron     336.9999999 magnetization 
 augmentation part      -18.9561054 magnetization 

 Broyden mixing:
  rms(total) = 0.53670E-01    rms(broyden)= 0.22441E+01
  rms(prec ) = 0.61846E-01
  weight for this iteration     100.00
  WARNING: grid for Broyden might be to small

 eigenvalues of (default mixing * dielectric matrix)
  average eigenvalue GAMMA=   1.2260
  2.3221  0.7353  0.6207

 Free energy of the ion-electron system (eV)
  ---------------------------------------------------
  alpha Z        PSCENC =        40.66575036
  Ewald energy   TEWEN  =     50156.83055752
  -Hartree energ DENC   =    -57770.82565320
  -exchange      EXHF   =         0.00000000
  -V(xc)+E(xc)   XCENC  =      -408.86971963
  PAW double counting   =     50243.04958338   -49405.62938310
  entropy T*S    EENTRO =        -0.15321153
  eigenvalues    EBANDS =     -2316.57609578
  atomic energy  EATOM  =      8670.10256730
  Solvation  Ediel_sol  =         0.00000000
  ---------------------------------------------------
  free energy    TOTEN  =      -791.40560468 eV

  energy without entropy =     -791.25239315  energy(sigma->0) =     -791.32899892


--------------------------------------------------------------------------------------------------------




--------------------------------------- Iteration      1(   5)  ---------------------------------------


    POTLOK:  cpu time      2.1333: real time      2.1551
    SETDIJ:  cpu time      1.5664: real time      1.5675
    EDDIAG:  cpu time     36.1075: real time     36.1293
     EDDAV:  cpu time    186.7773: real time    186.8803
       DOS:  cpu time      0.0042: real time      0.0042
    CHARGE:  cpu time     21.1102: real time     21.1291
    MIXING:  cpu time      0.0420: real time      0.0420
    --------------------------------------------
      LOOP:  cpu time    247.7410: real time    247.9075

 eigenvalue-minimisations  :  2176
 total energy-change (2. order) :-0.3728498E-01  (-0.7630770E-02)
 number of electron     336.9999999 magnetization 
 augmentation part      -18.9575753 magnetization 

 Broyden mixing:
  rms(total) = 0.35034E-01    rms(broyden)= 0.29658E+00
  rms(prec ) = 0.39413E-01
  weight for this iteration     100.00
  WARNING: grid for Broyden might be to small

 eigenvalues of (default mixing * dielectric matrix)
  average eigenvalue GAMMA=   1.1437
  2.5515  0.8057  0.6178  0.5999

 Free energy of the ion-electron system (eV)
  ---------------------------------------------------
  alpha Z        PSCENC =        40.66575036
  Ewald energy   TEWEN  =     50156.83055752
  -Hartree energ DENC   =    -57771.12983435
  -exchange      EXHF   =         0.00000000
  -V(xc)+E(xc)   XCENC  =      -409.92605600
  PAW double counting   =     49583.97907134   -48746.51943766
  entropy T*S    EENTRO =        -0.14934559
  eigenvalues    EBANDS =     -2315.29616258
  atomic energy  EATOM  =      8670.10256730
  Solvation  Ediel_sol  =         0.00000000
  ---------------------------------------------------
  free energy    TOTEN  =      -791.44288966 eV

  energy without entropy =     -791.29354408  energy(sigma->0) =     -791.36821687


--------------------------------------------------------------------------------------------------------




--------------------------------------- Iteration      1(   6)  ---------------------------------------


    POTLOK:  cpu time      2.1342: real time      2.1538
    SETDIJ:  cpu time      1.5754: real time      1.5764
    EDDIAG:  cpu time     36.1151: real time     36.1373
     EDDAV:  cpu time    178.2858: real time    178.3832
       DOS:  cpu time      0.0027: real time      0.0027
    CHARGE:  cpu time     21.0800: real time     21.0988
    MIXING:  cpu time      0.0422: real time      0.0422
    --------------------------------------------
      LOOP:  cpu time    239.2354: real time    239.3944

 eigenvalue-minimisations  :  2016
 total energy-change (2. order) :-0.3606062E-02  (-0.1415482E-02)
 number of electron     336.9999999 magnetization 
 augmentation part      -18.9575117 magnetization 

 Broyden mixing:
  rms(total) = 0.23410E-01    rms(broyden)= 0.18538E+00
  rms(prec ) = 0.25153E-01
  weight for this iteration     100.00
  WARNING: grid for Broyden might be to small

 eigenvalues of (default mixing * dielectric matrix)
  average eigenvalue GAMMA=   1.1129
  2.5633  1.0878  0.6790  0.6172  0.6172

 Free energy of the ion-electron system (eV)
  ---------------------------------------------------
  alpha Z        PSCENC =        40.66575036
  Ewald energy   TEWEN  =     50156.83055752
  -Hartree energ DENC   =    -57771.12052365
  -exchange      EXHF   =         0.00000000
  -V(xc)+E(xc)   XCENC  =      -410.09746676
  PAW double counting   =     49528.89275869   -48691.41916940
  entropy T*S    EENTRO =        -0.15027562
  eigenvalues    EBANDS =     -2315.15069417
  atomic energy  EATOM  =      8670.10256730
  Solvation  Ediel_sol  =         0.00000000
  ---------------------------------------------------
  free energy    TOTEN  =      -791.44649572 eV

  energy without entropy =     -791.29622011  energy(sigma->0) =     -791.37135792


--------------------------------------------------------------------------------------------------------




--------------------------------------- Iteration      1(   7)  ---------------------------------------


    POTLOK:  cpu time      2.1376: real time      2.1564
    SETDIJ:  cpu time      1.5659: real time      1.5675
    EDDIAG:  cpu time     36.1273: real time     36.1503
     EDDAV:  cpu time    170.8365: real time    170.9284
       DOS:  cpu time      0.0030: real time      0.0030
    CHARGE:  cpu time     21.0921: real time     21.1132
    MIXING:  cpu time      0.0429: real time      0.0429
    --------------------------------------------
      LOOP:  cpu time    231.8053: real time    231.9618

 eigenvalue-minimisations  :  1872
 total energy-change (2. order) :-0.1778785E-02  (-0.8190614E-03)
 number of electron     336.9999999 magnetization 
 augmentation part      -18.9550079 magnetization 

 Broyden mixing:
  rms(total) = 0.11071E-01    rms(broyden)= 0.56863E-01
  rms(prec ) = 0.15167E-01
  weight for this iteration     100.00
  WARNING: grid for Broyden might be to small

 eigenvalues of (default mixing * dielectric matrix)
  average eigenvalue GAMMA=   1.0343
  2.5551  1.2141  0.7370  0.6182  0.5407  0.5407

 Free energy of the ion-electron system (eV)
  ---------------------------------------------------
  alpha Z        PSCENC =        40.66575036
  Ewald energy   TEWEN  =     50156.83055752
  -Hartree energ DENC   =    -57771.00486073
  -exchange      EXHF   =         0.00000000
  -V(xc)+E(xc)   XCENC  =      -409.93797622
  PAW double counting   =     49530.24096074   -48692.74917718
  entropy T*S    EENTRO =        -0.15256957
  eigenvalues    EBANDS =     -2315.44352672
  atomic energy  EATOM  =      8670.10256730
  Solvation  Ediel_sol  =         0.00000000
  ---------------------------------------------------
  free energy    TOTEN  =      -791.44827451 eV

  energy without entropy =     -791.29570494  energy(sigma->0) =     -791.37198973


--------------------------------------------------------------------------------------------------------




--------------------------------------- Iteration      1(   8)  ---------------------------------------


    POTLOK:  cpu time      2.1405: real time      2.1587
    SETDIJ:  cpu time      1.5729: real time      1.5742
    EDDIAG:  cpu time     36.1466: real time     36.1719
     EDDAV:  cpu time    172.8470: real time    172.9419
       DOS:  cpu time      0.0019: real time      0.0019
    CHARGE:  cpu time     21.1026: real time     21.1216
    MIXING:  cpu time      0.0443: real time      0.0443
    --------------------------------------------
      LOOP:  cpu time    233.8558: real time    234.0145

 eigenvalue-minimisations  :  1912
 total energy-change (2. order) :-0.3234288E-03  (-0.2648734E-03)
 number of electron     336.9999999 magnetization 
 augmentation part      -18.9549662 magnetization 

 Broyden mixing:
  rms(total) = 0.61803E-02    rms(broyden)= 0.52599E-01
  rms(prec ) = 0.87134E-02
  weight for this iteration     100.00
  WARNING: grid for Broyden might be to small

 eigenvalues of (default mixing * dielectric matrix)
  average eigenvalue GAMMA=   1.0507
  2.5294  1.6463  0.9038  0.6566  0.6566  0.5951  0.3674

 Free energy of the ion-electron system (eV)
  ---------------------------------------------------
  alpha Z        PSCENC =        40.66575036
  Ewald energy   TEWEN  =     50156.83055752
  -Hartree energ DENC   =    -57770.82363134
  -exchange      EXHF   =         0.00000000
  -V(xc)+E(xc)   XCENC  =      -409.90414029
  PAW double counting   =     49560.29150913   -48722.79203240
  entropy T*S    EENTRO =        -0.14976480
  eigenvalues    EBANDS =     -2315.66941342
  atomic energy  EATOM  =      8670.10256730
  Solvation  Ediel_sol  =         0.00000000
  ---------------------------------------------------
  free energy    TOTEN  =      -791.44859794 eV

  energy without entropy =     -791.29883314  energy(sigma->0) =     -791.37371554


--------------------------------------------------------------------------------------------------------




--------------------------------------- Iteration      1(   9)  ---------------------------------------


    POTLOK:  cpu time      2.1330: real time      2.1542
    SETDIJ:  cpu time      1.6367: real time      1.6380
    EDDIAG:  cpu time     36.2016: real time     36.2231
     EDDAV:  cpu time    166.5421: real time    166.6380
       DOS:  cpu time      0.0031: real time      0.0031
    CHARGE:  cpu time     21.0897: real time     21.1087
    MIXING:  cpu time      0.0444: real time      0.0445
    --------------------------------------------
      LOOP:  cpu time    227.6509: real time    227.8098

 eigenvalue-minimisations  :  1792
 total energy-change (2. order) : 0.9504357E-04  (-0.1703759E-03)
 number of electron     336.9999999 magnetization 
 augmentation part      -18.9549565 magnetization 

 Broyden mixing:
  rms(total) = 0.23508E-02    rms(broyden)= 0.13353E-01
  rms(prec ) = 0.27423E-02
  weight for this iteration     100.00
  WARNING: grid for Broyden might be to small

 eigenvalues of (default mixing * dielectric matrix)
  average eigenvalue GAMMA=   1.1534
  2.5574  2.5574  0.9822  0.8694  0.6658  0.6367  0.5631  0.3953

 Free energy of the ion-electron system (eV)
  ---------------------------------------------------
  alpha Z        PSCENC =        40.66575036
  Ewald energy   TEWEN  =     50156.83055752
  -Hartree energ DENC   =    -57770.68512031
  -exchange      EXHF   =         0.00000000
  -V(xc)+E(xc)   XCENC  =      -409.92407869
  PAW double counting   =     49578.09377754   -48740.59240825
  entropy T*S    EENTRO =        -0.15089658
  eigenvalues    EBANDS =     -2315.78865178
  atomic energy  EATOM  =      8670.10256730
  Solvation  Ediel_sol  =         0.00000000
  ---------------------------------------------------
  free energy    TOTEN  =      -791.44850289 eV

  energy without entropy =     -791.29760631  energy(sigma->0) =     -791.37305460


--------------------------------------------------------------------------------------------------------




--------------------------------------- Iteration      1(  10)  ---------------------------------------


    POTLOK:  cpu time      2.1401: real time      2.1582
    SETDIJ:  cpu time      1.5661: real time      1.5675
    EDDIAG:  cpu time     36.2065: real time     36.2276
     EDDAV:  cpu time    167.4464: real time    167.5406
       DOS:  cpu time      0.0023: real time      0.0023
    CHARGE:  cpu time     21.0922: real time     21.1105
    MIXING:  cpu time      0.0449: real time      0.0449
    --------------------------------------------
      LOOP:  cpu time    228.4984: real time    228.6514

 eigenvalue-minimisations  :  1808
 total energy-change (2. order) :-0.1595261E-04  (-0.3870351E-04)
 number of electron     336.9999999 magnetization 
 augmentation part      -18.9550922 magnetization 

 Broyden mixing:
  rms(total) = 0.16022E-02    rms(broyden)= 0.90627E-02
  rms(prec ) = 0.18371E-02
  weight for this iteration     100.00
  WARNING: grid for Broyden might be to small

 eigenvalues of (default mixing * dielectric matrix)
  average eigenvalue GAMMA=   1.1152
  2.6686  2.6686  1.0292  0.8791  0.6775  0.6316  0.5460  0.5278  0.4085

 Free energy of the ion-electron system (eV)
  ---------------------------------------------------
  alpha Z        PSCENC =        40.66575036
  Ewald energy   TEWEN  =     50156.83055752
  -Hartree energ DENC   =    -57770.47899374
  -exchange      EXHF   =         0.00000000
  -V(xc)+E(xc)   XCENC  =      -409.94345011
  PAW double counting   =     49576.79087492   -48739.28878871
  entropy T*S    EENTRO =        -0.15106039
  eigenvalues    EBANDS =     -2315.97597598
  atomic energy  EATOM  =      8670.10256730
  Solvation  Ediel_sol  =         0.00000000
  ---------------------------------------------------
  free energy    TOTEN  =      -791.44851885 eV

  energy without entropy =     -791.29745845  energy(sigma->0) =     -791.37298865


--------------------------------------------------------------------------------------------------------




--------------------------------------- Iteration      1(  11)  ---------------------------------------


    POTLOK:  cpu time      2.1414: real time      2.1583
    SETDIJ:  cpu time      1.5781: real time      1.5789
    EDDIAG:  cpu time     36.1413: real time     36.1635
     EDDAV:  cpu time    174.2852: real time    174.3763
       DOS:  cpu time      0.0033: real time      0.0033
    CHARGE:  cpu time     21.0880: real time     21.1078
    MIXING:  cpu time      0.0461: real time      0.0461
    --------------------------------------------
      LOOP:  cpu time    235.2833: real time    235.4343

 eigenvalue-minimisations  :  1936
 total energy-change (2. order) :-0.1014029E-03  (-0.1509787E-04)
 number of electron     336.9999999 magnetization 
 augmentation part      -18.9551845 magnetization 

 Broyden mixing:
  rms(total) = 0.74059E-03    rms(broyden)= 0.65742E-02
  rms(prec ) = 0.92453E-03
  weight for this iteration     100.00
  WARNING: grid for Broyden might be to small

 eigenvalues of (default mixing * dielectric matrix)
  average eigenvalue GAMMA=   1.1213
  2.7345  2.7345  1.0781  1.0781  0.8465  0.3926  0.6603  0.6305  0.5289  0.5289

 Free energy of the ion-electron system (eV)
  ---------------------------------------------------
  alpha Z        PSCENC =        40.66575036
  Ewald energy   TEWEN  =     50156.83055752
  -Hartree energ DENC   =    -57770.22048757
  -exchange      EXHF   =         0.00000000
  -V(xc)+E(xc)   XCENC  =      -409.95539373
  PAW double counting   =     49573.13870625   -48735.63554962
  entropy T*S    EENTRO =        -0.15099711
  eigenvalues    EBANDS =     -2316.22377365
  atomic energy  EATOM  =      8670.10256730
  Solvation  Ediel_sol  =         0.00000000
  ---------------------------------------------------
  free energy    TOTEN  =      -791.44862025 eV

  energy without entropy =     -791.29762314  energy(sigma->0) =     -791.37312170


--------------------------------------------------------------------------------------------------------




--------------------------------------- Iteration      1(  12)  ---------------------------------------


    POTLOK:  cpu time      2.1362: real time      2.1574
    SETDIJ:  cpu time      1.5639: real time      1.5653
    EDDIAG:  cpu time     36.1407: real time     36.1628
     EDDAV:  cpu time    167.9548: real time    168.0476
       DOS:  cpu time      0.0045: real time      0.0045
    CHARGE:  cpu time     21.1030: real time     21.1211
    MIXING:  cpu time      0.0466: real time      0.0466
    --------------------------------------------
      LOOP:  cpu time    228.9497: real time    229.1054

 eigenvalue-minimisations  :  1816
 total energy-change (2. order) :-0.1131755E-03  (-0.1231939E-04)
 number of electron     336.9999999 magnetization 
 augmentation part      -18.9552521 magnetization 

 Broyden mixing:
  rms(total) = 0.38084E-03    rms(broyden)= 0.58894E-02
  rms(prec ) = 0.54866E-03
  weight for this iteration     100.00
  WARNING: grid for Broyden might be to small

 eigenvalues of (default mixing * dielectric matrix)
  average eigenvalue GAMMA=   1.1486
  2.7965  2.7965  1.6258  1.0566  0.8612  0.7850  0.3875  0.6305  0.6085  0.5370
  0.5498

 Free energy of the ion-electron system (eV)
  ---------------------------------------------------
  alpha Z        PSCENC =        40.66575036
  Ewald energy   TEWEN  =     50156.83055752
  -Hartree energ DENC   =    -57769.98400640
  -exchange      EXHF   =         0.00000000
  -V(xc)+E(xc)   XCENC  =      -409.96397193
  PAW double counting   =     49571.70542722   -48734.20189751
  entropy T*S    EENTRO =        -0.15094129
  eigenvalues    EBANDS =     -2316.45221870
  atomic energy  EATOM  =      8670.10256730
  Solvation  Ediel_sol  =         0.00000000
  ---------------------------------------------------
  free energy    TOTEN  =      -791.44873343 eV

  energy without entropy =     -791.29779214  energy(sigma->0) =     -791.37326278


--------------------------------------------------------------------------------------------------------




--------------------------------------- Iteration      1(  13)  ---------------------------------------


    POTLOK:  cpu time      2.1376: real time      2.1560
    SETDIJ:  cpu time      1.5698: real time      1.5712
    EDDIAG:  cpu time     36.1728: real time     36.1950
     EDDAV:  cpu time    166.7955: real time    166.8870
       DOS:  cpu time      0.0029: real time      0.0029
    CHARGE:  cpu time     21.0919: real time     21.1104
    MIXING:  cpu time      0.0473: real time      0.0473
    --------------------------------------------
      LOOP:  cpu time    227.8177: real time    227.9698

 eigenvalue-minimisations  :  1792
 total energy-change (2. order) :-0.9312905E-04  (-0.7107271E-05)
 number of electron     336.9999999 magnetization 
 augmentation part      -18.9552937 magnetization 

 Broyden mixing:
  rms(total) = 0.24270E-03    rms(broyden)= 0.44741E-02
  rms(prec ) = 0.37440E-03
  weight for this iteration     100.00
  WARNING: grid for Broyden might be to small

 eigenvalues of (default mixing * dielectric matrix)
  average eigenvalue GAMMA=   1.1819
  2.9486  2.7703  2.0426  1.0744  1.0744  0.8468  0.3884  0.6942  0.5291  0.6064
  0.6064  0.6007

 Free energy of the ion-electron system (eV)
  ---------------------------------------------------
  alpha Z        PSCENC =        40.66575036
  Ewald energy   TEWEN  =     50156.83055752
  -Hartree energ DENC   =    -57769.82031060
  -exchange      EXHF   =         0.00000000
  -V(xc)+E(xc)   XCENC  =      -409.97002303
  PAW double counting   =     49571.99518187   -48734.49190150
  entropy T*S    EENTRO =        -0.15096796
  eigenvalues    EBANDS =     -2316.60968050
  atomic energy  EATOM  =      8670.10256730
  Solvation  Ediel_sol  =         0.00000000
  ---------------------------------------------------
  free energy    TOTEN  =      -791.44882655 eV

  energy without entropy =     -791.29785859  energy(sigma->0) =     -791.37334257


--------------------------------------------------------------------------------------------------------




--------------------------------------- Iteration      1(  14)  ---------------------------------------


    POTLOK:  cpu time      2.1527: real time      2.1543
    SETDIJ:  cpu time      1.5787: real time      1.5799
    EDDIAG:  cpu time     36.1803: real time     36.2020
     EDDAV:  cpu time    166.6556: real time    166.7455
       DOS:  cpu time      0.0030: real time      0.0030
    CHARGE:  cpu time     21.0882: real time     21.1072
    MIXING:  cpu time      0.0486: real time      0.0486
    --------------------------------------------
      LOOP:  cpu time    227.7072: real time    227.8404

 eigenvalue-minimisations  :  1792
 total energy-change (2. order) :-0.8452652E-04  (-0.6645673E-05)
 number of electron     336.9999999 magnetization 
 augmentation part      -18.9553287 magnetization 

 Broyden mixing:
  rms(total) = 0.15693E-03    rms(broyden)= 0.19536E-02
  rms(prec ) = 0.25879E-03
  weight for this iteration     100.00
  WARNING: grid for Broyden might be to small

 eigenvalues of (default mixing * dielectric matrix)
  average eigenvalue GAMMA=   1.2197
  3.2207  2.6932  2.3792  1.3492  0.9711  0.9711  0.8835  0.3886  0.6481  0.6407
  0.5670  0.5670  0.5765

 Free energy of the ion-electron system (eV)
  ---------------------------------------------------
  alpha Z        PSCENC =        40.66575036
  Ewald energy   TEWEN  =     50156.83055752
  -Hartree energ DENC   =    -57769.66927162
  -exchange      EXHF   =         0.00000000
  -V(xc)+E(xc)   XCENC  =      -409.97426621
  PAW double counting   =     49571.93015453   -48734.42715821
  entropy T*S    EENTRO =        -0.15097344
  eigenvalues    EBANDS =     -2316.75627131
  atomic energy  EATOM  =      8670.10256730
  Solvation  Ediel_sol  =         0.00000000
  ---------------------------------------------------
  free energy    TOTEN  =      -791.44891108 eV

  energy without entropy =     -791.29793764  energy(sigma->0) =     -791.37342436


--------------------------------------------------------------------------------------------------------




--------------------------------------- Iteration      1(  15)  ---------------------------------------


    POTLOK:  cpu time      2.1523: real time      2.1533
    SETDIJ:  cpu time      1.5712: real time      1.5724
    EDDIAG:  cpu time     36.1331: real time     36.1555
     EDDAV:  cpu time    166.9447: real time    167.0329
       DOS:  cpu time      0.0018: real time      0.0018
    CHARGE:  cpu time     21.0987: real time     21.1184
    MIXING:  cpu time      0.0513: real time      0.0513
    --------------------------------------------
      LOOP:  cpu time    227.9531: real time    228.0857

 eigenvalue-minimisations  :  1800
 total energy-change (2. order) :-0.8728811E-04  (-0.7793907E-05)
 number of electron     336.9999999 magnetization 
 augmentation part      -18.9553574 magnetization 

 Broyden mixing:
  rms(total) = 0.11594E-03    rms(broyden)= 0.14065E-02
  rms(prec ) = 0.17674E-03
  weight for this iteration     100.00
  WARNING: grid for Broyden might be to small

 eigenvalues of (default mixing * dielectric matrix)
  average eigenvalue GAMMA=   1.2226
  3.4201  2.6069  2.6069  1.4390  1.0323  1.0323  0.3886  0.7533  0.7389  0.7389
  0.5530  0.5530  0.6268  0.6268

 Free energy of the ion-electron system (eV)
  ---------------------------------------------------
  alpha Z        PSCENC =        40.66575036
  Ewald energy   TEWEN  =     50156.83055752
  -Hartree energ DENC   =    -57769.49608026
  -exchange      EXHF   =         0.00000000
  -V(xc)+E(xc)   XCENC  =      -409.97687312
  PAW double counting   =     49572.00591962   -48734.50323399
  entropy T*S    EENTRO =        -0.15098238
  eigenvalues    EBANDS =     -2316.92662342
  atomic energy  EATOM  =      8670.10256730
  Solvation  Ediel_sol  =         0.00000000
  ---------------------------------------------------
  free energy    TOTEN  =      -791.44899837 eV

  energy without entropy =     -791.29801599  energy(sigma->0) =     -791.37350718


--------------------------------------------------------------------------------------------------------




--------------------------------------- Iteration      1(  16)  ---------------------------------------


    POTLOK:  cpu time      2.1533: real time      2.1549
    SETDIJ:  cpu time      1.5680: real time      1.5694
    EDDIAG:  cpu time     36.1274: real time     36.1509
     EDDAV:  cpu time    163.5213: real time    163.6057
       DOS:  cpu time      0.0025: real time      0.0025
    CHARGE:  cpu time     21.0623: real time     21.0801
    MIXING:  cpu time      0.0502: real time      0.0502
    --------------------------------------------
      LOOP:  cpu time    224.4849: real time    224.6136

 eigenvalue-minimisations  :  1736
 total energy-change (2. order) :-0.4458804E-04  (-0.2928290E-05)
 number of electron     336.9999999 magnetization 
 augmentation part      -18.9553650 magnetization 

 Broyden mixing:
  rms(total) = 0.90745E-04    rms(broyden)= 0.17210E-02
  rms(prec ) = 0.13356E-03
  weight for this iteration     100.00
  WARNING: grid for Broyden might be to small

 eigenvalues of (default mixing * dielectric matrix)
  average eigenvalue GAMMA=   1.2423
  3.6922  2.6848  2.6848  1.6367  1.2616  1.0215  0.8647  0.8647  0.3886  0.6462
  0.6245  0.5487  0.5487  0.5835  0.5835

 Free energy of the ion-electron system (eV)
  ---------------------------------------------------
  alpha Z        PSCENC =        40.66575036
  Ewald energy   TEWEN  =     50156.83055752
  -Hartree energ DENC   =    -57769.41537342
  -exchange      EXHF   =         0.00000000
  -V(xc)+E(xc)   XCENC  =      -409.97734410
  PAW double counting   =     49572.18954051   -48734.68694531
  entropy T*S    EENTRO =        -0.15096642
  eigenvalues    EBANDS =     -2317.00682940
  atomic energy  EATOM  =      8670.10256730
  Solvation  Ediel_sol  =         0.00000000
  ---------------------------------------------------
[...]
   -.510E+01 0.438E+02 -.340E+03   0.438E+01 -.423E+02 0.340E+03   0.658E+00 -.158E+01 0.584E+00   0.100E-03 -.265E-04 0.486E-04
   -.284E+01 -.406E+01 0.253E+03   0.286E+01 0.387E+01 -.251E+03   -.238E+00 0.318E+00 -.162E+01   -.808E-05 0.236E-04 -.438E-04
   0.219E+02 -.369E+02 0.320E+03   -.219E+02 0.369E+02 -.320E+03   -.350E+00 -.655E-01 -.146E+00   0.806E-06 0.369E-04 -.745E-04
   0.129E+02 0.894E+00 0.920E+02   -.126E+02 -.975E+00 -.912E+02   -.432E+00 0.164E+00 -.760E+00   0.583E-05 0.259E-04 -.329E-04
   -.617E+01 0.177E+02 0.217E+03   0.816E+01 -.174E+02 -.217E+03   -.169E+01 -.402E+00 -.161E+00   0.188E-04 -.433E-04 -.620E-04
   0.177E+02 -.210E+02 -.126E+03   -.174E+02 0.200E+02 0.122E+03   -.263E+00 0.100E+01 0.349E+01   -.273E-04 -.680E-04 -.217E-04
   -.302E+02 0.258E+02 0.346E+03   0.320E+02 -.268E+02 -.349E+03   -.128E+01 0.770E+00 0.237E+01   0.619E-06 -.165E-04 -.439E-04
   -.216E+02 -.796E+01 0.290E+03   0.181E+02 0.877E+01 -.291E+03   0.329E+01 -.848E+00 0.211E+00   0.361E-05 0.461E-04 -.591E-04
   -.349E+02 0.710E+01 -.325E+03   0.329E+02 -.696E+01 0.325E+03   0.198E+01 -.181E+00 -.162E+00   0.296E-04 0.812E-04 0.194E-04
   0.779E+01 -.478E+02 -.266E+03   -.552E+01 0.471E+02 0.266E+03   -.210E+01 0.683E+00 -.210E+00   0.568E-05 -.417E-04 -.116E-04
   -.530E+01 -.123E+02 0.275E+03   0.660E+01 0.117E+02 -.273E+03   -.102E+01 0.387E+00 -.135E+01   -.491E-05 0.283E-04 -.525E-04
   0.281E+02 0.341E+02 -.299E+03   -.284E+02 -.331E+02 0.298E+03   0.120E+00 -.120E+01 0.119E+01   -.341E-05 0.798E-05 0.175E-04
   0.340E+02 0.567E+00 0.315E+03   -.325E+02 -.456E+00 -.314E+03   -.151E+01 0.200E+00 -.651E+00   -.467E-04 0.229E-04 -.655E-04
   -.953E+01 -.260E+00 -.429E+02   0.793E+01 0.122E+01 0.413E+02   0.173E+01 -.956E+00 0.149E+01   -.435E-05 -.168E-04 -.611E-04
   0.120E+01 0.646E+01 -.263E+03   -.191E+01 -.763E+01 0.261E+03   0.430E+00 0.133E+01 0.199E+01   0.129E-03 0.784E-04 0.740E-05
   -.125E+02 0.142E+02 -.723E+02   0.128E+02 -.141E+02 0.719E+02   -.198E+00 -.203E+00 0.467E+00   0.167E-04 0.118E-04 -.279E-04
   0.204E+02 0.179E+02 0.132E+03   -.201E+02 -.174E+02 -.131E+03   -.558E+00 -.746E+00 -.842E+00   0.393E-04 -.482E-04 -.974E-04
   0.474E+01 -.148E+02 0.854E+02   -.418E+01 0.143E+02 -.862E+02   -.956E+00 0.729E+00 0.645E+00   -.125E-04 0.244E-04 -.550E-04
   -.580E+01 0.516E+01 0.122E+03   0.402E+01 -.545E+01 -.124E+03   0.156E+01 0.313E+00 0.206E+01   -.301E-04 -.284E-04 -.445E-04
   0.174E+02 -.171E+02 0.101E+03   -.151E+02 0.151E+02 -.102E+03   -.209E+01 0.203E+01 0.309E+00   -.943E-05 -.272E-04 -.270E-04
   -.279E+02 -.161E+02 0.106E+03   0.277E+02 0.144E+02 -.105E+03   0.455E+00 0.172E+01 -.133E+01   0.148E-04 -.634E-04 -.706E-04
   0.392E+01 0.350E+02 -.902E+02   -.417E+01 -.347E+02 0.891E+02   0.288E+00 -.278E+00 0.883E+00   0.371E-04 -.964E-04 -.140E-03
   0.411E+01 0.552E+01 -.904E+02   -.500E+01 -.552E+01 0.906E+02   0.816E+00 0.340E+00 -.243E+00   0.185E-04 0.148E-04 -.701E-05
   0.184E+02 0.183E+00 0.232E+03   -.157E+02 0.495E+00 -.229E+03   -.250E+01 -.565E+00 -.282E+01   0.249E-04 0.584E-04 -.775E-04
   -.884E+01 -.701E+00 -.504E+02   0.887E+01 -.272E+00 0.507E+02   0.152E-01 0.107E+01 -.196E+00   -.205E-04 0.345E-04 -.535E-04
   -.363E+01 -.100E+02 -.668E+00   0.348E+01 0.926E+01 0.160E+01   0.208E+00 0.842E+00 -.779E+00   0.198E-05 0.790E-04 -.698E-04
   -.307E+02 0.616E+01 -.241E+03   0.309E+02 -.614E+01 0.239E+03   0.201E-01 -.120E+00 0.276E+01   0.127E-04 0.413E-04 0.269E-05
   -.495E+01 0.373E+02 -.284E+03   0.559E+01 -.367E+02 0.281E+03   -.366E+00 -.435E+00 0.324E+01   -.149E-03 0.611E-04 0.280E-04
   0.222E+02 0.123E+02 -.104E+03   -.220E+02 -.121E+02 0.105E+03   -.213E+00 -.124E+00 -.620E+00   -.258E-04 0.185E-04 -.122E-04
   -.325E+01 0.107E+02 -.108E+03   0.155E+01 -.116E+02 0.106E+03   0.159E+01 0.854E+00 0.264E+01   -.187E-04 -.154E-04 -.989E-05
   0.261E+02 -.464E+02 -.337E+03   -.244E+02 0.451E+02 0.338E+03   -.152E+01 0.121E+01 -.274E+00   -.556E-05 -.113E-05 0.164E-04
   0.202E+02 -.607E+02 -.246E+03   -.211E+02 0.570E+02 0.245E+03   0.833E+00 0.368E+01 0.652E+00   -.213E-04 -.494E-04 -.140E-04
   -.908E+01 -.491E+02 -.334E+03   0.109E+02 0.513E+02 0.334E+03   -.149E+01 -.197E+01 0.300E+00   0.593E-05 0.156E-04 -.982E-07
   0.519E+01 0.269E+02 -.129E+03   -.449E+01 -.247E+02 0.127E+03   -.677E+00 -.213E+01 0.134E+01   -.518E-04 -.407E-04 -.123E-04
   0.609E+01 0.966E+01 0.306E+03   -.408E+01 -.847E+01 -.305E+03   -.197E+01 -.116E+01 -.110E+01   0.292E-04 -.219E-05 -.638E-04
   -.302E+01 0.270E+02 0.255E+03   0.320E+01 -.259E+02 -.254E+03   -.400E+00 -.114E+01 -.131E+01   0.499E-04 0.695E-04 -.122E-03
   0.957E+01 -.165E+02 -.481E+02   -.774E+01 0.174E+02 0.472E+02   -.179E+01 -.683E+00 0.808E+00   -.257E-05 -.304E-06 -.271E-04
   -.114E+02 0.285E+02 -.192E+03   0.105E+02 -.282E+02 0.192E+03   0.105E+01 -.622E+00 0.784E+00   0.618E-04 -.483E-04 -.106E-04
   -.231E+01 0.693E+02 -.271E+03   0.200E+00 -.669E+02 0.271E+03   0.164E+01 -.243E+01 -.797E+00   -.965E-04 -.321E-04 -.788E-06
   -.220E+02 -.370E+01 -.734E+02   0.221E+02 0.350E+01 0.714E+02   0.383E-01 0.391E+00 0.195E+01   0.499E-04 0.248E-04 -.382E-04
   -.249E+01 -.215E+01 0.385E+02   0.257E+01 0.310E+01 -.370E+02   -.190E+00 -.881E+00 -.146E+01   0.122E-04 -.800E-04 -.550E-04
   -.417E-01 -.148E+02 -.318E+03   -.100E+01 0.136E+02 0.316E+03   0.455E+00 0.119E+01 0.197E+01   -.116E-05 0.323E-05 -.110E-06
   -.865E+01 -.178E+00 0.274E+03   0.711E+01 -.292E+00 -.273E+03   0.148E+01 0.653E+00 -.122E+01   -.209E-04 0.147E-04 -.493E-04
   -.234E+02 0.115E+02 0.680E+02   0.212E+02 -.106E+02 -.678E+02   0.221E+01 -.104E+01 -.227E+00   -.645E-05 0.710E-04 -.942E-04
   0.657E+01 -.168E+02 0.255E+03   -.520E+01 0.146E+02 -.249E+03   -.125E+01 0.209E+01 -.500E+01   -.130E-04 0.103E-04 -.911E-04
   -.553E+01 -.295E+02 0.124E+03   0.481E+01 0.277E+02 -.123E+03   0.614E+00 0.184E+01 -.112E+01   0.130E-04 0.669E-04 -.112E-03
   0.577E+00 -.353E+02 -.246E+03   -.117E+01 0.340E+02 0.244E+03   0.685E+00 0.110E+01 0.154E+01   -.352E-05 0.222E-04 -.111E-05
   0.685E+01 0.105E+02 0.276E+03   -.854E+01 -.114E+02 -.275E+03   0.129E+01 0.656E+00 -.163E+01   -.161E-05 -.365E-04 -.523E-04
   -.960E+01 -.312E+02 -.190E+03   0.966E+01 0.309E+02 0.189E+03   0.693E-01 0.449E+00 0.118E+01   0.292E-04 -.257E-04 -.266E-04
   0.493E+01 0.136E+02 -.409E+02   -.296E+01 -.122E+02 0.417E+02   -.210E+01 -.115E+01 -.959E+00   -.708E-04 0.491E-04 -.703E-04
 -----------------------------------------------------------------------------------------------
   -.212E+01 -.147E+01 -.474E+01   -.161E-12 0.249E-13 0.327E-12   0.212E+01 0.147E+01 0.475E+01   0.280E-04 0.222E-03 -.302E-02


 POSITION                                       TOTAL-FORCE (eV/Angst)
 -----------------------------------------------------------------------------------
      7.84694      4.79508     13.73035         0.111260      0.087203      0.006632
      0.51447     13.46888     10.24759         0.148405     -0.217293      0.051023
     10.98633      4.66837     10.94628         0.410743     -0.320475     -0.090434
      2.06439     11.91671     11.00994        -0.018392      0.287867     -0.201278
     11.75842      0.29275     10.97641         0.202235      0.371834     -0.417727
     11.22805      3.67469     16.92635         0.202783      0.488434      0.775388
     13.25764      7.40107     15.92007         0.062109     -0.055594     -0.055980
      7.01679     11.48913     16.57903        -0.463170      0.095296      0.086382
      1.82685      8.98227     16.62884        -0.483704      0.339882     -0.049496
     10.90223      3.30157     12.81074        -0.080408     -0.099022      0.106962
     14.24093      5.91627     17.53754        -0.070768     -0.136691      0.001551
      5.49370     12.73307     13.26985         0.143900     -0.077165      0.043575
      7.39811      4.33733     16.80080        -0.037614      0.198617     -0.150325
     11.74837      4.35180     14.73441        -0.097367     -0.165420     -0.316783
      1.32068      1.02545     11.15464        -0.096463      0.277325     -0.216073
     12.89006     12.80051     11.13586         0.033453     -0.020669     -0.060823
     11.81814      9.15675     12.42290        -0.000654     -0.274939     -0.287840
     10.18644     11.87620     14.97362        -0.093982      0.037921     -0.083530
      8.56475      1.24285     15.04215        -0.064119     -0.329626      0.380986
     13.61930     12.00099     13.21389        -0.068678     -0.319366      0.167424
      4.86419      1.95131     13.91932        -0.290015      0.409269      0.019862
      5.26240      8.67619     13.02957         0.126187      0.041138      0.166043
     11.57114     10.82525     10.71517        -0.386347      0.210242      0.231293
      7.23799      2.63807     11.25544        -0.009913      0.005936      0.245426
      8.39575     13.29452     11.11511        -0.103879     -0.245658      0.134665
      1.40081      3.56875     13.34588         0.111510     -0.054751     -0.084529
      5.07189     10.30267     17.21059        -0.169749      0.146768     -0.400952
      8.16060     10.71482     14.71150         0.569667     -0.332904     -0.107609
      9.16254      3.02063     16.37571         0.085698     -0.230836     -0.607078
      9.85145      0.10014     12.22680         0.229212      0.205740      0.176830
      7.65366      9.96114     11.25190        -0.277718     -0.365850      0.010591
      1.76990      6.87290     17.38518         0.082223     -0.396227      0.060387
      9.32110     11.31071     10.54820         0.600702      0.080739      0.027776
      4.73727      4.27210     14.28270         0.088147     -0.224185     -0.208466
      2.20101      2.74126     16.61368         0.022554     -0.239375      0.065460
      5.81078      2.74038     17.27416         0.043039      0.000000     -0.226237
      9.53474      6.37000     11.41939        -0.271680      0.100351      0.162716
      3.80674      4.42457     10.75147        -0.269279     -0.187908     -0.060087
     10.14445      7.72170     13.17920        -0.130651      0.074985     -0.035444
      5.43474      1.28234     11.70678         0.211481     -0.068207     -0.342655
      0.03529     13.62941     14.57217         0.004288      0.045064     -0.180060
      2.43643      9.73347     10.20732         0.268023     -0.076988      0.076290
     13.22048      5.14702     11.17213        -0.241770     -0.098443      0.329688
      3.93825      6.27568     17.37004         0.008252     -0.023412     -0.090514
      3.74293     12.07503     16.37991         0.083840     -0.090895     -0.097873
      6.09745      4.55318     11.00403         0.264713     -0.222178      0.110927
      9.70997      7.44495     16.64565         0.021818     -0.072883      0.046733
      6.08126      8.33117     10.81022         0.130967      0.306024     -0.004627
      2.41432     11.02204     14.28984         0.250882      0.009568     -0.053471
      4.04637      4.09411     16.53081        -0.264552      0.223775      0.273461
      6.49602      7.52271     14.63857         0.042804     -0.086546      0.052076
      0.85966     10.60651     12.55532        -0.153426     -0.258135      0.111200
      6.49718     10.66328     13.09735        -0.419698      0.214279     -0.168346
     12.64194      1.71564     12.58895        -0.163709      0.066722     -0.022877
      8.86371      2.13542     12.85594         0.118975      0.084016     -0.286610
      3.20349     12.71156     12.88767         0.212219      0.091862     -0.161024
      2.56538      1.84385     14.49179         0.051468      0.039609     -0.109756
      8.61009      8.43546     14.82126        -0.016681      0.355910     -0.026359
     13.51769      7.42786     11.97475         0.153602      0.066608     -0.200486
      3.30542      8.87284     14.61180         0.006054      0.134648      0.092574
     14.44842      6.82120     14.04570         0.061312      0.094074      0.084220
      4.88036      8.14695     16.23656         0.141202     -0.086933      0.238115
      0.14634      3.78576     16.60573         0.236710      0.089734      0.330118
     11.22414      6.61746     15.01940        -0.015308      0.098581      0.382532
     10.36559     14.19549     14.51515        -0.038010     -0.055537     -0.005136
      0.32728     10.57253     17.28572         0.204340     -0.156997      0.207441
      1.36177     12.21261     16.02176        -0.011349      0.061607     -0.006276
      9.37532     11.50297     17.17698         0.254972     -0.100410      0.062505
     12.67770      0.61636     14.74022        -0.003826     -0.079793      0.088654
      3.43553      2.13159     10.86731        -0.036304      0.027762      0.378798
      1.09930      8.47036     11.67410        -0.250841      0.038048      0.062232
     12.11595     10.60402     14.30316        -0.050437      0.137548     -0.001411
      6.22320      1.05397     15.63646         0.209297     -0.283531      0.007604
     12.91498      2.27402     16.39494        -0.405358     -0.110848     -0.424963
      6.80136      5.22476     14.69986         0.215413      0.192311      0.077505
      1.75716      0.03477     13.29504        -0.117718      0.030009      0.018911
     10.65323      9.52595     17.03597        -0.584592      0.063291     -0.082185
      7.31145      6.42258     11.00419         0.011449      0.203382     -0.127033
      2.11978      7.26158     13.41467         0.062885     -0.154110     -0.077446
     14.43526      2.93235     11.69547         0.057006      0.055223      0.087075
      3.06326      5.15649     12.86902        -0.075391      0.028830      0.091229
     12.89963      9.67268     16.32871         0.099539     -0.107543      0.019246
      6.15471     13.65560     11.30400        -0.208598     -0.137040     -0.137191
      5.67621     13.25494     15.60795         0.121045      0.114368      0.309105
     14.13412      4.55737     14.48109        -0.236265      0.231982     -0.192226
 -----------------------------------------------------------------------------------
    total drift:                               -0.003239      0.003207     -0.000713


--------------------------------------------------------------------------------------------------------



  FREE ENERGIE OF THE ION-ELECTRON SYSTEM (eV)
  ---------------------------------------------------
  free  energy   TOTEN  =      -791.44908964 eV

  energy  without entropy=     -791.29811573  energy(sigma->0) =     -791.37360269



--------------------------------------------------------------------------------------------------------


    POTLOK:  cpu time      3.6934: real time      3.6957


--------------------------------------------------------------------------------------------------------


     LOOP+:  cpu time   4932.5877: real time   4936.0182
    4ORBIT:  cpu time      0.0000: real time      0.0000



 total charge

# of ion       s       p       d       tot
------------------------------------------
    1        0.566   0.016   0.000   0.583
    2        0.799   0.833   0.000   1.631
    3        0.785   0.900   0.000   1.685
    4        0.763   0.945   0.000   1.708
    5        0.805   0.891   0.000   1.696
    6        0.811   0.901   0.000   1.713
    7        0.758   0.930   0.000   1.688
    8        0.760   0.897   0.000   1.657
    9        0.809   0.846   0.000   1.655
   10        0.756   0.936   0.000   1.692
   11        0.797   0.845   0.000   1.642
   12        0.761   0.949   0.000   1.710
   13        0.779   0.915   0.000   1.694
   14        0.760   0.901   0.000   1.661
   15        0.762   0.872   0.000   1.634
   16        0.752   0.906   0.000   1.658
   17        0.755   0.887   0.000   1.641
   18        0.750   0.911   0.000   1.660
   19        0.758   0.906   0.000   1.664
   20        0.769   0.946   0.000   1.715
   21        0.760   0.915   0.000   1.676
   22        0.778   0.886   0.000   1.664
   23        0.785   0.842   0.000   1.627
   24        0.781   0.911   0.000   1.692
   25        0.781   0.903   0.000   1.684
   26        0.763   0.936   0.000   1.698
   27        0.785   0.843   0.000   1.627
   28        0.764   0.943   0.000   1.707
   29        0.792   0.899   0.000   1.692
   30        0.763   0.962   0.000   1.725
   31        0.787   0.888   0.000   1.675
   32        0.779   0.936   0.000   1.715
   33        0.766   0.921   0.000   1.686
   34        0.768   0.925   0.000   1.693
   35        0.788   0.900   0.000   1.688
   36        0.807   0.857   0.000   1.664
   37        0.773   0.905   0.000   1.677
   38        0.789   0.872   0.000   1.662
   39        0.758   0.932   0.000   1.690
   40        0.752   0.950   0.000   1.702
   41        0.752   0.924   0.000   1.676
   42        0.871   0.716   0.000   1.587
   43        0.797   0.795   0.000   1.592
   44        0.779   0.892   0.000   1.670
   45        0.783   0.827   0.000   1.610
   46        0.784   0.918   0.000   1.703
   47        0.810   0.846   0.000   1.657
   48        0.807   0.850   0.000   1.657
   49        0.764   0.942   0.000   1.706
   50        0.755   0.942   0.000   1.697
   51        0.756   0.968   0.000   1.724
   52        0.773   0.915   0.000   1.688
   53        0.770   0.957   0.000   1.728
   54        0.766   0.919   0.000   1.685
   55        0.756   0.930   0.000   1.686
   56        0.767   0.931   0.000   1.698
   57        0.758   0.938   0.000   1.695
   58        0.759   0.944   0.000   1.703
   59        0.764   0.881   0.000   1.644
   60        0.752   0.907   0.000   1.660
   61        0.769   0.954   0.000   1.724
   62        0.759   0.897   0.000   1.656
   63        0.761   0.938   0.000   1.700
   64        0.768   0.914   0.000   1.683
   65        0.759   0.876   0.000   1.636
   66        0.796   0.883   0.000   1.679
   67        0.763   0.891   0.000   1.654
   68        0.811   0.818   0.000   1.629
   69        0.757   0.875   0.000   1.632
   70        0.783   0.857   0.000   1.640
   71        0.764   0.931   0.000   1.696
   72        0.758   0.921   0.000   1.679
   73        0.756   0.887   0.000   1.643
   74        0.795   0.870   0.000   1.665
   75        0.749   0.960   0.000   1.709
   76        0.757   0.928   0.000   1.685
   77        0.803   0.831   0.000   1.634
   78        0.767   0.930   0.000   1.698
   79        0.762   0.937   0.000   1.698
   80        0.763   0.875   0.000   1.638
   81        0.752   0.919   0.000   1.670
   82        0.756   0.921   0.000   1.677
   83        0.790   0.912   0.000   1.702
   84        0.760   0.886   0.000   1.646
   85        0.771   0.931   0.000   1.702
--------------------------------------------------
tot         65.528  75.744   0.000 141.271


 total amount of memory used by VASP MPI-rank0   347850. kBytes
=======================================================================

   base                                    :      30000. kBytes
   nonl-proj                               :      64950. kBytes
   fftplans                                :     108854. kBytes
   grid                                    :      83991. kBytes
   one-center                              :         18. kBytes
   wavefun                                 :      60037. kBytes

  
  
 General timing and accounting informations for this job:
 ========================================================
  
                  Total CPU time used (sec):     5076.486
                            User time (sec):     4526.586
                          System time (sec):      549.900
                         Elapsed time (sec):     5080.080
  
                   Maximum memory used (kb):      611648.
                   Average memory used (kb):          N/A
  
                          Minor page faults:      5091420
                          Major page faults:         1165
                 Voluntary context switches:         3017
