 vasp.6.5.0 16Dec24 (build Jan 20 2025 08:32:48) complex                         
 executed on        HPECrayEX_GCC date 2025.07.22  08:24:23
 running  128 mpi-ranks, with    1 threads/rank, on    1 nodes
 distrk:  each k-point on  128 cores,    1 groups
 distr:  one band on NCORE=  16 cores,    8 groups


--------------------------------------------------------------------------------------------------------


 INCAR:
   SYSTEM = a-Si SPC
   NCORE = 16
   ISTART = 1
   ICHARG = 1
   ISPIN = 1
   ISYM = 1
   EDIFF = 1E-6
   NELM = 150
   EDIFFG = -0.01
   NSW = 0
   ISIF = 2
   IBRION = -1
   PREC = Accurate
   ENCUT = 1200
   KSPACING = 0.23
   KGAMMA = .TRUE.
   METAGGA = SCAN
   LASPH = .TRUE.
   LDIAG = .FALSE.
   LMIXTAU = .TRUE.
   ADDGRID = .TRUE.
   ALGO = Normal
   ISMEAR = 0
   SIGMA = 0.1
   LORBIT = 11
   NEDOS = 2000
   LWAVE = .FALSE.
   LCHARG = .FALSE.

 POTCAR:    PAW_PBE H 15Jun2001                   
 POTCAR:    PAW_PBE Si 05Jan2001                  
 POTCAR:    PAW_PBE H 15Jun2001                   
   SHA256 =  030f79b5d3ab3cf0e668861823c8fb652ff669f3e15e46930bd03bfd63a607b6 H/POTCAR              
   COPYR  = (c) Copyright 15Jun2001 Georg Kresse                                                    
   COPYR  = This file is part of the software VASP. Any use, copying, and all other rights are regul
   COPYR  = If you do not have a valid VASP license, you may not use, copy or distribute this file. 
   VRHFIN =H: ultrasoft test                                                                        
   LEXCH  = PE                                                                                      
   EATOM  =    12.4884 eV,    0.9179 Ry                                                             
                                                                                                    
   TITEL  = PAW_PBE H 15Jun2001                                                                     
   LULTRA =        F    use ultrasoft PP ?                                                          
   IUNSCR =        0    unscreen: 0-lin 1-nonlin 2-no                                               
   RPACOR =    0.000    partial core radius                                                         
   POMASS =    1.000; ZVAL   =    1.000    mass and valenz                                          
   RCORE  =    1.100    outmost cutoff radius                                                       
   RWIGS  =    0.700; RWIGS  =    0.370    wigner-seitz radius (au A)                               
   ENMAX  =  250.000; ENMIN  =  200.000 eV                                                          
   RCLOC  =    0.701    cutoff for local pot                                                        
   LCOR   =        T    correct aug charges                                                         
   LPAW   =        T    paw PP                                                                      
   EAUG   =  400.000                                                                                
   RMAX   =    1.123    core radius for proj-oper                                                   
   RAUG   =    1.200    factor for augmentation sphere                                              
   RDEP   =    1.112    radius for radial grids                                                     
   RDEPT  =    0.926    core radius for aug-charge                                                  
                                                                                                    
   Atomic configuration                                                                             
    2 entries                                                                                       
     n  l   j            E        occ.                                                              
     1  0  0.50        -6.4927   1.0000                                                             
     2  1  0.50        -3.4015   0.0000                                                             
   Description                                                                                      
     l       E           TYP  RCUT    TYP  RCUT                                                     
     0     -6.4927494     23  1.100                                                                 
     0      6.8029130     23  1.100                                                                 
     1     -4.0817478     23  1.100                                                                 
  local pseudopotential read in
  atomic valenz-charges read in
  non local Contribution for L=           0  read in
    real space projection operators read in
  non local Contribution for L=           0  read in
    real space projection operators read in
  non local Contribution for L=           1  read in
    real space projection operators read in
    PAW grid and wavefunctions read in

   number of l-projection  operators is LMAX  =           3
   number of lm-projection operators is LMMAX =           5

 POTCAR:    PAW_PBE Si 05Jan2001                  
   SHA256 =  79d9987ad8750f624c4d6acb2a16d13abf6a777132adc04dc6c8399be72b42bb Si/POTCAR             
   COPYR  = (c) Copyright 05Jan2001 Georg Kresse                                                    
   COPYR  = This file is part of the software VASP. Any use, copying, and all other rights are regul
   COPYR  = If you do not have a valid VASP license, you may not use, copy or distribute this file. 
   VRHFIN =Si: s2p2                                                                                 
   LEXCH  = PE                                                                                      
   EATOM  =   103.0669 eV,    7.5752 Ry                                                             
                                                                                                    
   TITEL  = PAW_PBE Si 05Jan2001                                                                    
   LULTRA =        F    use ultrasoft PP ?                                                          
   IUNSCR =        1    unscreen: 0-lin 1-nonlin 2-no                                               
   RPACOR =    1.500    partial core radius                                                         
   POMASS =   28.085; ZVAL   =    4.000    mass and valenz                                          
   RCORE  =    1.900    outmost cutoff radius                                                       
   RWIGS  =    2.480; RWIGS  =    1.312    wigner-seitz radius (au A)                               
   ENMAX  =  245.345; ENMIN  =  184.009 eV                                                          
   ICORE  =        2    local potential                                                             
   LCOR   =        T    correct aug charges                                                         
   LPAW   =        T    paw PP                                                                      
   EAUG   =  322.069                                                                                
   DEXC   =    0.000                                                                                
   RMAX   =    1.950    core radius for proj-oper                                                   
   RAUG   =    1.300    factor for augmentation sphere                                              
   RDEP   =    1.993    radius for radial grids                                                     
   RDEPT  =    1.837    core radius for aug-charge                                                  
                                                                                                    
   Atomic configuration                                                                             
    6 entries                                                                                       
     n  l   j            E        occ.                                                              
     1  0  0.50     -1785.8828   2.0000                                                             
     2  0  0.50      -139.4969   2.0000                                                             
     2  1  1.50       -95.5546   6.0000                                                             
     3  0  0.50       -10.8127   2.0000                                                             
     3  1  0.50        -4.0811   2.0000                                                             
     3  2  1.50        -4.0817   0.0000                                                             
   Description                                                                                      
     l       E           TYP  RCUT    TYP  RCUT                                                     
     0    -10.8127223     23  1.900                                                                 
     0     -7.6451159     23  1.900                                                                 
     1     -4.0811372     23  1.900                                                                 
     1      2.4879257     23  1.900                                                                 
     2     -4.0817478      7  1.900                                                                 
  local pseudopotential read in
  partial core-charges read in
  partial kinetic energy density read in
  atomic valenz-charges read in
  non local Contribution for L=           0  read in
    real space projection operators read in
  non local Contribution for L=           0  read in
    real space projection operators read in
  non local Contribution for L=           1  read in
    real space projection operators read in
  non local Contribution for L=           1  read in
    real space projection operators read in
    PAW grid and wavefunctions read in

   number of l-projection  operators is LMAX  =           4
   number of lm-projection operators is LMMAX =           8

 -----------------------------------------------------------------------------
|                                                                             |
|               ----> ADVICE to this user running VASP <----                  |
|                                                                             |
|     You have a (more or less) 'large supercell' and for larger cells it     |
|     might be more efficient to use real-space projection operators.         |
|     Therefore, try LREAL= Auto in the INCAR file.                           |
|     Mind: For very accurate calculation, you might also keep the            |
|     reciprocal projection scheme (i.e. LREAL=.FALSE.).                      |
|                                                                             |
 -----------------------------------------------------------------------------

 -----------------------------------------------------------------------------
|                                                                             |
|               ----> ADVICE to this user running VASP <----                  |
|                                                                             |
|     You enforced a specific xc type in the INCAR file but a different       |
|     type was found in the POTCAR file.                                      |
|     I HOPE YOU KNOW WHAT YOU ARE DOING!                                     |
|                                                                             |
 -----------------------------------------------------------------------------

  PAW_PBE H 15Jun2001                   :
 energy of atom  1       EATOM=  -12.4884
 kinetic energy error for atom=    0.0000 (will be added to EATOM!!)
  PAW_PBE Si 05Jan2001                  :
 energy of atom  2       EATOM= -103.0669
 kinetic energy error for atom=    0.0001 (will be added to EATOM!!)


 POSCAR:  H Si
  positions in cartesian coordinates
  No initial velocities read in


 exchange-correlation table for SCAN
   RHO(1)=    0.500       N(1)  =     2000
   RHO(2)=  100.500       N(2)  =     4000



--------------------------------------------------------------------------------------------------------


 ion  position               nearest neighbor table
   1  0.207  0.342  0.586-   8 1.55
   2  0.823  0.094  0.412-  34 1.44
   3  0.471  0.988  0.518-  43 2.33  11 2.36   9 2.42  40 2.45
   4  0.809  0.633  0.563-  47 2.24  35 2.31  38 2.32  28 2.43
   5  0.063  0.472  0.567-  68 2.29  21 2.31  55 2.40
   6  0.014  0.782  0.521-   7 2.25  28 2.29  13 2.30  66 2.31
   7  0.925  0.756  0.452-   6 2.25  69 2.35  35 2.50
   8  0.306  0.381  0.586-   1 1.55  37 2.24  61 2.27
   9  0.334  0.967  0.468-  48 2.31  54 2.32   3 2.42  49 2.43
  10  0.391  0.709  0.478-  45 2.32  40 2.37  24 2.39  51 2.47
  11  0.376  0.023  0.588-  64 2.27   3 2.36  58 2.48
  12  0.639  0.758  0.429-  31 2.26  51 2.29  46 2.33  17 2.42
  13  0.126  0.671  0.512-  24 2.30   6 2.30  68 2.31  57 2.32
  14  0.940  0.996  0.416-  60 2.22  69 2.36  33 2.57
  15  0.872  0.289  0.569-  63 2.29  42 2.30  56 2.39  55 2.64  30 3.14
  16  0.379  0.256  0.467-  61 2.30  29 2.42  41 2.52  67 2.54
  17  0.633  0.597  0.407-  65 2.36  26 2.41  12 2.42
  18  0.417  0.789  0.611-  58 2.32  40 2.33
  19  0.560  0.537  0.561-  45 2.39  59 2.42  47 2.52
  20  0.063  0.054  0.552-  66 2.27  22 2.28  27 2.33  33 2.44
  21  0.967  0.495  0.498-  57 2.24  56 2.29   5 2.31  35 2.32
  22  0.966  0.071  0.619-  20 2.28  63 2.36
  23  0.528  0.279  0.595-  61 2.23  44 2.31  59 2.44
  24  0.235  0.760  0.472-  48 2.22  13 2.30  53 2.33  10 2.39
  25  0.764  0.365  0.430-  52 2.27  56 2.35  65 2.44
  26  0.489  0.522  0.425-  41 2.24  45 2.32  17 2.41
  27  0.165  0.177  0.551-  20 2.33  64 2.34  55 2.53  67 2.56
  28  0.912  0.758  0.586-   6 2.29  50 2.32   4 2.43
  29  0.476  0.159  0.415-  16 2.42  32 2.44
  30  0.004  0.268  0.475-  56 2.17  36 2.28  33 2.33  55 2.48  15 3.14
  31  0.628  0.801  0.511-  12 2.26  47 2.28  62 2.33  40 2.41
  32  0.623  0.155  0.460-  34 2.29  43 2.35  52 2.39  29 2.44
  33  0.960  0.115  0.487-  30 2.33  20 2.44  63 2.52  14 2.57
  34  0.731  0.124  0.399-   2 1.44  32 2.29
  35  0.857  0.607  0.481-   4 2.31  21 2.32  65 2.40   7 2.50
  36  0.125  0.313  0.425-  67 2.28  30 2.28  39 2.35
  37  0.295  0.494  0.529-   8 2.24  68 2.26  45 2.33  39 2.52
  38  0.842  0.515  0.620-  42 2.31   4 2.32
  39  0.198  0.448  0.453-  36 2.35  57 2.40  37 2.52
  40  0.467  0.821  0.529-  18 2.33  10 2.37  31 2.41   3 2.45
  41  0.500  0.371  0.441-  26 2.24  52 2.41  16 2.52
  42  0.758  0.384  0.599-  59 2.29  15 2.30  38 2.31
  43  0.619  0.048  0.527-   3 2.33  32 2.35  44 2.36  62 2.46
  44  0.590  0.133  0.602-  23 2.31  43 2.36
  45  0.433  0.563  0.505-  10 2.32  26 2.32  37 2.33  19 2.39
  46  0.733  0.853  0.380-  12 2.33  69 2.43
  47  0.662  0.678  0.562-   4 2.24  31 2.28  19 2.52
  48  0.239  0.884  0.521-  24 2.22  66 2.24   9 2.31  58 2.38
  49  0.226  0.058  0.418-  67 2.31   9 2.43  60 2.45
  50  0.801  0.870  0.602-  28 2.32  62 2.39
  51  0.487  0.762  0.406-  12 2.29  54 2.34  10 2.47
  52  0.642  0.315  0.476-  59 2.21  25 2.27  32 2.39  41 2.41
  53  0.157  0.822  0.403-  24 2.33  60 2.37
  54  0.403  0.899  0.398-   9 2.32  51 2.34
  55  0.052  0.308  0.562-   5 2.40  30 2.48  27 2.53  15 2.64
  56  0.888  0.360  0.487-  30 2.17  21 2.29  25 2.35  15 2.39
  57  0.079  0.562  0.453-  21 2.24  13 2.32  39 2.40
  58  0.287  0.882  0.608-  18 2.32  48 2.38  11 2.48
  59  0.627  0.387  0.550-  52 2.21  42 2.29  19 2.42  23 2.44
  60  0.088  0.963  0.427-  14 2.22  66 2.26  53 2.37  49 2.45
  61  0.393  0.265  0.554-  23 2.23   8 2.27  16 2.30  64 2.32
  62  0.731  0.921  0.525-  31 2.33  50 2.39  43 2.46  69 2.49
  63  0.856  0.132  0.563-  15 2.29  22 2.36  33 2.52
  64  0.302  0.160  0.596-  11 2.27  61 2.32  27 2.34
  65  0.781  0.530  0.412-  17 2.36  35 2.40  25 2.44
  66  0.090  0.920  0.510-  48 2.24  60 2.26  20 2.27   6 2.31
  67  0.215  0.199  0.458-  36 2.28  49 2.31  16 2.54  27 2.56
  68  0.186  0.572  0.573-  37 2.26   5 2.29  13 2.31
  69  0.834  0.890  0.451-   7 2.35  14 2.36  46 2.43  62 2.49

  LATTYP: Found a simple tetragonal cell.
 ALAT       =    14.5284224467
 C/A-ratio  =     1.8104015764
  
  Lattice vectors:
  
 A1 = (  14.5284224467,   0.0000000000,   0.0000000000)
 A2 = (   0.0000000000,  14.5284224467,   0.0000000000)
 A3 = (   0.0000000000,   0.0000000000,  26.3022789000)


Analysis of symmetry for initial positions (statically):
=====================================================================
 Subroutine PRICEL returns:
 Original cell was already a primitive cell.
 

 Routine SETGRP: Setting up the symmetry group for a 
 simple tetragonal supercell.


 Subroutine GETGRP returns: Found  1 space group operations
 (whereof  1 operations were pure point group operations)
 out of a pool of 16 trial point group operations.


The static configuration has the point symmetry C_1 .


Analysis of symmetry for dynamics (positions and initial velocities):
=====================================================================
 Subroutine PRICEL returns:
 Original cell was already a primitive cell.
 

 Routine SETGRP: Setting up the symmetry group for a 
 simple tetragonal supercell.


 Subroutine GETGRP returns: Found  1 space group operations
 (whereof  1 operations were pure point group operations)
 out of a pool of 16 trial point group operations.


The dynamic configuration has the point symmetry C_1 .


 Subroutine INISYM returns: Found  1 space group operations
 (whereof  1 operations are pure point group operations),
 and found     1 'primitive' translations


----------------------------------------------------------------------------------------

                                     Primitive cell                                     

  volume of cell :    5551.7551

  direct lattice vectors                    reciprocal lattice vectors
    14.528422447  0.000000000  0.000000000     0.068830598  0.000000000  0.000000000
     0.000000000 14.528422447  0.000000000     0.000000000  0.068830598  0.000000000
     0.000000000  0.000000000 26.302278900     0.000000000  0.000000000  0.038019519

  length of vectors
    14.528422447 14.528422447 26.302278900     0.068830598  0.068830598  0.038019519

  position of ions in fractional coordinates (direct lattice)
     0.206803596  0.342454249  0.586019522
     0.823041871  0.093727313  0.412051060
     0.471395296  0.988434915  0.518037199
     0.809206921  0.632604815  0.563287271
     0.063455616  0.472415365  0.567147773
     0.013690957  0.781963771  0.520631651
     0.925165829  0.756489567  0.452015924
     0.306302354  0.381361433  0.586327860
     0.333724464  0.967083663  0.467928233
     0.390914431  0.708817495  0.478139516
     0.376077308  0.022603831  0.588150896
     0.638675674  0.757935009  0.428966971
     0.125886345  0.670873251  0.512174970
     0.939751033  0.995951216  0.415630179
     0.871663806  0.289184185  0.568553355
     0.379320606  0.256015408  0.467413449
     0.633235992  0.596624997  0.407005908
     0.417147149  0.788874363  0.611028381
     0.560272117  0.537396956  0.560720953
     0.063445292  0.053627846  0.551533156
     0.966663797  0.495232020  0.498470074
     0.966374708  0.071102007  0.619144028
     0.527841204  0.278551234  0.594886434
     0.234984219  0.759800318  0.472460160
     0.764074698  0.365305319  0.429777927
     0.488819762  0.522038785  0.425210262
     0.165100513  0.177403982  0.550503588
     0.912170612  0.757962541  0.586152210
     0.475974596  0.158751579  0.415092545
     0.003764091  0.267943751  0.474660350
     0.628195527  0.800623746  0.511243111
     0.622850831  0.154875728  0.460127388
     0.960207486  0.115065487  0.486801503
     0.731373282  0.123725753  0.399397023
     0.857078602  0.607341921  0.480893270
     0.124961950  0.312688457  0.425330023
     0.294603218  0.494457676  0.528641224
     0.841626133  0.514623665  0.619804807
     0.197921695  0.447511079  0.453477394
     0.466884139  0.820646567  0.528583434
     0.500053604  0.371143531  0.440737814
     0.758052021  0.384191059  0.599225982
     0.619077538  0.048311990  0.527283927
     0.590335945  0.133249154  0.602291116
     0.433255574  0.562858082  0.504914002
     0.733018333  0.853279153  0.380195193
     0.661914260  0.678255333  0.561938719
     0.238988783  0.884225390  0.521466180
     0.226398978  0.057590768  0.417751593
     0.801284520  0.869819146  0.601557719
     0.486587586  0.762395232  0.406148339
     0.642104126  0.315295760  0.476305834
     0.157336422  0.822071360  0.402938770
     0.402986630  0.899134097  0.397660520
     0.051950031  0.308036197  0.562239453
     0.888066137  0.359904871  0.487022016
     0.078828930  0.562361126  0.453124193
     0.286981606  0.881658008  0.607870100
     0.627494144  0.386505832  0.550277372
     0.087719779  0.963222267  0.427013908
     0.393455657  0.265495446  0.554177034
     0.731173673  0.921056643  0.524602030
     0.856293933  0.132451407  0.562814308
     0.301851080  0.159512157  0.596320530
     0.780766118  0.529741617  0.412413120
     0.090416561  0.919900288  0.509653515
     0.215034358  0.198911479  0.457874352
     0.185549395  0.571885904  0.572583043
     0.834226844  0.890234301  0.450966585

  ion indices of the primitive-cell ions
   primitive index   ion index
                 1           1
                 2           2
                 3           3
                 4           4
                 5           5
                 6           6
                 7           7
                 8           8
                 9           9
                10          10
                11          11
                12          12
                13          13
                14          14
                15          15
                16          16
                17          17
                18          18
                19          19
                20          20
                21          21
                22          22
                23          23
                24          24
                25          25
                26          26
                27          27
                28          28
                29          29
                30          30
                31          31
                32          32
                33          33
                34          34
                35          35
                36          36
                37          37
                38          38
                39          39
                40          40
                41          41
                42          42
                43          43
                44          44
                45          45
                46          46
                47          47
                48          48
                49          49
                50          50
                51          51
                52          52
                53          53
                54          54
                55          55
                56          56
                57          57
                58          58
                59          59
                60          60
                61          61
                62          62
                63          63
                64          64
                65          65
                66          66
                67          67
                68          68
                69          69

----------------------------------------------------------------------------------------


 -----------------------------------------------------------------------------
|                                                                             |
|           W    W    AA    RRRRR   N    N  II  N    N   GGGG   !!!           |
|           W    W   A  A   R    R  NN   N  II  NN   N  G    G  !!!           |
|           W    W  A    A  R    R  N N  N  II  N N  N  G       !!!           |
|           W WW W  AAAAAA  RRRRR   N  N N  II  N  N N  G  GGG   !            |
|           WW  WW  A    A  R   R   N   NN  II  N   NN  G    G                |
|           W    W  A    A  R    R  N    N  II  N    N   GGGG   !!!           |
|                                                                             |
|     The requested file  could not be found or opened for reading            |
|     k-point information. Automatic k-point generation is used as a          |
|     fallback, which may lead to unwanted results.                           |
|                                                                             |
 -----------------------------------------------------------------------------



Automatic generation of k-mesh.
 Grid dimensions derived from KSPACING:
 generate k-points for:    2    2    2

 Generating k-lattice:

  Cartesian coordinates                     Fractional coordinates (reciprocal lattice)
     0.034415299  0.000000000  0.000000000     0.500000000  0.000000000  0.000000000
     0.000000000  0.034415299  0.000000000     0.000000000  0.500000000  0.000000000
     0.000000000  0.000000000  0.019009760     0.000000000  0.000000000  0.500000000

  Length of vectors
     0.034415299  0.034415299  0.019009760

  Shift w.r.t. Gamma in fractional coordinates (k-lattice)
     0.000000000  0.000000000  0.000000000

 
 Subroutine IBZKPT returns following result:
 ===========================================
 
 Found      8 irreducible k-points:
 
 Following reciprocal coordinates:
            Coordinates               Weight
  0.000000  0.000000  0.000000      1.000000
  0.500000  0.000000  0.000000      1.000000
  0.000000  0.500000  0.000000      1.000000
  0.500000  0.500000  0.000000      1.000000
  0.000000  0.000000  0.500000      1.000000
  0.500000  0.000000  0.500000      1.000000
  0.000000  0.500000  0.500000      1.000000
  0.500000  0.500000  0.500000      1.000000
 
 Following cartesian coordinates:
            Coordinates               Weight
  0.000000  0.000000  0.000000      1.000000
  0.034415  0.000000  0.000000      1.000000
  0.000000  0.034415  0.000000      1.000000
  0.034415  0.034415  0.000000      1.000000
  0.000000  0.000000  0.019010      1.000000
  0.034415  0.000000  0.019010      1.000000
  0.000000  0.034415  0.019010      1.000000
  0.034415  0.034415  0.019010      1.000000
 


--------------------------------------------------------------------------------------------------------




 Dimension of arrays:
   k-points           NKPTS =      8   k-points in BZ     NKDIM =      8   number of bands    NBANDS=    176
   number of dos      NEDOS =   2000   number of ions     NIONS =     69
   non local maximal  LDIM  =      4   non local SUM 2l+1 LMDIM =      8
   total plane-waves  NPLWV = ******
   max r-space proj   IRMAX =      1   max aug-charges    IRDMAX= 408095
   dimension x,y,z NGX =   168 NGY =  168 NGZ =  300
   dimension x,y,z NGXF=   336 NGYF=  336 NGZF=  600
   support grid    NGXF=   672 NGYF=  672 NGZF= 1200
   ions per type =               2  67
   NGX,Y,Z   is equivalent  to a cutoff of  19.22, 19.22, 18.96 a.u.
   NGXF,Y,Z  is equivalent  to a cutoff of  38.45, 38.45, 37.92 a.u.

 SYSTEM =  a-Si SPC                                
 POSCAR =   H Si                                   

 Startparameter for this run:
   NWRITE =      2    write-flag & timer
   PREC   = accura    normal or accurate (medium, high low for compatibility)
   ISTART =      1    job   : 0-new  1-cont  2-samecut
   ICHARG =      1    charge: 1-file 2-atom 10-const
   ISPIN  =      1    spin polarized calculation?
   LNONCOLLINEAR =      F non collinear calculations
   LSORBIT =      F    spin-orbit coupling
   INIWAV =      1    electr: 0-lowe 1-rand  2-diag
   LASPH  =      T    aspherical Exc in radial PAW
 Electronic Relaxation 1
   ENCUT  = 1200.0 eV  88.20 Ry    9.39 a.u.  41.04 41.04 74.29*2*pi/ulx,y,z
   ENINI  = 1200.0     initial cutoff
   ENAUG  =  400.0 eV  augmentation charge cutoff
   NELM   =    150;   NELMIN=  2; NELMDL=  0     # of ELM steps 
   EDIFF  = 0.1E-05   stopping-criterion for ELM
   LREAL  =      F    real-space projection
   NLSPLINE    = F    spline interpolate recip. space projectors
   LCOMPAT=      F    compatible to vasp.4.4
   GGA_COMPAT  = T    GGA compatible to vasp.4.4-vasp.4.6
   LMAXPAW     = -100 max onsite density
   LMAXMIX     =    2 max onsite mixed and CHGCAR
   VOSKOWN=      0    Vosko Wilk Nusair interpolation
   ROPT   =    0.00000   0.00000
 Ionic relaxation
   EDIFFG = -.1E-01   stopping-criterion for IOM
   NSW    =      0    number of steps for IOM
   NBLOCK =      1;   KBLOCK =      1    inner block; outer block 
   IBRION =     -1    ionic relax: 0-MD 1-quasi-New 2-CG
   NFREE  =      0    steps in history (QN), initial steepest desc. (CG)
   ISIF   =      2    stress and relaxation
   IWAVPR =     10    prediction:  0-non 1-charg 2-wave 3-comb
   ISYM   =      1    0-nonsym 1-usesym 2-fastsym
   LCORR  =      T    Harris-Foulkes like correction to forces

   POTIM  = 0.5000    time-step for ionic-motion
   TEIN   =    0.0    initial temperature
   TEBEG  =    0.0;   TEEND  =   0.0 temperature during run
   SMASS  =  -3.00    Nose mass-parameter (am)
   estimated Nose-frequenzy (Omega)   =  0.10E-29 period in steps = 0.13E+47 mass=  -0.482E-26a.u.
   SCALEE = 1.0000    scale energy and forces
   NPACO  =    256;   APACO  = 10.0  distance and # of slots for P.C.
   PSTRESS=    0.0 pullay stress

  Mass of Ions in am
   POMASS =   1.00 28.09
  Ionic Valenz
   ZVAL   =   1.00  4.00
  Atomic Wigner-Seitz radii
   RWIGS  =  -1.00 -1.00
  virtual crystal weights 
   VCA    =   1.00  1.00
   NELECT =     270.0000    total number of electrons
   NUPDOWN=      -1.0000    fix difference up-down

 DOS related values:
   EMIN   =  10.00;   EMAX   =-10.00  energy-range for DOS
   EFERMI =   0.00;   METHOD = LEGACY      
   ISMEAR =     0;   SIGMA  =   0.10  broadening in eV -4-tet -1-fermi 0-gaus
   EFERMI_NEDOS =   21; number of points for ismear=-14 and -15

 Electronic relaxation 2 (details)
   IALGO  =     38    algorithm
   LDIAG  =      F    sub-space diagonalisation (order eigenvalues)
   LSUBROT=      F    optimize rotation matrix (better conditioning)
   TURBO    =      0    0=normal 1=particle mesh
   IRESTART =      0    0=no restart 2=restart with 2 vectors
   NREBOOT  =      0    no. of reboots
   NMIN     =      0    reboot dimension
   EREF     =   0.00    reference energy to select bands
   IMIX   =      4    mixing-type and parameters
     AMIX     =   0.40;   BMIX     =  1.00
     AMIX_MAG =   1.60;   BMIX_MAG =  1.00
     AMIN     =   0.10
     WC   =   100.;   INIMIX=   1;  MIXPRE=   1;  MAXMIX= -45

 Intra band minimization:
   WEIMIN = 0.0000     energy-eigenvalue tresh-hold
   EBREAK =  0.14E-08  absolut break condition
   DEPER  =   0.30     relativ break condition  

   TIME   =   0.40     timestep for ELM

  volume/ion in A,a.u.               =      80.46       542.97
  Fermi-wavevector in a.u.,A,eV,Ry     =   0.597566  1.129236  4.858440  0.357085
  Thomas-Fermi vector in A             =   1.648340

 Write flags
   LWAVE        =      F    write WAVECAR
   LDOWNSAMPLE  =      F    k-point downsampling of WAVECAR
   LCHARG       =      F    write CHGCAR
   LVTOT        =      F    write LOCPOT, total local potential
   LVHAR        =      F    write LOCPOT, Hartree potential only
   WRT_POTENTIAL= false  ! write potential to hdf5 file
   LELF         =      F    write electronic localiz. function (ELF)
   LORBIT       =     11    0 simple, 1 ext, 2 COOP (PROOUT), +10 PAW based schemes


 Python interface
   PLUGINS active      =      F    recompile with -DPLUGINS to activate

 Dipole corrections
   LMONO      =      F    monopole corrections only (constant potential shift)
   LDIPOL     =      F    correct potential (dipole corrections)
   IDIPOL     =      0    1-x, 2-y, 3-z, 4-all directions 
   EPSILON    =  1.0000000 bulk dielectric constant
   LVACPOTAV  =      F  vacuum potentials using an averaging scheme for the charge density
   VACPOTFLAT =  0.1000000 required flatness to determine vacuum potential

Coulomb truncation method
  LTRUNCATE          =      F  Coulomb kernel truncation to be used
  IDIMENSIONALITY    =      3  Dimensionality of cutoff (0 molecules / 2 surfaces)
  ISURFACE           =     -1  Direction of surface normal
  LCOARSEN           =      F  Coarsen the charge grid before padding, preferred


 Exchange correlation treatment:
   METAGGA = SCAN    functional components
   XC_C    = 1    coefficients multiplying the functional components
   LIBXC   =     F    Libxc                    
   VOSKOWN =     0    Vosko Wilk Nusair interpolation
   LHFCALC =     F    Hartree Fock is set to
   LHFONE  =     F    Hartree Fock one center treatment
   AEXX    =    0.0000 exact exchange contribution

 Parameters of functionals:
   SCAN:
     P1 =  0.000000E+00
     P2 =  0.000000E+00
     P3 =  0.000000E+00

 Accuracy and mixing parameters for tau-dependent meta-GGA functionals:
   LMAXTAU = 6
   LMIXTAU = T

 Van der Waals corrections
   IVDW    =     0    specifies the selected vdW correction

 Linear response parameters
   LEPSILON=     F    determine dielectric tensor
   LRPA    =     F    only Hartree local field effects (RPA)
   LNABLA  =     F    use nabla operator in PAW spheres
   LVEL    =     F    velocity operator in full k-point grid
   CSHIFT  =0.1000    complex shift for real part using Kramers Kronig
   OMEGAMAX=  -1.0    maximum frequency
   DEG_THRESHOLD= 0.2000000E-02 threshold for treating states as degnerate
   RTIME   =   -0.100 relaxation time in fs
  (WPLASMAI=    0.000 imaginary part of plasma frequency in eV, 0.658/RTIME)
   DFIELD  = 0.0000000 0.0000000 0.0000000 field for delta impulse in time

  Optional k-point grid parameters
   LKPOINTS_OPT  =     F    use optional k-point grid
   KPOINTS_OPT_MODE=     1    mode for optional k-point grid

 Orbital magnetization related:
   ORBITALMAG=     F  switch on orbital magnetization
   LCHIMAG   =     F  perturbation theory with respect to B field
   DQ        =  0.001000  dq finite difference perturbation B field
   LLRAUG    =     F  two centre corrections for induced B field
   LBONE     =     F  B-component reconstruction in AE one-centre
   LVGVCALC  =     T  calculate vGv susceptibility
   LVGVAPPL  =     F  apply vGv susceptibility instead of pGv for G=0

 Random number generation:
   RANDOM_GENERATOR = DEFAULT
   PCG_SEED         = not used


--------------------------------------------------------------------------------------------------------


 Static calculation
 charge density and potential will be updated during run
 non-spin polarized calculation
 Variant of blocked Davidson
 perform Loewdin sub-space diagonalisation
    ordering is kept fixed
    before iterative eigenvector-optimisation
 modified Broyden-mixing scheme, WC =      100.0
 initial mixing is a Kerker type mixing with AMIX =  0.4000 and BMIX =      1.0000
 Hartree-type preconditioning will be used
 using additional bands           41
 reciprocal scheme for non local part
 use partial core corrections
 calculate Harris-corrections to forces   (improved forces if not selfconsistent)
 use gradient corrections 
 use of overlap-Matrix (Vanderbilt PP)
 Gauss-broadening in eV      SIGMA  =   0.10


--------------------------------------------------------------------------------------------------------


  energy-cutoff  :     1200.00
  volume of cell :     5551.76
      direct lattice vectors                 reciprocal lattice vectors
    14.528422447  0.000000000  0.000000000     0.068830598  0.000000000  0.000000000
     0.000000000 14.528422447  0.000000000     0.000000000  0.068830598  0.000000000
     0.000000000  0.000000000 26.302278900     0.000000000  0.000000000  0.038019519

  length of vectors
    14.528422447 14.528422447 26.302278900     0.068830598  0.068830598  0.038019519



 old parameters found on file WAVECAR:
  energy-cutoff  :     1200.00
  volume of cell :     5551.76
      direct lattice vectors                 reciprocal lattice vectors
    14.528422447  0.000000000  0.000000000     0.068830598  0.000000000  0.000000000
     0.000000000 14.528422447  0.000000000     0.000000000  0.068830598  0.000000000
     0.000000000  0.000000000 26.302278900     0.000000000  0.000000000  0.038019519

  length of vectors


 k-points in units of 2pi/SCALE and weight: read from INCAR                         
   0.00000000  0.00000000  0.00000000       0.125
   0.03441530  0.00000000  0.00000000       0.125
   0.00000000  0.03441530  0.00000000       0.125
   0.03441530  0.03441530  0.00000000       0.125
   0.00000000  0.00000000  0.01900976       0.125
   0.03441530  0.00000000  0.01900976       0.125
   0.00000000  0.03441530  0.01900976       0.125
   0.03441530  0.03441530  0.01900976       0.125

 k-points in reciprocal lattice and weights: read from INCAR                         
   0.00000000  0.00000000  0.00000000       0.125
   0.50000000  0.00000000  0.00000000       0.125
   0.00000000  0.50000000  0.00000000       0.125
   0.50000000  0.50000000  0.00000000       0.125
   0.00000000  0.00000000  0.50000000       0.125
   0.50000000  0.00000000  0.50000000       0.125
   0.00000000  0.50000000  0.50000000       0.125
   0.50000000  0.50000000  0.50000000       0.125

 position of ions in fractional coordinates (direct lattice) 
   0.20680360  0.34245425  0.58601952
   0.82304187  0.09372731  0.41205106
   0.47139530  0.98843491  0.51803720
   0.80920692  0.63260482  0.56328727
   0.06345562  0.47241537  0.56714777
   0.01369096  0.78196377  0.52063165
   0.92516583  0.75648957  0.45201592
   0.30630235  0.38136143  0.58632786
   0.33372446  0.96708366  0.46792823
   0.39091443  0.70881749  0.47813952
   0.37607731  0.02260383  0.58815090
   0.63867567  0.75793501  0.42896697
   0.12588634  0.67087325  0.51217497
   0.93975103  0.99595122  0.41563018
   0.87166381  0.28918418  0.56855335
   0.37932061  0.25601541  0.46741345
   0.63323599  0.59662500  0.40700591
   0.41714715  0.78887436  0.61102838
   0.56027212  0.53739696  0.56072095
   0.06344529  0.05362785  0.55153316
   0.96666380  0.49523202  0.49847007
   0.96637471  0.07110201  0.61914403
   0.52784120  0.27855123  0.59488643
   0.23498422  0.75980032  0.47246016
   0.76407470  0.36530532  0.42977793
   0.48881976  0.52203878  0.42521026
   0.16510051  0.17740398  0.55050359
   0.91217061  0.75796254  0.58615221
   0.47597460  0.15875158  0.41509255
   0.00376409  0.26794375  0.47466035
   0.62819553  0.80062375  0.51124311
   0.62285083  0.15487573  0.46012739
   0.96020749  0.11506549  0.48680150
   0.73137328  0.12372575  0.39939702
   0.85707860  0.60734192  0.48089327
   0.12496195  0.31268846  0.42533002
   0.29460322  0.49445768  0.52864122
   0.84162613  0.51462366  0.61980481
   0.19792170  0.44751108  0.45347739
   0.46688414  0.82064657  0.52858343
   0.50005360  0.37114353  0.44073781
   0.75805202  0.38419106  0.59922598
   0.61907754  0.04831199  0.52728393
   0.59033595  0.13324915  0.60229112
   0.43325557  0.56285808  0.50491400
   0.73301833  0.85327915  0.38019519
   0.66191426  0.67825533  0.56193872
   0.23898878  0.88422539  0.52146618
   0.22639898  0.05759077  0.41775159
   0.80128452  0.86981915  0.60155772
   0.48658759  0.76239523  0.40614834
   0.64210413  0.31529576  0.47630583
   0.15733642  0.82207136  0.40293877
   0.40298663  0.89913410  0.39766052
   0.05195003  0.30803620  0.56223945
   0.88806614  0.35990487  0.48702202
   0.07882893  0.56236113  0.45312419
   0.28698161  0.88165801  0.60787010
   0.62749414  0.38650583  0.55027737
   0.08771978  0.96322227  0.42701391
   0.39345566  0.26549545  0.55417703
   0.73117367  0.92105664  0.52460203
   0.85629393  0.13245141  0.56281431
   0.30185108  0.15951216  0.59632053
   0.78076612  0.52974162  0.41241312
   0.09041656  0.91990029  0.50965352
   0.21503436  0.19891148  0.45787435
   0.18554940  0.57188590  0.57258304
   0.83422684  0.89023430  0.45096659

 position of ions in cartesian coordinates  (Angst):
   3.00453000  4.97532000 15.41364890
  11.95750000  1.36171000 10.83788190
   6.84863000 14.36040000 13.62555890
  11.75650000  9.19075000 14.81573890
   0.92191000  6.86345000 14.91727890
   0.19890800 11.36070000 13.69379890
  13.44120000 10.99060000 11.88904890
   4.45009000  5.54058000 15.42175890
   4.84849000 14.05020000 12.30757890
   5.67937000 10.29800000 12.57615890
   5.46381000  0.32839800 15.46970890
   9.27895000 11.01160000 11.28280890
   1.82893000  9.74673000 13.47136890
  13.65310000 14.46960000 10.93202090
  12.66390000  4.20139000 14.95424890
   5.51093000  3.71950000 12.29403890
   9.19992000  8.66802000 10.70518290
   6.06049000 11.46110000 16.07143890
   8.13987000  7.80753000 14.74823890
   0.92176000  0.77912800 14.50657890
  14.04410000  7.19494000 13.11089890
  14.03990000  1.03300000 16.28489890
   7.66870000  4.04691000 15.64686890
   3.41395000 11.03870000 12.42677890
  11.10080000  5.30731000 11.30413890
   7.10178000  7.58440000 11.18399890
   2.39865000  2.57740000 14.47949890
  13.25240000 11.01200000 15.41713890
   6.91516000  2.30641000 10.91787990
   0.05468630  3.89280000 12.48464890
   9.12669000 11.63180000 13.44685890
   9.04904000  2.25010000 12.10239890
  13.95030000  1.67172000 12.80398890
  10.62570000  1.79754000 10.50505190
  12.45200000  8.82372000 12.64858890
   1.81550000  4.54287000 11.18714890
   4.28012000  7.18369000 13.90446890
  12.22750000  7.47667000 16.30227890
   2.87549000  6.50163000 11.92748890
   6.78309000 11.92270000 13.90294890
   7.26499000  5.39213000 11.59240890
  11.01330000  5.58169000 15.76100890
   8.99422000  0.70189700 13.86876890
   8.57665000  1.93590000 15.84162890
   6.29452000  8.17744000 13.28038890
  10.64960000 12.39680000 10.00000000
   9.61657000  9.85398000 14.78026890
   3.47213000 12.84640000 13.71574890
   3.28922000  0.83670300 10.98781890
  11.64140000 12.63710000 15.82233890
   7.06935000 11.07640000 10.68262690
   9.32876000  4.58075000 12.52792890
   2.28585000 11.94340000 10.59820790
   5.85476000 13.06300000 10.45937790
   0.75475200  4.47528000 14.78817890
  12.90220000  5.22885000 12.80978890
   1.14526000  8.17022000 11.91819890
   4.16939000 12.80910000 15.98836890
   9.11650000  5.61532000 14.47354890
   1.27443000 13.99410000 11.23143890
   5.71629000  3.85723000 14.57611890
  10.62280000 13.38150000 13.79822890
  12.44060000  1.92431000 14.80329890
   4.38542000  2.31746000 15.68458890
  11.34330000  7.69631000 10.84740490
   1.31361000 13.36470000 13.40504890
   3.12411000  2.88987000 12.04313890
   2.69574000  8.30860000 15.06023890
  12.12000000 12.93370000 11.86144890



--------------------------------------------------------------------------------------------------------


 k-point     1 :   0.0000 0.0000 0.0000  plane waves:  523853
 k-point     2 :   0.5000 0.0000 0.0000  plane waves:  523962
 k-point     3 :   0.0000 0.5000 0.0000  plane waves:  523962
 k-point     4 :   0.5000 0.5000 0.0000  plane waves:  524204
 k-point     5 :   0.0000 0.0000 0.5000  plane waves:  523844
 k-point     6 :   0.5000 0.0000 0.5000  plane waves:  524076
 k-point     7 :   0.0000 0.5000 0.5000  plane waves:  524076
 k-point     8 :   0.5000 0.5000 0.5000  plane waves:  523912

 maximum and minimum number of plane-waves per node :     32820    32672

 maximum number of plane-waves:    524204
 maximum index in each direction: 
   IXMAX=   41   IYMAX=   41   IZMAX=   74
   IXMIN=  -41   IYMIN=  -41   IZMIN=  -74


 parallel 3D FFT for wavefunctions:
    minimum data exchange during FFTs selected (reduces bandwidth)
 parallel 3D FFT for charge:
    minimum data exchange during FFTs selected (reduces bandwidth)


 total amount of memory used by VASP MPI-rank0   372989. kBytes
=======================================================================

   base                                    :      30000. kBytes
   nonl-proj                               :      69747. kBytes
   fftplans                                :     102068. kBytes
   grid                                    :      78750. kBytes
   one-center                              :         15. kBytes
   wavefun                                 :      92409. kBytes

     INWAV:  cpu time     27.8664: real time     27.8831
 Broyden mixing: mesh for mixing (old mesh)
   NGX = 83   NGY = 83   NGZ =149
  (NGX  =336   NGY  =336   NGZ  =600)
  gives a total of ****** points

 initial charge density was supplied:
 number of electron     269.9999999 magnetization 
 keeping initial charge density in first step


--------------------------------------------------------------------------------------------------------


 Maximum index for augmentation-charges        11133 (set IRDMAX)


--------------------------------------------------------------------------------------------------------


 First call to EWALD:  gamma=   0.100
 Maximum number of real-space cells   3x   3x   2
 Maximum number of reciprocal cells   2x   2x   4

    FEWALD:  cpu time      0.0127: real time      0.0127


--------------------------------------- Ionic step        1  -------------------------------------------




--------------------------------------- Iteration      1(   1)  ---------------------------------------


    POTLOK:  cpu time      2.0038: real time      2.0048
    SETDIJ:  cpu time      1.3891: real time      1.3900
    EDDIAG:  cpu time     54.3838: real time     54.4107
     EDDAV:  cpu time    239.2978: real time    239.4371
       DOS:  cpu time      0.0095: real time      0.0096
    CHARGE:  cpu time     30.7941: real time     30.8237
    MIXING:  cpu time      0.0485: real time      0.0487
    --------------------------------------------
      LOOP:  cpu time    327.9266: real time    328.1246

 eigenvalue-minimisations  :  2816
 total energy-change (2. order) :-0.6622550E+03  (-0.7668971E+00)
 number of electron     269.9999999 magnetization 
 augmentation part      -15.5107896 magnetization 

 Broyden mixing:
  rms(total) = 0.95711E+00    rms(broyden)= 0.22796E+02
  rms(prec ) = 0.98543E+00
  weight for this iteration     100.00
  WARNING: grid for Broyden might be to small

 Free energy of the ion-electron system (eV)
  ---------------------------------------------------
  alpha Z        PSCENC =        27.65918844
  Ewald energy   TEWEN  =     32799.00777990
  -Hartree energ DENC   =    -38748.59284718
  -exchange      EXHF   =         0.00000000
  -V(xc)+E(xc)   XCENC  =      -335.60927228
  PAW double counting   =     23043.40715394   -22374.90122044
  entropy T*S    EENTRO =        -0.20376406
  eigenvalues    EBANDS =     -2003.47674784
  atomic energy  EATOM  =      6930.45472119
  Solvation  Ediel_sol  =         0.00000000
  ---------------------------------------------------
  free energy    TOTEN  =      -662.25500833 eV

  energy without entropy =     -662.05124427  energy(sigma->0) =     -662.15312630


--------------------------------------------------------------------------------------------------------




--------------------------------------- Iteration      1(   2)  ---------------------------------------


    POTLOK:  cpu time      1.9716: real time      1.9978
    SETDIJ:  cpu time      1.3870: real time      1.3877
    EDDIAG:  cpu time     54.2841: real time     54.3145
     EDDAV:  cpu time    240.6188: real time    240.7626
       DOS:  cpu time      0.0029: real time      0.0029
    CHARGE:  cpu time     30.5633: real time     30.5892
    MIXING:  cpu time      0.0416: real time      0.0421
    --------------------------------------------
      LOOP:  cpu time    328.8692: real time    329.0968

 eigenvalue-minimisations  :  2848
 total energy-change (2. order) : 0.4803539E+02  (-0.7105897E+00)
 number of electron     269.9999999 magnetization 
 augmentation part      -15.4622241 magnetization 

 Broyden mixing:
  rms(total) = 0.65130E+00    rms(broyden)= 0.13228E+02
  rms(prec ) = 0.66660E+00
  weight for this iteration     100.00
  WARNING: grid for Broyden might be to small

 eigenvalues of (default mixing * dielectric matrix)
  average eigenvalue GAMMA=   0.6329
  0.6329

 Free energy of the ion-electron system (eV)
  ---------------------------------------------------
  alpha Z        PSCENC =        27.65918844
  Ewald energy   TEWEN  =     32799.00777990
  -Hartree energ DENC   =    -38738.21328275
  -exchange      EXHF   =         0.00000000
  -V(xc)+E(xc)   XCENC  =      -328.43662365
  PAW double counting   =     27453.88496182   -26785.22848518
  entropy T*S    EENTRO =        -0.19294624
  eigenvalues    EBANDS =     -1973.15492778
  atomic energy  EATOM  =      6930.45472119
  Solvation  Ediel_sol  =         0.00000000
  ---------------------------------------------------
  free energy    TOTEN  =      -614.21961425 eV

  energy without entropy =     -614.02666801  energy(sigma->0) =     -614.12314113


--------------------------------------------------------------------------------------------------------




--------------------------------------- Iteration      1(   3)  ---------------------------------------


    POTLOK:  cpu time      1.9841: real time      2.0014
    SETDIJ:  cpu time      1.3879: real time      1.3886
    EDDIAG:  cpu time     54.2609: real time     54.2930
     EDDAV:  cpu time    239.1067: real time    239.2519
       DOS:  cpu time      0.0040: real time      0.0040
    CHARGE:  cpu time     30.4430: real time     30.4710
    MIXING:  cpu time      0.0398: real time      0.0398
    --------------------------------------------
      LOOP:  cpu time    327.2263: real time    327.4496

 eigenvalue-minimisations  :  2816
 total energy-change (2. order) :-0.2400363E+01  (-0.6014625E+00)
 number of electron     269.9999999 magnetization 
 augmentation part      -15.4088333 magnetization 

 Broyden mixing:
  rms(total) = 0.28230E+00    rms(broyden)= 0.19259E+02
  rms(prec ) = 0.35275E+00
  weight for this iteration     100.00
  WARNING: grid for Broyden might be to small

 eigenvalues of (default mixing * dielectric matrix)
  average eigenvalue GAMMA=   0.6711
  0.7293  0.6130

 Free energy of the ion-electron system (eV)
  ---------------------------------------------------
  alpha Z        PSCENC =        27.65918844
  Ewald energy   TEWEN  =     32799.00777990
  -Hartree energ DENC   =    -38737.77998958
  -exchange      EXHF   =         0.00000000
  -V(xc)+E(xc)   XCENC  =      -330.75685629
  PAW double counting   =     32633.16964813   -31964.64309941
  entropy T*S    EENTRO =        -0.20794191
  eigenvalues    EBANDS =     -1973.52342794
  atomic energy  EATOM  =      6930.45472119
  Solvation  Ediel_sol  =         0.00000000
  ---------------------------------------------------
  free energy    TOTEN  =      -616.61997749 eV

  energy without entropy =     -616.41203558  energy(sigma->0) =     -616.51600653


--------------------------------------------------------------------------------------------------------




--------------------------------------- Iteration      1(   4)  ---------------------------------------


    POTLOK:  cpu time      1.9675: real time      1.9998
    SETDIJ:  cpu time      1.3921: real time      1.3934
    EDDIAG:  cpu time     54.2620: real time     54.2937
     EDDAV:  cpu time    251.0426: real time    251.2123
       DOS:  cpu time      0.0039: real time      0.0039
    CHARGE:  cpu time     30.6227: real time     30.6527
    MIXING:  cpu time      0.0401: real time      0.0401
    --------------------------------------------
      LOOP:  cpu time    339.3308: real time    339.5958

 eigenvalue-minimisations  :  3072
 total energy-change (2. order) : 0.3287299E+00  (-0.7377552E-01)
 number of electron     269.9999999 magnetization 
 augmentation part      -15.4062366 magnetization 

 Broyden mixing:
  rms(total) = 0.88067E-01    rms(broyden)= 0.15032E+01
  rms(prec ) = 0.12726E+00
  weight for this iteration     100.00
  WARNING: grid for Broyden might be to small

 eigenvalues of (default mixing * dielectric matrix)
  average eigenvalue GAMMA=   0.9086
  1.6287  0.6346  0.4625

 Free energy of the ion-electron system (eV)
  ---------------------------------------------------
  alpha Z        PSCENC =        27.65918844
  Ewald energy   TEWEN  =     32799.00777990
  -Hartree energ DENC   =    -38736.77190624
  -exchange      EXHF   =         0.00000000
  -V(xc)+E(xc)   XCENC  =      -331.40540884
  PAW double counting   =     36647.93299980   -35979.46214812
  entropy T*S    EENTRO =        -0.19298849
  eigenvalues    EBANDS =     -1973.51348520
  atomic energy  EATOM  =      6930.45472119
  Solvation  Ediel_sol  =         0.00000000
  ---------------------------------------------------
  free energy    TOTEN  =      -616.29124756 eV

  energy without entropy =     -616.09825907  energy(sigma->0) =     -616.19475332


--------------------------------------------------------------------------------------------------------




--------------------------------------- Iteration      1(   5)  ---------------------------------------


    POTLOK:  cpu time      1.9661: real time      1.9929
    SETDIJ:  cpu time      1.3910: real time      1.3920
    EDDIAG:  cpu time     54.2491: real time     54.2815
     EDDAV:  cpu time    256.3605: real time    256.5114
       DOS:  cpu time      0.0029: real time      0.0029
    CHARGE:  cpu time     30.5384: real time     30.5669
    MIXING:  cpu time      0.0401: real time      0.0401
    --------------------------------------------
      LOOP:  cpu time    344.5481: real time    344.7878

 eigenvalue-minimisations  :  3184
 total energy-change (2. order) :-0.2426494E-01  (-0.1595962E-01)
 number of electron     269.9999999 magnetization 
 augmentation part      -15.4059405 magnetization 

 Broyden mixing:
  rms(total) = 0.46381E-01    rms(broyden)= 0.13054E+01
  rms(prec ) = 0.61565E-01
  weight for this iteration     100.00
  WARNING: grid for Broyden might be to small

 eigenvalues of (default mixing * dielectric matrix)
  average eigenvalue GAMMA=   1.0644
  2.4341  0.7882  0.6235  0.4118

 Free energy of the ion-electron system (eV)
  ---------------------------------------------------
  alpha Z        PSCENC =        27.65918844
  Ewald energy   TEWEN  =     32799.00777990
  -Hartree energ DENC   =    -38737.70477885
  -exchange      EXHF   =         0.00000000
  -V(xc)+E(xc)   XCENC  =      -332.16298750
  PAW double counting   =     36534.75817939   -35866.27531657
  entropy T*S    EENTRO =        -0.20679259
  eigenvalues    EBANDS =     -1971.84550590
  atomic energy  EATOM  =      6930.45472119
  Solvation  Ediel_sol  =         0.00000000
  ---------------------------------------------------
  free energy    TOTEN  =      -616.31551250 eV

  energy without entropy =     -616.10871991  energy(sigma->0) =     -616.21211620


--------------------------------------------------------------------------------------------------------




--------------------------------------- Iteration      1(   6)  ---------------------------------------


    POTLOK:  cpu time      1.9712: real time      1.9992
    SETDIJ:  cpu time      1.3835: real time      1.3841
    EDDIAG:  cpu time     54.2549: real time     54.2877
     EDDAV:  cpu time    245.1639: real time    245.3152
       DOS:  cpu time      0.0032: real time      0.0032
    CHARGE:  cpu time     30.5303: real time     30.5586
    MIXING:  cpu time      0.0406: real time      0.0406
    --------------------------------------------
      LOOP:  cpu time    333.3476: real time    333.5886

 eigenvalue-minimisations  :  2944
 total energy-change (2. order) : 0.2544838E-02  (-0.5826680E-02)
 number of electron     269.9999999 magnetization 
 augmentation part      -15.4055542 magnetization 

 Broyden mixing:
  rms(total) = 0.33764E-01    rms(broyden)= 0.23109E+00
  rms(prec ) = 0.41695E-01
  weight for this iteration     100.00
  WARNING: grid for Broyden might be to small

 eigenvalues of (default mixing * dielectric matrix)
  average eigenvalue GAMMA=   1.0148
  2.5454  0.8265  0.6304  0.5358  0.5358

 Free energy of the ion-electron system (eV)
  ---------------------------------------------------
  alpha Z        PSCENC =        27.65918844
  Ewald energy   TEWEN  =     32799.00777990
  -Hartree energ DENC   =    -38737.32940578
  -exchange      EXHF   =         0.00000000
  -V(xc)+E(xc)   XCENC  =      -332.35533278
  PAW double counting   =     36304.49722609   -35635.99838258
  entropy T*S    EENTRO =        -0.20301978
  eigenvalues    EBANDS =     -1972.04574236
  atomic energy  EATOM  =      6930.45472119
  Solvation  Ediel_sol  =         0.00000000
  ---------------------------------------------------
  free energy    TOTEN  =      -616.31296766 eV

  energy without entropy =     -616.10994788  energy(sigma->0) =     -616.21145777


--------------------------------------------------------------------------------------------------------




--------------------------------------- Iteration      1(   7)  ---------------------------------------


    POTLOK:  cpu time      1.9709: real time      1.9971
    SETDIJ:  cpu time      1.3847: real time      1.3855
    EDDIAG:  cpu time     54.2536: real time     54.2847
     EDDAV:  cpu time    261.5372: real time    261.6989
       DOS:  cpu time      0.0027: real time      0.0028
    CHARGE:  cpu time     30.6348: real time     30.6629
    MIXING:  cpu time      0.0433: real time      0.0433
    --------------------------------------------
      LOOP:  cpu time    349.8272: real time    350.0751

 eigenvalue-minimisations  :  3296
 total energy-change (2. order) : 0.2631862E-02  (-0.8847591E-03)
 number of electron     269.9999999 magnetization 
 augmentation part      -15.4056523 magnetization 

 Broyden mixing:
  rms(total) = 0.19837E-01    rms(broyden)= 0.13044E+00
  rms(prec ) = 0.22444E-01
  weight for this iteration     100.00
  WARNING: grid for Broyden might be to small

 eigenvalues of (default mixing * dielectric matrix)
  average eigenvalue GAMMA=   0.9599
  2.5724  0.9693  0.6805  0.6211  0.4580  0.4580

 Free energy of the ion-electron system (eV)
  ---------------------------------------------------
  alpha Z        PSCENC =        27.65918844
  Ewald energy   TEWEN  =     32799.00777990
  -Hartree energ DENC   =    -38736.98557068
  -exchange      EXHF   =         0.00000000
  -V(xc)+E(xc)   XCENC  =      -332.33756356
  PAW double counting   =     36298.54809339   -35630.04421234
  entropy T*S    EENTRO =        -0.20186188
  eigenvalues    EBANDS =     -1972.41091025
  atomic energy  EATOM  =      6930.45472119
  Solvation  Ediel_sol  =         0.00000000
  ---------------------------------------------------
  free energy    TOTEN  =      -616.31033580 eV

  energy without entropy =     -616.10847392  energy(sigma->0) =     -616.20940486


--------------------------------------------------------------------------------------------------------




--------------------------------------- Iteration      1(   8)  ---------------------------------------


    POTLOK:  cpu time      1.9672: real time      1.9981
    SETDIJ:  cpu time      1.3816: real time      1.3828
    EDDIAG:  cpu time     54.2636: real time     54.2918
     EDDAV:  cpu time    245.7514: real time    245.9059
       DOS:  cpu time      0.0028: real time      0.0028
    CHARGE:  cpu time     30.6264: real time     30.6543
    MIXING:  cpu time      0.0415: real time      0.0415
    --------------------------------------------
      LOOP:  cpu time    334.0345: real time    334.2772

 eigenvalue-minimisations  :  2960
 total energy-change (2. order) :-0.7976566E-03  (-0.8669697E-03)
 number of electron     269.9999999 magnetization 
 augmentation part      -15.4040508 magnetization 

 Broyden mixing:
  rms(total) = 0.12207E-01    rms(broyden)= 0.79150E-01
  rms(prec ) = 0.15910E-01
  weight for this iteration     100.00
  WARNING: grid for Broyden might be to small

 eigenvalues of (default mixing * dielectric matrix)
  average eigenvalue GAMMA=   0.9251
  2.5758  1.0380  0.6139  0.6139  0.6492  0.5713  0.4138

 Free energy of the ion-electron system (eV)
  ---------------------------------------------------
  alpha Z        PSCENC =        27.65918844
  Ewald energy   TEWEN  =     32799.00777990
  -Hartree energ DENC   =    -38736.36038190
  -exchange      EXHF   =         0.00000000
  -V(xc)+E(xc)   XCENC  =      -332.16572936
  PAW double counting   =     36301.71137662   -35633.19749858
  entropy T*S    EENTRO =        -0.20026011
  eigenvalues    EBANDS =     -1973.22032965
  atomic energy  EATOM  =      6930.45472119
  Solvation  Ediel_sol  =         0.00000000
  ---------------------------------------------------
  free energy    TOTEN  =      -616.31113346 eV

  energy without entropy =     -616.11087334  energy(sigma->0) =     -616.21100340


--------------------------------------------------------------------------------------------------------




--------------------------------------- Iteration      1(   9)  ---------------------------------------


    POTLOK:  cpu time      1.9682: real time      1.9966
    SETDIJ:  cpu time      1.3862: real time      1.3868
    EDDIAG:  cpu time     54.2720: real time     54.2996
     EDDAV:  cpu time    248.1044: real time    248.2670
       DOS:  cpu time      0.0043: real time      0.0043
    CHARGE:  cpu time     30.6298: real time     30.6565
    MIXING:  cpu time      0.0422: real time      0.0422
    --------------------------------------------
      LOOP:  cpu time    336.4073: real time    336.6533

 eigenvalue-minimisations  :  3008
 total energy-change (2. order) : 0.2356177E-04  (-0.3326838E-03)
 number of electron     269.9999999 magnetization 
 augmentation part      -15.4040224 magnetization 

 Broyden mixing:
  rms(total) = 0.51701E-02    rms(broyden)= 0.52720E-01
  rms(prec ) = 0.65034E-02
  weight for this iteration     100.00
  WARNING: grid for Broyden might be to small

 eigenvalues of (default mixing * dielectric matrix)
  average eigenvalue GAMMA=   0.9584
  2.5660  1.4973  0.8459  0.6245  0.6245  0.6201  0.4938  0.3951

 Free energy of the ion-electron system (eV)
  ---------------------------------------------------
  alpha Z        PSCENC =        27.65918844
  Ewald energy   TEWEN  =     32799.00777990
  -Hartree energ DENC   =    -38736.08269620
  -exchange      EXHF   =         0.00000000
  -V(xc)+E(xc)   XCENC  =      -332.16856737
  PAW double counting   =     36309.37969005   -35640.86237553
  entropy T*S    EENTRO =        -0.20082908
  eigenvalues    EBANDS =     -1973.49802128
  atomic energy  EATOM  =      6930.45472119
  Solvation  Ediel_sol  =         0.00000000
  ---------------------------------------------------
  free energy    TOTEN  =      -616.31110989 eV

  energy without entropy =     -616.11028081  energy(sigma->0) =     -616.21069535


--------------------------------------------------------------------------------------------------------




--------------------------------------- Iteration      1(  10)  ---------------------------------------


    POTLOK:  cpu time      1.9643: real time      1.9944
    SETDIJ:  cpu time      1.3794: real time      1.3808
    EDDIAG:  cpu time     54.2730: real time     54.3043
     EDDAV:  cpu time    246.6253: real time    246.7852
       DOS:  cpu time      0.0107: real time      0.0109
    CHARGE:  cpu time     30.6256: real time     30.6497
    MIXING:  cpu time      0.0583: real time      0.0586
    --------------------------------------------
      LOOP:  cpu time    334.9370: real time    335.1842

 eigenvalue-minimisations  :  2976
 total energy-change (2. order) : 0.4175058E-04  (-0.1143462E-03)
 number of electron     269.9999999 magnetization 
 augmentation part      -15.4038085 magnetization 

 Broyden mixing:
  rms(total) = 0.20426E-02    rms(broyden)= 0.19926E-01
  rms(prec ) = 0.27791E-02
  weight for this iteration     100.00
  WARNING: grid for Broyden might be to small

 eigenvalues of (default mixing * dielectric matrix)
  average eigenvalue GAMMA=   1.0245
  2.5138  2.2504  0.8311  0.7456  0.7456  0.6618  0.5905  0.4630  0.4184

 Free energy of the ion-electron system (eV)
  ---------------------------------------------------
  alpha Z        PSCENC =        27.65918844
  Ewald energy   TEWEN  =     32799.00777990
  -Hartree energ DENC   =    -38735.70263874
  -exchange      EXHF   =         0.00000000
  -V(xc)+E(xc)   XCENC  =      -332.14736876
  PAW double counting   =     36324.79583441   -35656.27583321
  entropy T*S    EENTRO =        -0.20119336
  eigenvalues    EBANDS =     -1973.90155801
  atomic energy  EATOM  =      6930.45472119
  Solvation  Ediel_sol  =         0.00000000
  ---------------------------------------------------
  free energy    TOTEN  =      -616.31106814 eV

  energy without entropy =     -616.10987478  energy(sigma->0) =     -616.21047146


--------------------------------------------------------------------------------------------------------




--------------------------------------- Iteration      1(  11)  ---------------------------------------


    POTLOK:  cpu time      1.9935: real time      1.9952
    SETDIJ:  cpu time      1.3975: real time      1.3999
    EDDIAG:  cpu time     54.2490: real time     54.2771
     EDDAV:  cpu time    250.9850: real time    251.1478
       DOS:  cpu time      0.0030: real time      0.0030
    CHARGE:  cpu time     30.6212: real time     30.6507
    MIXING:  cpu time      0.0439: real time      0.0439
    --------------------------------------------
      LOOP:  cpu time    339.2924: real time    339.5168

 eigenvalue-minimisations  :  3072
 total energy-change (2. order) :-0.5478629E-04  (-0.4065988E-04)
 number of electron     269.9999999 magnetization 
 augmentation part      -15.4039474 magnetization 

 Broyden mixing:
  rms(total) = 0.13234E-02    rms(broyden)= 0.12014E-01
  rms(prec ) = 0.18226E-02
  weight for this iteration     100.00
  WARNING: grid for Broyden might be to small

 eigenvalues of (default mixing * dielectric matrix)
  average eigenvalue GAMMA=   1.0417
  2.5982  2.5982  0.9440  0.7780  0.7780  0.6711  0.6258  0.4270  0.4637  0.5334

 Free energy of the ion-electron system (eV)
  ---------------------------------------------------
  alpha Z        PSCENC =        27.65918844
  Ewald energy   TEWEN  =     32799.00777990
  -Hartree energ DENC   =    -38735.42854807
  -exchange      EXHF   =         0.00000000
  -V(xc)+E(xc)   XCENC  =      -332.16013514
  PAW double counting   =     36325.90022118   -35657.37933478
  entropy T*S    EENTRO =        -0.20123432
  eigenvalues    EBANDS =     -1974.16378133
  atomic energy  EATOM  =      6930.45472119
  Solvation  Ediel_sol  =         0.00000000
  ---------------------------------------------------
  free energy    TOTEN  =      -616.31112293 eV

  energy without entropy =     -616.10988861  energy(sigma->0) =     -616.21050577


--------------------------------------------------------------------------------------------------------




--------------------------------------- Iteration      1(  12)  ---------------------------------------


    POTLOK:  cpu time      1.9687: real time      1.9975
    SETDIJ:  cpu time      1.3888: real time      1.3896
    EDDIAG:  cpu time     54.2434: real time     54.2738
     EDDAV:  cpu time    245.7871: real time    245.9433
       DOS:  cpu time      0.0047: real time      0.0047
    CHARGE:  cpu time     30.6180: real time     30.6457
    MIXING:  cpu time      0.0448: real time      0.0448
    --------------------------------------------
      LOOP:  cpu time    334.0554: real time    334.2994

 eigenvalue-minimisations  :  2960
 total energy-change (2. order) :-0.1026363E-03  (-0.4217228E-04)
 number of electron     269.9999999 magnetization 
 augmentation part      -15.4041147 magnetization 

 Broyden mixing:
  rms(total) = 0.67499E-03    rms(broyden)= 0.62485E-02
  rms(prec ) = 0.10309E-02
  weight for this iteration     100.00
  WARNING: grid for Broyden might be to small

 eigenvalues of (default mixing * dielectric matrix)
  average eigenvalue GAMMA=   1.0708
  2.7331  2.7331  1.1693  1.0402  0.7274  0.7274  0.6471  0.6040  0.4257  0.4859
  0.4859

 Free energy of the ion-electron system (eV)
  ---------------------------------------------------
  alpha Z        PSCENC =        27.65918844
  Ewald energy   TEWEN  =     32799.00777990
  -Hartree energ DENC   =    -38735.03199682
  -exchange      EXHF   =         0.00000000
  -V(xc)+E(xc)   XCENC  =      -332.17254292
  PAW double counting   =     36322.53598245   -35654.01440043
  entropy T*S    EENTRO =        -0.20113317
  eigenvalues    EBANDS =     -1974.54882421
  atomic energy  EATOM  =      6930.45472119
  Solvation  Ediel_sol  =         0.00000000
  ---------------------------------------------------
  free energy    TOTEN  =      -616.31122557 eV

  energy without entropy =     -616.11009239  energy(sigma->0) =     -616.21065898


--------------------------------------------------------------------------------------------------------




--------------------------------------- Iteration      1(  13)  ---------------------------------------


    POTLOK:  cpu time      1.9643: real time      1.9900
    SETDIJ:  cpu time      1.3927: real time      1.3941
    EDDIAG:  cpu time     54.2629: real time     54.2938
     EDDAV:  cpu time    245.1888: real time    245.3459
       DOS:  cpu time      0.0027: real time      0.0027
    CHARGE:  cpu time     30.6296: real time     30.6571
    MIXING:  cpu time      0.0658: real time      0.0668
    --------------------------------------------
      LOOP:  cpu time    333.5077: real time    333.7513

 eigenvalue-minimisations  :  2944
 total energy-change (2. order) :-0.2048483E-03  (-0.3259751E-04)
 number of electron     269.9999999 magnetization 
 augmentation part      -15.4042045 magnetization 

 Broyden mixing:
  rms(total) = 0.44388E-03    rms(broyden)= 0.64258E-02
  rms(prec ) = 0.72314E-03
  weight for this iteration     100.00
  WARNING: grid for Broyden might be to small

 eigenvalues of (default mixing * dielectric matrix)
  average eigenvalue GAMMA=   1.1056
  2.9088  2.7188  1.6253  0.9358  0.9358  0.7425  0.7425  0.6290  0.6290  0.4252
  0.4876  0.4876

 Free energy of the ion-electron system (eV)
  ---------------------------------------------------
  alpha Z        PSCENC =        27.65918844
  Ewald energy   TEWEN  =     32799.00777990
  -Hartree energ DENC   =    -38734.69626055
  -exchange      EXHF   =         0.00000000
  -V(xc)+E(xc)   XCENC  =      -332.17840407
  PAW double counting   =     36321.61156142   -35653.08979805
  entropy T*S    EENTRO =        -0.20114386
  eigenvalues    EBANDS =     -1974.87907483
  atomic energy  EATOM  =      6930.45472119
  Solvation  Ediel_sol  =         0.00000000
  ---------------------------------------------------
  free energy    TOTEN  =      -616.31143041 eV

  energy without entropy =     -616.11028656  energy(sigma->0) =     -616.21085848


--------------------------------------------------------------------------------------------------------




--------------------------------------- Iteration      1(  14)  ---------------------------------------


    POTLOK:  cpu time      1.9692: real time      1.9954
    SETDIJ:  cpu time      1.4000: real time      1.4017
    EDDIAG:  cpu time     54.2581: real time     54.2907
     EDDAV:  cpu time    246.0788: real time    246.2388
       DOS:  cpu time      0.0134: real time      0.0136
    CHARGE:  cpu time     30.6257: real time     30.6533
    MIXING:  cpu time      0.0467: real time      0.0467
    --------------------------------------------
      LOOP:  cpu time    334.3910: real time    334.6394

 eigenvalue-minimisations  :  2960
 total energy-change (2. order) :-0.1878175E-03  (-0.3503571E-04)
 number of electron     269.9999999 magnetization 
 augmentation part      -15.4042851 magnetization 

 Broyden mixing:
  rms(total) = 0.28413E-03    rms(broyden)= 0.42131E-02
  rms(prec ) = 0.49746E-03
  weight for this iteration     100.00
  WARNING: grid for Broyden might be to small

 eigenvalues of (default mixing * dielectric matrix)
  average eigenvalue GAMMA=   1.1842
  3.4572  2.6945  2.3200  1.0728  1.0213  0.7502  0.7502  0.4250  0.6707  0.6354
  0.6058  0.4765  0.5153

 Free energy of the ion-electron system (eV)
  ---------------------------------------------------
  alpha Z        PSCENC =        27.65918844
  Ewald energy   TEWEN  =     32799.00777990
  -Hartree energ DENC   =    -38734.41232462
  -exchange      EXHF   =         0.00000000
  -V(xc)+E(xc)   XCENC  =      -332.18542471
  PAW double counting   =     36321.55450666   -35653.03302396
  entropy T*S    EENTRO =        -0.20117173
  eigenvalues    EBANDS =     -1975.15586940
  atomic energy  EATOM  =      6930.45472119
  Solvation  Ediel_sol  =         0.00000000
  ---------------------------------------------------
  free energy    TOTEN  =      -616.31161823 eV

  energy without entropy =     -616.11044650  energy(sigma->0) =     -616.21103237


--------------------------------------------------------------------------------------------------------




--------------------------------------- Iteration      1(  15)  ---------------------------------------


    POTLOK:  cpu time      1.9643: real time      1.9927
    SETDIJ:  cpu time      1.3862: real time      1.3868
    EDDIAG:  cpu time     54.2697: real time     54.3014
     EDDAV:  cpu time    245.2173: real time    245.3649
       DOS:  cpu time      0.0064: real time      0.0064
    CHARGE:  cpu time     30.6156: real time     30.6424
    MIXING:  cpu time      0.0473: real time      0.0473
    --------------------------------------------
      LOOP:  cpu time    333.5067: real time    333.7419

 eigenvalue-minimisations  :  2944
 total energy-change (2. order) :-0.2284918E-03  (-0.4162945E-04)
 number of electron     269.9999999 magnetization 
 augmentation part      -15.4043585 magnetization 

 Broyden mixing:
  rms(total) = 0.19569E-03    rms(broyden)= 0.46772E-02
  rms(prec ) = 0.32513E-03
  weight for this iteration     100.00
  WARNING: grid for Broyden might be to small

 eigenvalues of (default mixing * dielectric matrix)
  average eigenvalue GAMMA=   1.2789
  4.6311  2.6559  2.6559  1.2844  0.9973  0.8773  0.7263  0.7263  0.7252  0.4250
  0.4741  0.6189  0.5262  0.5813

 Free energy of the ion-electron system (eV)
  ---------------------------------------------------
  alpha Z        PSCENC =        27.65918844
  Ewald energy   TEWEN  =     32799.00777990
  -Hartree energ DENC   =    -38734.11517010
  -exchange      EXHF   =         0.00000000
  -V(xc)+E(xc)   XCENC  =      -332.19043423
  PAW double counting   =     36321.46061462   -35652.93956876
  entropy T*S    EENTRO =        -0.20115591
  eigenvalues    EBANDS =     -1975.44782187
  atomic energy  EATOM  =      6930.45472119
  Solvation  Ediel_sol  =         0.00000000
  ---------------------------------------------------
  free energy    TOTEN  =      -616.31184672 eV

  energy without entropy =     -616.11069082  energy(sigma->0) =     -616.21126877


--------------------------------------------------------------------------------------------------------




--------------------------------------- Iteration      1(  16)  ---------------------------------------


    POTLOK:  cpu time      1.9912: real time      1.9931
    SETDIJ:  cpu time      1.3934: real time      1.3945
    EDDIAG:  cpu time     54.2539: real time     54.2873
     EDDAV:  cpu time    246.0125: real time    246.1642
       DOS:  cpu time      0.0053: real time      0.0053
    CHARGE:  cpu time     30.6254: real time     30.6548
    MIXING:  cpu time      0.0500: real time      0.0500
    --------------------------------------------
      LOOP:  cpu time    334.3317: real time    334.5492

 eigenvalue-minimisations  :  2960
 total energy-change (2. order) :-0.1519655E-03  (-0.2336818E-04)
 number of electron     269.9999999 magnetization 
 augmentation part      -15.4044006 magnetization 

 Broyden mixing:
  rms(total) = 0.14504E-03    rms(broyden)= 0.27174E-02
  rms(prec ) = 0.22080E-03
  weight for this iteration     100.00
  WARNING: grid for Broyden might be to small

 eigenvalues of (default mixing * dielectric matrix)
  average eigenvalue GAMMA=   1.4150
  6.5167  2.7490  2.7490  1.6951  1.0385  1.0385  0.7578  0.7578  0.4250  0.4765
  0.6562  0.6562  0.5109  0.5986  0.5986

 Free energy of the ion-electron system (eV)
  ---------------------------------------------------
  alpha Z        PSCENC =        27.65918844
  Ewald energy   TEWEN  =     32799.00777990
  -Hartree energ DENC   =    -38733.92023933
  -exchange      EXHF   =         0.00000000
  -V(xc)+E(xc)   XCENC  =      -332.19273149
  PAW double counting   =     36321.90150499   -35653.38074811
  entropy T*S    EENTRO =        -0.20116268
  eigenvalues    EBANDS =     -1975.64031160
  atomic energy  EATOM  =      6930.45472119
  Solvation  Ediel_sol  =         0.00000000
  ---------------------------------------------------
  free energy    TOTEN  =      -616.31199869 eV

  energy without entropy =     -616.11083601  energy(sigma->0) =     -616.21141735


--------------------------------------------------------------------------------------------------------




--------------------------------------- Iteration      1(  17)  ---------------------------------------


    POTLOK:  cpu time      1.9622: real time      1.9944
    SETDIJ:  cpu time      1.3879: real time      1.3886
    EDDIAG:  cpu time     54.3060: real time     54.3358
     EDDAV:  cpu time    245.7635: real time    245.9177
       DOS:  cpu time      0.0031: real time      0.0031
    CHARGE:  cpu time     30.6045: real time     30.6325
    MIXING:  cpu time      0.0493: real time      0.0493
    --------------------------------------------
      LOOP:  cpu time    334.0766: real time    334.3215

 eigenvalue-minimisations  :  2960
 total energy-change (2. order) :-0.7315631E-04  (-0.1283505E-04)
 number of electron     269.9999999 magnetization 
 augmentation part      -15.4044282 magnetization 

 Broyden mixing:
  rms(total) = 0.10033E-03    rms(broyden)= 0.12658E-02
  rms(prec ) = 0.14680E-03
  weight for this iteration     100.00
  WARNING: grid for Broyden might be to small

 eigenvalues of (default mixing * dielectric matrix)
  average eigenvalue GAMMA=   1.5252
  8.1367  2.8353  2.8188  2.0307  1.2319  0.9647  0.9647  0.7431  0.7431  0.7275
  0.4250  0.6232  0.6232  0.4767  0.5111  0.5475

 Free energy of the ion-electron system (eV)
  ---------------------------------------------------
  alpha Z        PSCENC =        27.65918844
  Ewald energy   TEWEN  =     32799.00777990
  -Hartree energ DENC   =    -38733.80149894
  -exchange      EXHF   =         0.00000000
  -V(xc)+E(xc)   XCENC  =      -332.19386573
  PAW double counting   =     36321.94902841   -35653.42836873
  entropy T*S    EENTRO =        -0.20116673
  eigenvalues    EBANDS =     -1975.75788965
  atomic energy  EATOM  =      6930.45472119
  Solvation  Ediel_sol  =         0.00000000
  ---------------------------------------------------
  free energy    TOTEN  =      -616.31207185 eV

  energy without entropy =     -616.11090511  energy(sigma->0) =     -616.21148848


--------------------------------------------------------------------------------------------------------




--------------------------------------- Iteration      1(  18)  ---------------------------------------


    POTLOK:  cpu time      1.9700: real time      2.0004
    SETDIJ:  cpu time      1.3852: real time      1.3864
    EDDIAG:  cpu time     54.2887: real time     54.3153
[...]
   -.109E+00 -.981E+01 -.200E+03   0.620E+00 0.997E+01 0.198E+03   -.137E+01 -.883E+00 0.240E+01   0.689E-04 -.266E-05 0.535E-04
   0.672E+00 -.174E+01 -.751E+02   -.113E+01 0.567E+00 0.726E+02   0.997E+00 0.130E+01 0.289E+01   0.480E-04 0.548E-04 -.140E-04
   0.117E+01 0.199E+02 0.174E+03   0.815E+00 -.189E+02 -.172E+03   -.242E+01 -.169E+01 -.228E+01   0.210E-04 0.855E-04 -.429E-04
   -.142E+02 -.276E+02 -.238E+03   0.141E+02 0.278E+02 0.235E+03   -.414E+00 -.175E+00 0.318E+01   0.286E-04 -.750E-05 0.457E-04
   -.141E+02 -.288E+02 0.988E+02   0.129E+02 0.265E+02 -.100E+03   0.119E+01 0.304E+01 0.697E+00   -.139E-04 -.137E-04 -.670E-06
   0.155E+02 0.302E+02 0.687E+02   -.145E+02 -.300E+02 -.679E+02   -.659E+00 0.714E+00 -.139E+01   -.684E-04 0.236E-07 0.461E-04
   -.161E+02 0.377E-01 -.228E+03   0.147E+02 0.176E+01 0.226E+03   0.119E+01 -.241E+01 0.198E+01   0.293E-05 -.121E-04 0.985E-05
   -.152E+02 0.466E+01 0.182E+03   0.155E+02 -.281E+01 -.182E+03   0.124E+00 -.270E+01 -.807E+00   0.198E-04 0.681E-04 -.203E-04
   -.727E+01 0.449E+01 -.384E+02   0.760E+01 -.435E+01 0.372E+02   -.296E+00 -.145E-01 0.116E+01   0.742E-04 0.180E-04 0.291E-05
   0.191E+02 -.215E+02 0.241E+03   -.182E+02 0.204E+02 -.241E+03   -.169E+01 0.220E+01 0.851E+00   -.349E-04 -.160E-04 -.270E-04
   0.105E+02 0.839E+01 -.184E+03   -.126E+02 -.926E+01 0.182E+03   0.275E+01 0.113E+01 0.202E+01   0.107E-04 -.478E-04 0.487E-04
   0.101E+02 -.168E+02 0.123E+03   -.864E+01 0.142E+02 -.121E+03   -.105E+01 0.224E+01 -.284E+01   -.117E-04 -.118E-04 0.443E-04
   0.155E+01 0.171E+02 0.237E+03   0.113E+01 -.178E+02 -.234E+03   -.197E+01 0.770E+00 -.205E+01   -.276E-04 0.507E-04 -.434E-04
   -.183E+02 0.423E+02 -.275E+03   0.191E+02 -.432E+02 0.276E+03   -.735E+00 0.690E+00 -.121E+01   -.198E-04 -.519E-05 0.252E-04
   0.106E+02 -.869E+01 -.171E+03   -.118E+02 0.842E+01 0.171E+03   0.173E+01 0.132E+01 -.356E+00   -.765E-04 -.136E-04 0.766E-04
   -.705E+01 0.175E+02 -.144E+03   0.462E+01 -.171E+02 0.145E+03   0.161E+01 0.252E+00 -.112E+01   0.576E-04 -.265E-04 -.123E-04
   0.673E+01 -.334E+01 0.274E+02   -.576E+01 0.340E+01 -.285E+02   -.186E+01 -.352E-01 0.133E+01   0.711E-04 0.104E-04 0.879E-05
   0.755E+01 0.194E+02 -.292E+03   -.735E+01 -.188E+02 0.296E+03   -.751E+00 -.761E+00 -.266E+01   0.155E-04 -.111E-05 0.705E-04
   -.950E+01 -.181E+02 -.241E+03   0.877E+01 0.174E+02 0.240E+03   0.189E+01 0.101E+01 0.135E+01   -.378E-04 -.288E-05 0.559E-04
   -.134E+02 0.475E+02 0.101E+03   0.109E+02 -.448E+02 -.984E+02   0.298E+01 -.360E+01 -.316E+01   0.208E-05 0.117E-04 -.684E-05
   -.657E+01 0.132E+02 0.222E+03   0.647E+01 -.142E+02 -.220E+03   0.779E+00 0.145E+01 -.237E+01   -.351E-04 -.123E-03 -.414E-05
   0.263E+02 0.315E+01 0.223E+03   -.278E+02 -.466E+01 -.221E+03   0.174E+01 0.197E+01 -.252E+01   -.490E-04 0.235E-04 0.131E-04
   -.383E+01 -.550E+01 -.128E+03   0.532E+01 0.358E+01 0.128E+03   -.140E+01 0.201E+01 0.227E+00   0.369E-04 0.155E-05 0.244E-04
   -.238E+02 -.196E+01 -.238E+03   0.228E+02 0.259E+01 0.235E+03   0.182E-01 -.638E+00 0.211E+01   0.962E-05 0.253E-04 0.234E-04
   0.440E+01 0.904E+01 0.242E+03   -.542E+01 -.983E+01 -.245E+03   0.102E+01 0.757E+00 0.321E+01   0.213E-04 -.376E-04 0.162E-04
   0.213E+01 0.763E+01 0.122E+03   -.412E+01 -.597E+01 -.121E+03   0.291E+01 -.229E+01 -.836E+00   0.476E-04 -.399E-04 -.140E-04
   -.781E+00 -.764E+01 -.389E+02   0.111E+01 0.663E+01 0.385E+02   -.988E+00 0.827E+00 0.145E+01   -.900E-06 0.722E-04 0.173E-04
   -.628E+01 0.752E+01 0.110E+03   0.702E+01 -.803E+01 -.111E+03   -.985E+00 0.712E+00 0.171E+01   0.403E-04 -.825E-04 -.312E-04
   0.295E+02 0.325E+01 0.717E+02   -.289E+02 -.305E+01 -.696E+02   -.115E+01 -.779E+00 -.221E+01   0.105E-04 -.470E-04 -.358E-04
   0.270E+01 -.864E+01 0.257E+03   -.370E+01 0.820E+01 -.259E+03   -.591E+00 0.131E+01 0.872E+00   0.901E-05 0.190E-05 -.160E-04
   0.119E+02 -.576E+01 0.812E+02   -.107E+02 0.421E+01 -.796E+02   -.120E+01 0.225E+01 -.272E+01   0.347E-04 0.473E-04 0.703E-05
   0.108E+01 -.190E+02 0.253E+03   -.961E+00 0.178E+02 -.252E+03   0.379E+00 0.182E+01 -.166E+01   0.254E-04 -.120E-04 -.165E-04
   -.190E+02 -.120E+02 -.474E+02   0.183E+02 0.994E+01 0.509E+02   0.851E+00 0.148E+01 -.454E+01   0.116E-04 0.913E-05 0.542E-04
   -.148E+02 -.875E+01 -.281E+03   0.159E+02 0.941E+01 0.283E+03   -.347E+00 -.102E+01 -.157E+01   0.787E-05 0.201E-04 0.524E-04
   -.312E+02 -.824E+01 0.171E+03   0.304E+02 0.802E+01 -.170E+03   0.538E+00 0.383E+00 -.709E+00   0.153E-04 0.953E-05 -.198E-05
   -.137E+02 0.905E+01 -.792E+02   0.137E+02 -.105E+02 0.813E+02   0.462E+00 0.194E+01 -.217E+01   -.425E-04 0.343E-04 0.554E-04
   0.173E+02 0.415E+01 0.184E+03   -.157E+02 -.144E+01 -.183E+03   -.188E+01 -.425E+01 -.125E+01   -.400E-04 -.516E-04 0.324E-04
   0.184E+02 0.968E+01 -.245E+03   -.169E+02 -.783E+01 0.243E+03   -.755E+00 -.106E+01 0.197E+01   -.625E-04 -.381E-04 0.465E-04
   -.267E+02 0.424E+01 -.642E+02   0.254E+02 -.246E+01 0.644E+02   0.182E+01 -.158E+01 -.458E+00   -.994E-05 0.618E-05 -.121E-04
   -.247E+02 0.182E+02 -.251E+03   0.250E+02 -.189E+02 0.252E+03   -.408E+00 0.170E-01 -.121E+01   -.412E-04 0.232E-04 0.137E-04
   0.495E+01 0.642E+01 -.209E+02   -.552E+01 -.577E+01 0.201E+02   0.637E+00 -.657E+00 0.101E+01   -.571E-04 0.139E-04 0.790E-04
   -.277E+01 -.153E+02 0.286E+03   0.299E+01 0.160E+02 -.291E+03   0.112E+00 -.238E+00 0.425E+01   0.138E-04 0.969E-04 -.348E-04
   0.258E+02 0.458E+01 -.178E+03   -.230E+02 -.381E+01 0.175E+03   -.373E+01 -.211E+01 0.304E+01   -.406E-04 0.181E-04 0.502E-04
   -.538E-01 0.312E+01 -.814E+02   -.978E+00 -.495E+01 0.799E+02   0.213E+01 0.207E+01 0.301E+01   -.113E-05 -.114E-04 -.729E-06
   -.700E+01 -.219E+02 0.246E+03   0.851E+01 0.229E+02 -.246E+03   -.139E+01 -.133E+01 0.457E+00   -.165E-04 -.401E-04 -.597E-05
   0.104E+02 -.211E+02 -.255E+03   -.115E+02 0.212E+02 0.258E+03   0.923E+00 0.995E-01 -.200E+01   -.319E-04 0.329E-04 0.182E-04
   0.134E+02 0.165E+02 0.256E+03   -.134E+02 -.151E+02 -.255E+03   -.123E+01 -.114E+01 -.441E+00   -.214E-04 0.356E-04 -.121E-04
   -.562E+01 0.873E+01 0.784E+02   0.648E+01 -.740E+01 -.788E+02   -.171E+01 -.210E+01 -.132E+01   -.532E-04 -.102E-03 0.451E-04
   0.543E+01 0.376E+02 0.280E+03   -.542E+01 -.383E+02 -.283E+03   0.127E-01 0.526E+00 0.189E+01   0.570E-05 0.137E-04 -.175E-04
   -.990E+01 -.174E+02 0.276E+03   0.896E+01 0.177E+02 -.276E+03   0.702E+00 -.435E+00 -.301E+00   -.423E-04 0.273E-04 -.406E-06
   -.120E+02 -.211E+01 -.182E+03   0.109E+02 0.215E+01 0.180E+03   0.468E+00 -.392E+00 0.150E+01   0.661E-04 -.165E-04 0.311E-04
   0.275E+02 -.339E+01 0.720E+02   -.251E+02 0.154E+01 -.733E+02   -.417E+01 0.220E+01 0.113E+01   0.508E-04 -.471E-04 0.177E-04
   -.796E+01 -.691E+01 0.199E+03   0.781E+01 0.605E+01 -.197E+03   0.119E+01 0.377E+00 -.267E+01   0.543E-04 0.309E-04 -.240E-04
   0.366E+02 0.172E+02 -.277E+03   -.364E+02 -.180E+02 0.277E+03   -.813E-01 0.124E+01 -.856E-01   0.944E-05 -.119E-04 0.144E-04
   0.813E+01 -.178E+02 -.121E+03   -.688E+01 0.156E+02 0.120E+03   -.213E+01 0.270E+01 0.246E+01   -.104E-03 -.607E-04 0.727E-04
   0.514E+01 -.162E+02 0.225E+03   -.622E+01 0.147E+02 -.221E+03   0.288E+01 0.121E+01 -.415E+01   0.227E-04 -.254E-04 -.314E-06
   -.135E+02 -.638E+01 -.112E+03   0.122E+02 0.697E+01 0.114E+03   0.990E+00 -.115E+01 -.132E+01   0.280E-04 0.169E-04 0.643E-04
   -.738E+01 -.294E+02 -.629E+02   0.762E+01 0.269E+02 0.638E+02   0.168E+00 0.273E+01 -.981E+00   -.213E-04 0.400E-04 -.344E-04
   0.538E+02 0.229E+02 -.146E+03   -.515E+02 -.234E+02 0.148E+03   -.190E+01 -.312E+00 -.224E+01   -.344E-04 -.218E-04 0.170E-04
   0.944E+01 0.159E+01 -.252E+03   -.895E+01 -.111E+01 0.251E+03   -.619E+00 -.437E+00 0.160E+01   0.123E-04 0.232E-04 0.179E-04
   -.192E+02 0.509E+01 0.244E+03   0.196E+02 -.519E+01 -.243E+03   -.107E+01 -.455E+00 -.574E+00   0.299E-05 0.671E-04 -.484E-04
   0.231E+02 0.407E+01 -.476E+02   -.206E+02 -.359E+01 0.474E+02   -.281E+01 -.437E+00 0.621E+00   0.330E-04 0.885E-05 -.384E-04
   -.146E+02 -.109E+02 0.134E+03   0.123E+02 0.110E+02 -.137E+03   0.301E+01 0.341E+00 0.272E+01   0.768E-05 -.238E-04 0.809E-05
   -.181E+02 -.293E+02 -.225E+03   0.193E+02 0.300E+02 0.223E+03   -.100E+01 0.188E+00 0.241E+01   0.573E-04 0.697E-05 0.351E-04
   0.869E+01 -.137E+02 0.119E+03   -.858E+01 0.122E+02 -.121E+03   -.691E+00 0.141E+01 0.174E+01   -.972E-05 0.541E-04 -.391E-04
 -----------------------------------------------------------------------------------------------
   0.619E+01 -.162E+02 0.279E+01   0.639E-13 -.338E-13 -.554E-12   -.619E+01 0.161E+02 -.279E+01   0.367E-04 0.144E-03 0.816E-03


 POSITION                                       TOTAL-FORCE (eV/Angst)
 -----------------------------------------------------------------------------------
      3.00453      4.97532     15.41365         0.644007      0.324170      0.185141
     11.95750      1.36171     10.83788         1.489155     -0.451124      0.587579
      6.84863     14.36040     13.62556        -0.811932     -0.586433      0.047008
     11.75650      9.19075     14.81574         0.537375      0.195576      0.936198
      0.92191      6.86345     14.91728        -0.919926     -0.812695     -0.137164
      0.19891     11.36070     13.69380         0.601472      0.182759      0.613669
     13.44120     10.99060     11.88905        -0.629803     -0.787510     -0.089997
      4.45009      5.54058     15.42176        -0.688800     -0.046193      0.063475
      4.84849     14.05020     12.30758         0.150702      0.857643     -0.836810
      5.67937     10.29800     12.57616         0.414390      1.015316     -0.649062
      5.46381      0.32840     15.46971        -0.232043     -0.745674      0.164438
      9.27895     11.01160     11.28281         0.321170     -1.001958     -1.111121
      1.82893      9.74673     13.47137         0.022989      0.119026     -0.013322
     13.65310     14.46960     10.93202        -0.864456      1.188774      1.275466
     12.66390      4.20139     14.95425         0.846540      0.348800     -0.062848
      5.51093      3.71950     12.29404         0.389110     -0.224040     -0.985021
      9.19992      8.66802     10.70518         0.592345      0.063497      1.198138
      6.06049     11.46110     16.07144        -0.081162     -0.020123      0.129844
      8.13987      7.80753     14.74824         0.634854      1.141827     -0.522190
      0.92176      0.77913     14.50658        -0.782656      0.725637     -0.243995
     14.04410      7.19494     13.11090        -0.985392      0.051177      0.301358
     14.03990      1.03300     16.28490        -0.581618     -0.147949      0.907592
      7.66870      4.04691     15.64687         1.264490      0.295777     -0.382434
      3.41395     11.03870     12.42678         0.629002     -1.119259     -0.269540
     11.10080      5.30731     11.30414         0.722973      0.631538     -0.455750
      7.10178      7.58440     11.18400         0.492225      0.475929     -0.382650
      2.39865      2.57740     14.47950        -0.012342      0.169722     -0.082258
     13.25240     11.01200     15.41714        -1.151148      0.035288     -0.514276
      6.91516      2.30641     10.91788         0.118123      0.126716      0.770143
      0.05469      3.89280     12.48465         1.076896     -0.725536      0.103870
      9.12669     11.63180     13.44686        -0.697639     -0.173215      1.122318
      9.04904      2.25010     12.10240        -0.283386      0.256009      0.239804
     13.95030      1.67172     12.80399        -0.528365     -0.571636     -0.086224
     10.62570      1.79754     10.50505        -1.481187      0.914869     -1.059467
     12.45200      8.82372     12.64859        -0.071297      0.797703     -1.277633
      1.81550      4.54287     11.18715         0.583559      0.659484     -0.079988
      4.28012      7.18369     13.90447         0.116271     -0.531139     -1.192557
     12.22750      7.47667     16.30228         0.660023     -0.480791      0.019434
      2.87549      6.50163     11.92749        -0.454864      0.186075      0.582065
      6.78309     11.92270     13.90295         0.452533      0.660907     -0.149282
      7.26499      5.39213     11.59241        -0.316230     -1.734929      0.470326
     11.01330      5.58169     15.76101         0.850982      0.782092      0.059339
      8.99422      0.70190     13.86877         0.588609      0.110833     -0.262353
      8.57665      1.93590     15.84163        -0.226006     -0.548813      0.002256
      6.29452      8.17744     13.28039         0.094758     -0.035385      0.282378
     10.64960     12.39680     10.00000         0.310978      0.385446      0.115286
      9.61657      9.85398     14.78027        -1.121864     -1.521603     -0.018967
      3.47213     12.84640     13.71575         1.195544      0.337738      1.648429
      3.28922      0.83670     10.98782        -0.015508     -0.343370      0.570223
     11.64140     12.63710     15.82234         0.028386      0.099279     -0.131487
      7.06935     11.07640     10.68263        -1.316532      0.408669      0.665824
      9.32876      4.58075     12.52793        -0.972321     -0.853438     -1.822361
      2.28585     11.94340     10.59821         0.044206     -0.076518     -0.369125
      5.85476     13.06300     10.45938        -0.153625     -0.158175     -0.267603
      0.75475      4.47528     14.78818        -0.625014     -0.357054     -0.454301
     12.90220      5.22885     12.80979        -1.939199      0.453434     -0.108373
      1.14526      8.17022     11.91820         1.128864     -0.540992     -0.402500
      4.16939     12.80910     15.98837         0.383722      0.599172     -0.446359
      9.11650      5.61532     14.47355        -0.983645      0.639228      2.171321
      1.27443     13.99410     11.23144         1.972232     -0.213420     -0.749905
      5.71629      3.85723     14.57612        -0.223530     -0.603001      0.496560
     10.62280     13.38150     13.79823         0.353475      0.244240     -0.044813
     12.44060      1.92431     14.80330         0.575835     -0.677596     -0.933173
      4.38542      2.31746     15.68459        -0.107009     -0.038026     -0.240397
     11.34330      7.69631     10.84740        -0.937650     -0.594523      0.317597
      1.31361     13.36470     13.40505        -0.478442      0.038250      0.408424
      3.12411      2.88987     12.04314         0.974030      0.399212      0.529954
      2.69574      8.30860     15.06024         0.017096      0.763273      0.372437
     12.12000     12.93370     11.86145        -0.604330      0.037032     -0.522586
 -----------------------------------------------------------------------------------
    total drift:                                0.001150     -0.011653      0.001335


--------------------------------------------------------------------------------------------------------



  FREE ENERGIE OF THE ION-ELECTRON SYSTEM (eV)
  ---------------------------------------------------
  free  energy   TOTEN  =      -616.31212057 eV

  energy  without entropy=     -616.11094841  energy(sigma->0) =     -616.21153449



--------------------------------------------------------------------------------------------------------


    POTLOK:  cpu time      3.3354: real time      3.3492


--------------------------------------------------------------------------------------------------------


     LOOP+:  cpu time   7549.4950: real time   7555.0808
    4ORBIT:  cpu time      0.0000: real time      0.0000



 total charge

# of ion       s       p       d       tot
------------------------------------------
    1        0.543   0.016   0.000   0.559
    2        0.584   0.022   0.000   0.606
    3        0.778   0.876   0.000   1.655
    4        0.764   0.939   0.000   1.702
    5        0.798   0.829   0.000   1.627
    6        0.759   0.976   0.000   1.734
    7        0.809   0.834   0.000   1.643
    8        0.799   0.903   0.000   1.702
    9        0.777   0.879   0.000   1.656
   10        0.768   0.891   0.000   1.659
   11        0.794   0.820   0.000   1.614
   12        0.765   0.957   0.000   1.721
   13        0.764   0.969   0.000   1.733
   14        0.810   0.831   0.000   1.641
   15        0.766   0.884   0.000   1.651
   16        0.768   0.856   0.000   1.624
   17        0.791   0.808   0.000   1.599
   18        0.873   0.731   0.000   1.605
   19        0.793   0.797   0.000   1.590
   20        0.766   0.969   0.000   1.735
   21        0.764   0.970   0.000   1.734
   22        0.874   0.740   0.000   1.614
   23        0.800   0.879   0.000   1.678
   24        0.761   0.971   0.000   1.732
   25        0.790   0.860   0.000   1.650
   26        0.794   0.865   0.000   1.658
   27        0.778   0.835   0.000   1.613
   28        0.803   0.853   0.000   1.656
   29        0.872   0.692   0.000   1.564
   30        0.771   0.960   0.000   1.732
   31        0.768   0.960   0.000   1.728
   32        0.761   0.920   0.000   1.681
   33        0.781   0.847   0.000   1.627
   34        0.853   0.792   0.000   1.644
   35        0.770   0.887   0.000   1.657
   36        0.793   0.894   0.000   1.687
   37        0.768   0.934   0.000   1.702
   38        0.847   0.766   0.000   1.613
   39        0.818   0.781   0.000   1.599
   40        0.772   0.888   0.000   1.660
   41        0.788   0.836   0.000   1.624
   42        0.792   0.888   0.000   1.680
   43        0.766   0.889   0.000   1.656
   44        0.848   0.746   0.000   1.594
   45        0.751   0.930   0.000   1.682
   46        0.879   0.710   0.000   1.589
   47        0.788   0.858   0.000   1.647
   48        0.781   0.965   0.000   1.746
   49        0.811   0.814   0.000   1.625
   50        0.850   0.738   0.000   1.588
   51        0.809   0.835   0.000   1.644
   52        0.776   0.928   0.000   1.704
   53        0.858   0.735   0.000   1.593
   54        0.852   0.743   0.000   1.595
   55        0.786   0.805   0.000   1.591
   56        0.764   0.976   0.000   1.740
   57        0.818   0.850   0.000   1.668
   58        0.817   0.827   0.000   1.643
   59        0.769   0.920   0.000   1.689
   60        0.762   0.953   0.000   1.715
   61        0.766   0.984   0.000   1.750
   62        0.772   0.858   0.000   1.630
   63        0.812   0.819   0.000   1.631
   64        0.794   0.885   0.000   1.679
   65        0.794   0.821   0.000   1.615
   66        0.769   0.981   0.000   1.750
   67        0.773   0.876   0.000   1.648
   68        0.806   0.885   0.000   1.691
   69        0.762   0.887   0.000   1.649
--------------------------------------------------
tot         54.320  58.022   0.000 112.341


 total amount of memory used by VASP MPI-rank0   372989. kBytes
=======================================================================

   base                                    :      30000. kBytes
   nonl-proj                               :      69747. kBytes
   fftplans                                :     102068. kBytes
   grid                                    :      78750. kBytes
   one-center                              :         15. kBytes
   wavefun                                 :      92409. kBytes

  
  
 General timing and accounting informations for this job:
 ========================================================
  
                  Total CPU time used (sec):     7697.498
                            User time (sec):     6789.169
                          System time (sec):      908.329
                         Elapsed time (sec):     7703.255
  
                   Maximum memory used (kb):      632684.
                   Average memory used (kb):          N/A
  
                          Minor page faults:     16365935
                          Major page faults:         1187
                 Voluntary context switches:         3427
