 vasp.6.5.0 16Dec24 (build Jan 20 2025 08:32:48) complex                         
 executed on        HPECrayEX_GCC date 2025.07.28  13:06:09
 running  128 mpi-ranks, with    1 threads/rank, on    1 nodes
 distrk:  each k-point on  128 cores,    1 groups
 distr:  one band on NCORE=  16 cores,    8 groups


--------------------------------------------------------------------------------------------------------


 INCAR:
   SYSTEM = a-Si SPC
   NCORE = 16
   ISTART = 1
   ICHARG = 1
   ISPIN = 1
   ISYM = 1
   EDIFF = 1E-6
   NELM = 150
   EDIFFG = -0.01
   NSW = 0
   ISIF = 2
   IBRION = -1
   PREC = Accurate
   ENCUT = 1200
   KSPACING = 0.23
   KGAMMA = .TRUE.
   METAGGA = SCAN
   LASPH = .TRUE.
   LDIAG = .FALSE.
   LMIXTAU = .TRUE.
   ADDGRID = .TRUE.
   ALGO = Normal
   ISMEAR = 0
   SIGMA = 0.1
   LORBIT = 11
   NEDOS = 2000
   LWAVE = .FALSE.
   LCHARG = .FALSE.

 POTCAR:    PAW_PBE H 15Jun2001                   
 POTCAR:    PAW_PBE Si 05Jan2001                  
 POTCAR:    PAW_PBE H 15Jun2001                   
   SHA256 =  030f79b5d3ab3cf0e668861823c8fb652ff669f3e15e46930bd03bfd63a607b6 H/POTCAR              
   COPYR  = (c) Copyright 15Jun2001 Georg Kresse                                                    
   COPYR  = This file is part of the software VASP. Any use, copying, and all other rights are regul
   COPYR  = If you do not have a valid VASP license, you may not use, copy or distribute this file. 
   VRHFIN =H: ultrasoft test                                                                        
   LEXCH  = PE                                                                                      
   EATOM  =    12.4884 eV,    0.9179 Ry                                                             
                                                                                                    
   TITEL  = PAW_PBE H 15Jun2001                                                                     
   LULTRA =        F    use ultrasoft PP ?                                                          
   IUNSCR =        0    unscreen: 0-lin 1-nonlin 2-no                                               
   RPACOR =    0.000    partial core radius                                                         
   POMASS =    1.000; ZVAL   =    1.000    mass and valenz                                          
   RCORE  =    1.100    outmost cutoff radius                                                       
   RWIGS  =    0.700; RWIGS  =    0.370    wigner-seitz radius (au A)                               
   ENMAX  =  250.000; ENMIN  =  200.000 eV                                                          
   RCLOC  =    0.701    cutoff for local pot                                                        
   LCOR   =        T    correct aug charges                                                         
   LPAW   =        T    paw PP                                                                      
   EAUG   =  400.000                                                                                
   RMAX   =    1.123    core radius for proj-oper                                                   
   RAUG   =    1.200    factor for augmentation sphere                                              
   RDEP   =    1.112    radius for radial grids                                                     
   RDEPT  =    0.926    core radius for aug-charge                                                  
                                                                                                    
   Atomic configuration                                                                             
    2 entries                                                                                       
     n  l   j            E        occ.                                                              
     1  0  0.50        -6.4927   1.0000                                                             
     2  1  0.50        -3.4015   0.0000                                                             
   Description                                                                                      
     l       E           TYP  RCUT    TYP  RCUT                                                     
     0     -6.4927494     23  1.100                                                                 
     0      6.8029130     23  1.100                                                                 
     1     -4.0817478     23  1.100                                                                 
  local pseudopotential read in
  atomic valenz-charges read in
  non local Contribution for L=           0  read in
    real space projection operators read in
  non local Contribution for L=           0  read in
    real space projection operators read in
  non local Contribution for L=           1  read in
    real space projection operators read in
    PAW grid and wavefunctions read in

   number of l-projection  operators is LMAX  =           3
   number of lm-projection operators is LMMAX =           5

 POTCAR:    PAW_PBE Si 05Jan2001                  
   SHA256 =  79d9987ad8750f624c4d6acb2a16d13abf6a777132adc04dc6c8399be72b42bb Si/POTCAR             
   COPYR  = (c) Copyright 05Jan2001 Georg Kresse                                                    
   COPYR  = This file is part of the software VASP. Any use, copying, and all other rights are regul
   COPYR  = If you do not have a valid VASP license, you may not use, copy or distribute this file. 
   VRHFIN =Si: s2p2                                                                                 
   LEXCH  = PE                                                                                      
   EATOM  =   103.0669 eV,    7.5752 Ry                                                             
                                                                                                    
   TITEL  = PAW_PBE Si 05Jan2001                                                                    
   LULTRA =        F    use ultrasoft PP ?                                                          
   IUNSCR =        1    unscreen: 0-lin 1-nonlin 2-no                                               
   RPACOR =    1.500    partial core radius                                                         
   POMASS =   28.085; ZVAL   =    4.000    mass and valenz                                          
   RCORE  =    1.900    outmost cutoff radius                                                       
   RWIGS  =    2.480; RWIGS  =    1.312    wigner-seitz radius (au A)                               
   ENMAX  =  245.345; ENMIN  =  184.009 eV                                                          
   ICORE  =        2    local potential                                                             
   LCOR   =        T    correct aug charges                                                         
   LPAW   =        T    paw PP                                                                      
   EAUG   =  322.069                                                                                
   DEXC   =    0.000                                                                                
   RMAX   =    1.950    core radius for proj-oper                                                   
   RAUG   =    1.300    factor for augmentation sphere                                              
   RDEP   =    1.993    radius for radial grids                                                     
   RDEPT  =    1.837    core radius for aug-charge                                                  
                                                                                                    
   Atomic configuration                                                                             
    6 entries                                                                                       
     n  l   j            E        occ.                                                              
     1  0  0.50     -1785.8828   2.0000                                                             
     2  0  0.50      -139.4969   2.0000                                                             
     2  1  1.50       -95.5546   6.0000                                                             
     3  0  0.50       -10.8127   2.0000                                                             
     3  1  0.50        -4.0811   2.0000                                                             
     3  2  1.50        -4.0817   0.0000                                                             
   Description                                                                                      
     l       E           TYP  RCUT    TYP  RCUT                                                     
     0    -10.8127223     23  1.900                                                                 
     0     -7.6451159     23  1.900                                                                 
     1     -4.0811372     23  1.900                                                                 
     1      2.4879257     23  1.900                                                                 
     2     -4.0817478      7  1.900                                                                 
  local pseudopotential read in
  partial core-charges read in
  partial kinetic energy density read in
  atomic valenz-charges read in
  non local Contribution for L=           0  read in
    real space projection operators read in
  non local Contribution for L=           0  read in
    real space projection operators read in
  non local Contribution for L=           1  read in
    real space projection operators read in
  non local Contribution for L=           1  read in
    real space projection operators read in
    PAW grid and wavefunctions read in

   number of l-projection  operators is LMAX  =           4
   number of lm-projection operators is LMMAX =           8

 -----------------------------------------------------------------------------
|                                                                             |
|               ----> ADVICE to this user running VASP <----                  |
|                                                                             |
|     You have a (more or less) 'large supercell' and for larger cells it     |
|     might be more efficient to use real-space projection operators.         |
|     Therefore, try LREAL= Auto in the INCAR file.                           |
|     Mind: For very accurate calculation, you might also keep the            |
|     reciprocal projection scheme (i.e. LREAL=.FALSE.).                      |
|                                                                             |
 -----------------------------------------------------------------------------

 -----------------------------------------------------------------------------
|                                                                             |
|               ----> ADVICE to this user running VASP <----                  |
|                                                                             |
|     You enforced a specific xc type in the INCAR file but a different       |
|     type was found in the POTCAR file.                                      |
|     I HOPE YOU KNOW WHAT YOU ARE DOING!                                     |
|                                                                             |
 -----------------------------------------------------------------------------

  PAW_PBE H 15Jun2001                   :
 energy of atom  1       EATOM=  -12.4884
 kinetic energy error for atom=    0.0000 (will be added to EATOM!!)
  PAW_PBE Si 05Jan2001                  :
 energy of atom  2       EATOM= -103.0669
 kinetic energy error for atom=    0.0001 (will be added to EATOM!!)


 POSCAR:  H Si
  positions in cartesian coordinates
  No initial velocities read in


 exchange-correlation table for SCAN
   RHO(1)=    0.500       N(1)  =     2000
   RHO(2)=  100.500       N(2)  =     4000



--------------------------------------------------------------------------------------------------------


 ion  position               nearest neighbor table
   1  0.558  0.259  0.406-  33 1.50
   2  0.012  0.644  0.451-  77 1.64  16 1.79
   3  0.017  0.120  0.652-  79 1.50
   4  0.902  0.330  0.533-  54 1.52
   5  0.129  0.512  0.472-  40 1.50
   6  0.103  0.356  0.520-  65 1.65  45 1.93
   7  0.437  0.179  0.474-  75 1.50
   8  0.562  0.864  0.596-  78 1.51
   9  0.668  0.119  0.510-  39 2.33  47 2.33  74 2.34  57 2.36  25 3.02
  10  0.661  0.647  0.561-  22 2.30  17 2.34  28 2.34  52 2.35
  11  0.443  0.940  0.385-  55 2.32  76 2.40  66 2.91  70 3.02  91 3.09  74 3.13
  12  0.788  0.641  0.362-  80 2.31  36 2.34  83 2.40
  13  0.868  0.194  0.425-  57 2.31  64 2.32  92 2.32  90 2.34
  14  0.045  0.245  0.361-  90 2.34  56 2.41  64 2.44  35 3.08
  15  0.979  0.827  0.386-  88 2.36  24 2.36  26 2.36  83 2.39
  16  0.004  0.574  0.398-   2 1.79  83 2.32  40 2.34  50 2.35
  17  0.733  0.507  0.544-  27 2.31  46 2.33  10 2.34  48 2.36  61 3.07
  18  0.612  0.460  0.432-  46 2.37  36 2.41  73 2.42  89 2.45
  19  0.610  0.843  0.487-  28 2.27  91 2.30  70 2.33  78 2.42
  20  0.892  0.731  0.581-  22 2.31  71 2.33  61 2.34  44 2.37
  21  0.252  0.749  0.378-  63 2.29  24 2.34  55 2.36
  22  0.740  0.760  0.601-  10 2.30  20 2.31  78 2.35
  23  0.286  0.413  0.592-  34 2.29  68 2.31  45 2.34
  24  0.128  0.813  0.420-  77 2.30  86 2.33  21 2.34  15 2.36
  25  0.782  0.196  0.591-  54 2.46  49 2.46  39 2.47  47 2.80   9 3.02
  26  0.864  0.824  0.446-  71 2.28  80 2.36  15 2.36  31 2.41
  27  0.834  0.477  0.606-  17 2.31  54 2.32  61 2.37
  28  0.648  0.692  0.480-  19 2.27  80 2.30  89 2.34  10 2.34
  29  0.083  0.582  0.583-  61 2.33  87 2.36  45 2.46  44 2.51
  30  0.030  0.317  0.621-  79 2.32  54 2.32  45 2.34
  31  0.801  0.973  0.428-  91 2.36  88 2.38  26 2.41  57 2.45  92 2.83
  32  0.513  0.678  0.378-  85 2.29  55 2.35  89 2.51
  33  0.583  0.162  0.392-   1 1.50  74 2.31  92 2.33
  34  0.369  0.280  0.598-  23 2.29  53 2.29  81 2.30
  35  0.098  0.138  0.452-  58 2.30  90 2.34  60 2.35  65 2.37  14 3.08
  36  0.748  0.492  0.385-  12 2.34  50 2.36  18 2.41
  37  0.204  0.361  0.418-  40 2.32  56 2.33  67 2.36  65 2.36
  38  0.987  0.950  0.551-  71 2.31  58 2.33  69 2.37  49 2.42
  39  0.647  0.260  0.549-   9 2.33  81 2.35  46 2.37  25 2.47
  40  0.147  0.510  0.419-   5 1.50  37 2.32  63 2.32  16 2.34
  41  0.339  0.887  0.598-  59 2.34  42 2.36  82 2.37
  42  0.217  0.834  0.549-  41 2.36  87 2.39  69 2.41  86 2.43  59 2.86
  43  0.502  0.501  0.531-  68 2.31  52 2.34  46 2.36  89 2.50  51 2.99
  44  0.029  0.723  0.627-  20 2.37  69 2.39  29 2.51  61 3.13
  45  0.127  0.418  0.580-   6 1.93  23 2.34  30 2.34  29 2.46
  46  0.627  0.405  0.511-  17 2.33  43 2.36  18 2.37  39 2.37
  47  0.672  0.039  0.583-  84 2.30   9 2.33  78 2.37  25 2.80
  48  0.848  0.555  0.489-  50 2.33  61 2.36  17 2.36  80 2.41
  49  0.904  0.093  0.561-  57 2.41  38 2.42  79 2.43  25 2.46
  50  0.892  0.467  0.423-  64 2.31  48 2.33  16 2.35  36 2.36
  51  0.434  0.693  0.518-  72 2.30  70 2.33  52 2.36  89 2.56  43 2.99
  52  0.508  0.625  0.585-  43 2.34  10 2.35  51 2.36
  53  0.307  0.158  0.557-  34 2.29  62 2.32  75 2.38  82 2.38
  54  0.884  0.331  0.587-   4 1.52  27 2.32  30 2.32  25 2.46
  55  0.404  0.789  0.400-  11 2.32  32 2.35  21 2.36  70 2.36
  56  0.210  0.251  0.357-  37 2.33  60 2.40  14 2.41
  57  0.822  0.097  0.486-  13 2.31   9 2.36  49 2.41  31 2.45  92 3.13
  58  0.104  0.023  0.508-  35 2.30  86 2.32  62 2.32  38 2.33
  59  0.208  0.961  0.627-  69 2.31  41 2.34  62 2.38  42 2.86
  60  0.247  0.142  0.420-  76 2.33  35 2.35  75 2.35  56 2.40
  61  0.929  0.579  0.561-  29 2.33  20 2.34  48 2.36  27 2.37  17 3.07  44 3.13
  62  0.168  0.087  0.577-  53 2.32  58 2.32  79 2.34  59 2.38
  63  0.272  0.610  0.414-  21 2.29  40 2.32  85 2.34  72 2.35
  64  0.960  0.324  0.424-  50 2.31  13 2.32  65 2.32  14 2.44
  65  0.092  0.298  0.470-   6 1.65  64 2.32  37 2.36  35 2.37
  66  0.431  0.991  0.486-  76 2.33  82 2.33  70 2.34  74 2.36  11 2.91
  67  0.350  0.366  0.455-  68 2.34  75 2.34  37 2.36  73 2.41
  68  0.348  0.465  0.521-  23 2.31  43 2.31  67 2.34  72 2.35
  69  0.089  0.867  0.601-  59 2.31  38 2.37  44 2.39  42 2.41
  70  0.451  0.832  0.478-  19 2.33  51 2.33  66 2.34  55 2.36  11 3.02
  71  0.947  0.812  0.515-  26 2.28  38 2.31  20 2.33  77 2.36
  72  0.303  0.613  0.497-  51 2.30  87 2.30  63 2.35  68 2.35
  73  0.469  0.407  0.398-  85 2.30  67 2.41  18 2.42
  74  0.566  0.057  0.453-  33 2.31  91 2.31   9 2.34  66 2.36  11 3.13
  75  0.339  0.212  0.479-   7 1.50  67 2.34  60 2.35  53 2.38
  76  0.313  0.997  0.429-  66 2.33  60 2.33  86 2.39  11 2.40
  77  0.066  0.725  0.481-   2 1.64  24 2.30  87 2.31  71 2.36
  78  0.651  0.880  0.569-   8 1.51  22 2.35  47 2.37  19 2.42
  79  0.035  0.161  0.603-   3 1.50  30 2.32  62 2.34  49 2.43
  80  0.788  0.681  0.442-  28 2.30  12 2.31  26 2.36  48 2.41
  81  0.522  0.240  0.601-  84 2.27  34 2.30  39 2.35
  82  0.401  0.025  0.566-  84 2.30  66 2.33  41 2.37  53 2.38
  83  0.945  0.685  0.347-  16 2.32  15 2.39  12 2.40
  84  0.527  0.085  0.605-  81 2.27  47 2.30  82 2.30
  85  0.417  0.556  0.391-  32 2.29  73 2.30  63 2.34  89 2.50
  86  0.199  0.914  0.473-  58 2.32  24 2.33  76 2.39  42 2.43
  87  0.177  0.676  0.535-  72 2.30  77 2.31  29 2.36  42 2.39
  88  0.916  0.972  0.367-  90 2.34  15 2.36  31 2.38
  89  0.525  0.596  0.457-  28 2.34  18 2.45  85 2.50  43 2.50  32 2.51  51 2.56
  90  0.988  0.107  0.392-  88 2.34  13 2.34  14 2.34  35 2.34
  91  0.643  0.933  0.421-  19 2.30  74 2.31  31 2.36  11 3.09
  92  0.741  0.138  0.384-  13 2.32  33 2.33  31 2.83  57 3.13

  LATTYP: Found a simple tetragonal cell.
 ALAT       =    14.5411363218
 C/A-ratio  =     1.9122165892
  
  Lattice vectors:
  
 A1 = (  14.5411363218,   0.0000000000,   0.0000000000)
 A2 = (   0.0000000000,  14.5411363218,   0.0000000000)
 A3 = (   0.0000000000,   0.0000000000,  27.8058021000)


Analysis of symmetry for initial positions (statically):
=====================================================================
 Subroutine PRICEL returns:
 Original cell was already a primitive cell.
 

 Routine SETGRP: Setting up the symmetry group for a 
 simple tetragonal supercell.


 Subroutine GETGRP returns: Found  1 space group operations
 (whereof  1 operations were pure point group operations)
 out of a pool of 16 trial point group operations.


The static configuration has the point symmetry C_1 .


Analysis of symmetry for dynamics (positions and initial velocities):
=====================================================================
 Subroutine PRICEL returns:
 Original cell was already a primitive cell.
 

 Routine SETGRP: Setting up the symmetry group for a 
 simple tetragonal supercell.


 Subroutine GETGRP returns: Found  1 space group operations
 (whereof  1 operations were pure point group operations)
 out of a pool of 16 trial point group operations.


The dynamic configuration has the point symmetry C_1 .


 Subroutine INISYM returns: Found  1 space group operations
 (whereof  1 operations are pure point group operations),
 and found     1 'primitive' translations


----------------------------------------------------------------------------------------

                                     Primitive cell                                     

  volume of cell :    5879.3880

  direct lattice vectors                    reciprocal lattice vectors
    14.541136322  0.000000000  0.000000000     0.068770416  0.000000000  0.000000000
     0.000000000 14.541136322  0.000000000     0.000000000  0.068770416  0.000000000
     0.000000000  0.000000000 27.805802100     0.000000000  0.000000000  0.035963717

  length of vectors
    14.541136322 14.541136322 27.805802100     0.068770416  0.068770416  0.035963717

  position of ions in fractional coordinates (direct lattice)
     0.557717515  0.258823365  0.406007640
     0.012387786  0.643682058  0.450840289
     0.016713078  0.120381965  0.651878253
     0.902128140  0.330360382  0.533414360
     0.129066668  0.511851581  0.471838424
     0.102908726  0.356414673  0.519995231
     0.436758209  0.179020888  0.474204545
     0.562244675  0.864211272  0.595634892
     0.667820021  0.119307556  0.510394146
     0.660848195  0.647362506  0.560565192
     0.442640276  0.940259929  0.384740318
     0.788412842  0.641377943  0.361736395
     0.867767886  0.193905801  0.425117640
     0.044611988  0.245213351  0.360500785
     0.979115246  0.827018652  0.385947371
     0.003788530  0.573528037  0.398238712
     0.733263694  0.507052002  0.543775783
     0.612155923  0.460064629  0.431787394
     0.609964802  0.843046206  0.486697742
     0.891611490  0.730588576  0.581229896
     0.252007288  0.748980595  0.377841835
     0.740205021  0.760120919  0.601164078
     0.285716647  0.413098766  0.592107387
     0.127706421  0.812992521  0.419706461
     0.782368564  0.196234098  0.591450023
     0.863837451  0.823928301  0.445916713
     0.834008826  0.477381755  0.606144628
     0.647769035  0.691860087  0.479857793
     0.083394115  0.581797849  0.583397081
     0.029793449  0.316648694  0.620667260
     0.800536543  0.972616901  0.427502745
     0.513368484  0.677565865  0.377753766
     0.582999224  0.162474674  0.391889028
     0.368854568  0.279946555  0.598347685
     0.098191977  0.138370646  0.451798464
     0.748473257  0.491806098  0.385126217
     0.203944497  0.361288143  0.418118215
     0.986741817  0.950329014  0.551237938
     0.647286579  0.259837036  0.549087081
     0.146976978  0.510458248  0.418625669
     0.339368225  0.886613082  0.597776997
     0.217342879  0.833524915  0.549002188
     0.501816659  0.500589257  0.531165167
     0.028760232  0.722752169  0.627084451
     0.126850328  0.418278136  0.579910911
     0.627100176  0.404606485  0.511405486
     0.672470495  0.039015850  0.583037353
     0.847678471  0.555094931  0.489222469
     0.904220224  0.093334809  0.561480072
     0.891700431  0.467209097  0.422907386
     0.434355537  0.692951198  0.517945765
     0.507568776  0.624695659  0.584593855
     0.306506607  0.157930686  0.557495171
     0.884386354  0.330629263  0.587163278
     0.403636201  0.788546279  0.399702734
     0.209896301  0.250911657  0.357481722
     0.821551594  0.096724489  0.486228051
     0.103590626  0.023051912  0.508195583
     0.207915765  0.960799812  0.627118337
     0.247330794  0.142272715  0.419502918
     0.928842293  0.578745659  0.561467213
     0.168405157  0.087349799  0.576799758
     0.272072973  0.609504486  0.414298441
     0.960149504  0.323567617  0.424101393
     0.091723948  0.297775506  0.469573212
     0.431387960  0.991425722  0.485629261
     0.350259365  0.366365275  0.454599244
     0.348487634  0.465231021  0.521022347
     0.089454469  0.867187469  0.601146673
     0.451325420  0.832201305  0.477551429
     0.946827601  0.812427769  0.515357923
     0.303214592  0.613416536  0.497114587
     0.468753278  0.406595062  0.398007316
     0.566253777  0.057496366  0.453451478
     0.339415991  0.212253511  0.478590198
     0.313253437  0.997131858  0.429143670
     0.066438618  0.724642183  0.480617314
     0.650733331  0.879804834  0.568760049
     0.034590470  0.161021885  0.603278419
     0.788294260  0.680670404  0.442269302
     0.521534955  0.240179393  0.601380563
     0.400972869  0.025045433  0.566121209
     0.944841139  0.684599048  0.346785274
     0.527211315  0.084568738  0.605279274
     0.416976465  0.555765282  0.390833347
     0.198536929  0.913957052  0.472935393
     0.176787867  0.676421230  0.534699094
     0.916182673  0.972313112  0.367013844
     0.525340059  0.596352680  0.457332788
     0.987954832  0.107472582  0.392498474
     0.643416716  0.933378362  0.421005727
     0.740786458  0.138290671  0.384059017

  ion indices of the primitive-cell ions
   primitive index   ion index
                 1           1
                 2           2
                 3           3
                 4           4
                 5           5
                 6           6
                 7           7
                 8           8
                 9           9
                10          10
                11          11
                12          12
                13          13
                14          14
                15          15
                16          16
                17          17
                18          18
                19          19
                20          20
                21          21
                22          22
                23          23
                24          24
                25          25
                26          26
                27          27
                28          28
                29          29
                30          30
                31          31
                32          32
                33          33
                34          34
                35          35
                36          36
                37          37
                38          38
                39          39
                40          40
                41          41
                42          42
                43          43
                44          44
                45          45
                46          46
                47          47
                48          48
                49          49
                50          50
                51          51
                52          52
                53          53
                54          54
                55          55
                56          56
                57          57
                58          58
                59          59
                60          60
                61          61
                62          62
                63          63
                64          64
                65          65
                66          66
                67          67
                68          68
                69          69
                70          70
                71          71
                72          72
                73          73
                74          74
                75          75
                76          76
                77          77
                78          78
                79          79
                80          80
                81          81
                82          82
                83          83
                84          84
                85          85
                86          86
                87          87
                88          88
                89          89
                90          90
                91          91
                92          92

----------------------------------------------------------------------------------------


 -----------------------------------------------------------------------------
|                                                                             |
|           W    W    AA    RRRRR   N    N  II  N    N   GGGG   !!!           |
|           W    W   A  A   R    R  NN   N  II  NN   N  G    G  !!!           |
|           W    W  A    A  R    R  N N  N  II  N N  N  G       !!!           |
|           W WW W  AAAAAA  RRRRR   N  N N  II  N  N N  G  GGG   !            |
|           WW  WW  A    A  R   R   N   NN  II  N   NN  G    G                |
|           W    W  A    A  R    R  N    N  II  N    N   GGGG   !!!           |
|                                                                             |
|     The requested file  could not be found or opened for reading            |
|     k-point information. Automatic k-point generation is used as a          |
|     fallback, which may lead to unwanted results.                           |
|                                                                             |
 -----------------------------------------------------------------------------



Automatic generation of k-mesh.
 Grid dimensions derived from KSPACING:
 generate k-points for:    2    2    1

 Generating k-lattice:

  Cartesian coordinates                     Fractional coordinates (reciprocal lattice)
     0.034385208  0.000000000  0.000000000     0.500000000  0.000000000  0.000000000
     0.000000000  0.034385208  0.000000000     0.000000000  0.500000000  0.000000000
     0.000000000  0.000000000  0.035963717     0.000000000  0.000000000  1.000000000

  Length of vectors
     0.034385208  0.034385208  0.035963717

  Shift w.r.t. Gamma in fractional coordinates (k-lattice)
     0.000000000  0.000000000  0.000000000

 
 Subroutine IBZKPT returns following result:
 ===========================================
 
 Found      4 irreducible k-points:
 
 Following reciprocal coordinates:
            Coordinates               Weight
  0.000000  0.000000  0.000000      1.000000
  0.500000  0.000000  0.000000      1.000000
  0.000000  0.500000  0.000000      1.000000
  0.500000  0.500000  0.000000      1.000000
 
 Following cartesian coordinates:
            Coordinates               Weight
  0.000000  0.000000  0.000000      1.000000
  0.034385  0.000000  0.000000      1.000000
  0.000000  0.034385  0.000000      1.000000
  0.034385  0.034385  0.000000      1.000000
 


--------------------------------------------------------------------------------------------------------




 Dimension of arrays:
   k-points           NKPTS =      4   k-points in BZ     NKDIM =      4   number of bands    NBANDS=    224
   number of dos      NEDOS =   2000   number of ions     NIONS =     92
   non local maximal  LDIM  =      4   non local SUM 2l+1 LMDIM =      8
   total plane-waves  NPLWV = ******
   max r-space proj   IRMAX =      1   max aug-charges    IRDMAX= 411043
   dimension x,y,z NGX =   168 NGY =  168 NGZ =  320
   dimension x,y,z NGXF=   336 NGYF=  336 NGZF=  640
   support grid    NGXF=   672 NGYF=  672 NGZF= 1280
   ions per type =               8  84
   NGX,Y,Z   is equivalent  to a cutoff of  19.21, 19.21, 19.13 a.u.
   NGXF,Y,Z  is equivalent  to a cutoff of  38.41, 38.41, 38.26 a.u.

 SYSTEM =  a-Si SPC                                
 POSCAR =   H Si                                   

 Startparameter for this run:
   NWRITE =      2    write-flag & timer
   PREC   = accura    normal or accurate (medium, high low for compatibility)
   ISTART =      1    job   : 0-new  1-cont  2-samecut
   ICHARG =      1    charge: 1-file 2-atom 10-const
   ISPIN  =      1    spin polarized calculation?
   LNONCOLLINEAR =      F non collinear calculations
   LSORBIT =      F    spin-orbit coupling
   INIWAV =      1    electr: 0-lowe 1-rand  2-diag
   LASPH  =      T    aspherical Exc in radial PAW
 Electronic Relaxation 1
   ENCUT  = 1200.0 eV  88.20 Ry    9.39 a.u.  41.07 41.07 78.54*2*pi/ulx,y,z
   ENINI  = 1200.0     initial cutoff
   ENAUG  =  400.0 eV  augmentation charge cutoff
   NELM   =    150;   NELMIN=  2; NELMDL=  0     # of ELM steps 
   EDIFF  = 0.1E-05   stopping-criterion for ELM
   LREAL  =      F    real-space projection
   NLSPLINE    = F    spline interpolate recip. space projectors
   LCOMPAT=      F    compatible to vasp.4.4
   GGA_COMPAT  = T    GGA compatible to vasp.4.4-vasp.4.6
   LMAXPAW     = -100 max onsite density
   LMAXMIX     =    2 max onsite mixed and CHGCAR
   VOSKOWN=      0    Vosko Wilk Nusair interpolation
   ROPT   =    0.00000   0.00000
 Ionic relaxation
   EDIFFG = -.1E-01   stopping-criterion for IOM
   NSW    =      0    number of steps for IOM
   NBLOCK =      1;   KBLOCK =      1    inner block; outer block 
   IBRION =     -1    ionic relax: 0-MD 1-quasi-New 2-CG
   NFREE  =      0    steps in history (QN), initial steepest desc. (CG)
   ISIF   =      2    stress and relaxation
   IWAVPR =     10    prediction:  0-non 1-charg 2-wave 3-comb
   ISYM   =      1    0-nonsym 1-usesym 2-fastsym
   LCORR  =      T    Harris-Foulkes like correction to forces

   POTIM  = 0.5000    time-step for ionic-motion
   TEIN   =    0.0    initial temperature
   TEBEG  =    0.0;   TEEND  =   0.0 temperature during run
   SMASS  =  -3.00    Nose mass-parameter (am)
   estimated Nose-frequenzy (Omega)   =  0.10E-29 period in steps = 0.13E+47 mass=  -0.483E-26a.u.
   SCALEE = 1.0000    scale energy and forces
   NPACO  =    256;   APACO  = 10.0  distance and # of slots for P.C.
   PSTRESS=    0.0 pullay stress

  Mass of Ions in am
   POMASS =   1.00 28.09
  Ionic Valenz
   ZVAL   =   1.00  4.00
  Atomic Wigner-Seitz radii
   RWIGS  =  -1.00 -1.00
  virtual crystal weights 
   VCA    =   1.00  1.00
   NELECT =     344.0000    total number of electrons
   NUPDOWN=      -1.0000    fix difference up-down

 DOS related values:
   EMIN   =  10.00;   EMAX   =-10.00  energy-range for DOS
   EFERMI =   0.00;   METHOD = LEGACY      
   ISMEAR =     0;   SIGMA  =   0.10  broadening in eV -4-tet -1-fermi 0-gaus
   EFERMI_NEDOS =   21; number of points for ismear=-14 and -15

 Electronic relaxation 2 (details)
   IALGO  =     38    algorithm
   LDIAG  =      F    sub-space diagonalisation (order eigenvalues)
   LSUBROT=      F    optimize rotation matrix (better conditioning)
   TURBO    =      0    0=normal 1=particle mesh
   IRESTART =      0    0=no restart 2=restart with 2 vectors
   NREBOOT  =      0    no. of reboots
   NMIN     =      0    reboot dimension
   EREF     =   0.00    reference energy to select bands
   IMIX   =      4    mixing-type and parameters
     AMIX     =   0.40;   BMIX     =  1.00
     AMIX_MAG =   1.60;   BMIX_MAG =  1.00
     AMIN     =   0.10
     WC   =   100.;   INIMIX=   1;  MIXPRE=   1;  MAXMIX= -45

 Intra band minimization:
   WEIMIN = 0.0000     energy-eigenvalue tresh-hold
   EBREAK =  0.11E-08  absolut break condition
   DEPER  =   0.30     relativ break condition  

   TIME   =   0.40     timestep for ELM

  volume/ion in A,a.u.               =      63.91       431.26
  Fermi-wavevector in a.u.,A,eV,Ry     =   0.635551  1.201017  5.495731  0.403925
  Thomas-Fermi vector in A             =   1.699922

 Write flags
   LWAVE        =      F    write WAVECAR
   LDOWNSAMPLE  =      F    k-point downsampling of WAVECAR
   LCHARG       =      F    write CHGCAR
   LVTOT        =      F    write LOCPOT, total local potential
   LVHAR        =      F    write LOCPOT, Hartree potential only
   WRT_POTENTIAL= false  ! write potential to hdf5 file
   LELF         =      F    write electronic localiz. function (ELF)
   LORBIT       =     11    0 simple, 1 ext, 2 COOP (PROOUT), +10 PAW based schemes


 Python interface
   PLUGINS active      =      F    recompile with -DPLUGINS to activate

 Dipole corrections
   LMONO      =      F    monopole corrections only (constant potential shift)
   LDIPOL     =      F    correct potential (dipole corrections)
   IDIPOL     =      0    1-x, 2-y, 3-z, 4-all directions 
   EPSILON    =  1.0000000 bulk dielectric constant
   LVACPOTAV  =      F  vacuum potentials using an averaging scheme for the charge density
   VACPOTFLAT =  0.1000000 required flatness to determine vacuum potential

Coulomb truncation method
  LTRUNCATE          =      F  Coulomb kernel truncation to be used
  IDIMENSIONALITY    =      3  Dimensionality of cutoff (0 molecules / 2 surfaces)
  ISURFACE           =     -1  Direction of surface normal
  LCOARSEN           =      F  Coarsen the charge grid before padding, preferred


 Exchange correlation treatment:
   METAGGA = SCAN    functional components
   XC_C    = 1    coefficients multiplying the functional components
   LIBXC   =     F    Libxc                    
   VOSKOWN =     0    Vosko Wilk Nusair interpolation
   LHFCALC =     F    Hartree Fock is set to
   LHFONE  =     F    Hartree Fock one center treatment
   AEXX    =    0.0000 exact exchange contribution

 Parameters of functionals:
   SCAN:
     P1 =  0.000000E+00
     P2 =  0.000000E+00
     P3 =  0.000000E+00

 Accuracy and mixing parameters for tau-dependent meta-GGA functionals:
   LMAXTAU = 6
   LMIXTAU = T

 Van der Waals corrections
   IVDW    =     0    specifies the selected vdW correction

 Linear response parameters
   LEPSILON=     F    determine dielectric tensor
   LRPA    =     F    only Hartree local field effects (RPA)
   LNABLA  =     F    use nabla operator in PAW spheres
   LVEL    =     F    velocity operator in full k-point grid
   CSHIFT  =0.1000    complex shift for real part using Kramers Kronig
   OMEGAMAX=  -1.0    maximum frequency
   DEG_THRESHOLD= 0.2000000E-02 threshold for treating states as degnerate
   RTIME   =   -0.100 relaxation time in fs
  (WPLASMAI=    0.000 imaginary part of plasma frequency in eV, 0.658/RTIME)
   DFIELD  = 0.0000000 0.0000000 0.0000000 field for delta impulse in time

  Optional k-point grid parameters
   LKPOINTS_OPT  =     F    use optional k-point grid
   KPOINTS_OPT_MODE=     1    mode for optional k-point grid

 Orbital magnetization related:
   ORBITALMAG=     F  switch on orbital magnetization
   LCHIMAG   =     F  perturbation theory with respect to B field
   DQ        =  0.001000  dq finite difference perturbation B field
   LLRAUG    =     F  two centre corrections for induced B field
   LBONE     =     F  B-component reconstruction in AE one-centre
   LVGVCALC  =     T  calculate vGv susceptibility
   LVGVAPPL  =     F  apply vGv susceptibility instead of pGv for G=0

 Random number generation:
   RANDOM_GENERATOR = DEFAULT
   PCG_SEED         = not used


--------------------------------------------------------------------------------------------------------


 Static calculation
 charge density and potential will be updated during run
 non-spin polarized calculation
 Variant of blocked Davidson
 perform Loewdin sub-space diagonalisation
    ordering is kept fixed
    before iterative eigenvector-optimisation
 modified Broyden-mixing scheme, WC =      100.0
 initial mixing is a Kerker type mixing with AMIX =  0.4000 and BMIX =      1.0000
 Hartree-type preconditioning will be used
 using additional bands           52
 reciprocal scheme for non local part
 use partial core corrections
 calculate Harris-corrections to forces   (improved forces if not selfconsistent)
 use gradient corrections 
 use of overlap-Matrix (Vanderbilt PP)
 Gauss-broadening in eV      SIGMA  =   0.10


--------------------------------------------------------------------------------------------------------


  energy-cutoff  :     1200.00
  volume of cell :     5879.39
      direct lattice vectors                 reciprocal lattice vectors
    14.541136322  0.000000000  0.000000000     0.068770416  0.000000000  0.000000000
     0.000000000 14.541136322  0.000000000     0.000000000  0.068770416  0.000000000
     0.000000000  0.000000000 27.805802100     0.000000000  0.000000000  0.035963717

  length of vectors
    14.541136322 14.541136322 27.805802100     0.068770416  0.068770416  0.035963717



 old parameters found on file WAVECAR:
  energy-cutoff  :     1200.00
  volume of cell :     5879.39
      direct lattice vectors                 reciprocal lattice vectors
    14.541136322  0.000000000  0.000000000     0.068770416  0.000000000  0.000000000
     0.000000000 14.541136322  0.000000000     0.000000000  0.068770416  0.000000000
     0.000000000  0.000000000 27.805802100     0.000000000  0.000000000  0.035963717

  length of vectors


 k-points in units of 2pi/SCALE and weight: read from INCAR                         
   0.00000000  0.00000000  0.00000000       0.250
   0.03438521  0.00000000  0.00000000       0.250
   0.00000000  0.03438521  0.00000000       0.250
   0.03438521  0.03438521  0.00000000       0.250

 k-points in reciprocal lattice and weights: read from INCAR                         
   0.00000000  0.00000000  0.00000000       0.250
   0.50000000  0.00000000  0.00000000       0.250
   0.00000000  0.50000000  0.00000000       0.250
   0.50000000  0.50000000  0.00000000       0.250

 position of ions in fractional coordinates (direct lattice) 
   0.55771751  0.25882337  0.40600764
   0.01238779  0.64368206  0.45084029
   0.01671308  0.12038196  0.65187825
   0.90212814  0.33036038  0.53341436
   0.12906667  0.51185158  0.47183842
   0.10290873  0.35641467  0.51999523
   0.43675821  0.17902089  0.47420455
   0.56224467  0.86421127  0.59563489
   0.66782002  0.11930756  0.51039415
   0.66084819  0.64736251  0.56056519
   0.44264028  0.94025993  0.38474032
   0.78841284  0.64137794  0.36173640
   0.86776789  0.19390580  0.42511764
   0.04461199  0.24521335  0.36050079
   0.97911525  0.82701865  0.38594737
   0.00378853  0.57352804  0.39823871
   0.73326369  0.50705200  0.54377578
   0.61215592  0.46006463  0.43178739
   0.60996480  0.84304621  0.48669774
   0.89161149  0.73058858  0.58122990
   0.25200729  0.74898060  0.37784184
   0.74020502  0.76012092  0.60116408
   0.28571665  0.41309877  0.59210739
   0.12770642  0.81299252  0.41970646
   0.78236856  0.19623410  0.59145002
   0.86383745  0.82392830  0.44591671
   0.83400883  0.47738176  0.60614463
   0.64776903  0.69186009  0.47985779
   0.08339412  0.58179785  0.58339708
   0.02979345  0.31664869  0.62066726
   0.80053654  0.97261690  0.42750274
   0.51336848  0.67756587  0.37775377
   0.58299922  0.16247467  0.39188903
   0.36885457  0.27994656  0.59834769
   0.09819198  0.13837065  0.45179846
   0.74847326  0.49180610  0.38512622
   0.20394450  0.36128814  0.41811821
   0.98674182  0.95032901  0.55123794
   0.64728658  0.25983704  0.54908708
   0.14697698  0.51045825  0.41862567
   0.33936822  0.88661308  0.59777700
   0.21734288  0.83352492  0.54900219
   0.50181666  0.50058926  0.53116517
   0.02876023  0.72275217  0.62708445
   0.12685033  0.41827814  0.57991091
   0.62710018  0.40460649  0.51140549
   0.67247049  0.03901585  0.58303735
   0.84767847  0.55509493  0.48922247
   0.90422022  0.09333481  0.56148007
   0.89170043  0.46720910  0.42290739
   0.43435554  0.69295120  0.51794576
   0.50756878  0.62469566  0.58459386
   0.30650661  0.15793069  0.55749517
   0.88438635  0.33062926  0.58716328
   0.40363620  0.78854628  0.39970273
   0.20989630  0.25091166  0.35748172
   0.82155159  0.09672449  0.48622805
   0.10359063  0.02305191  0.50819558
   0.20791576  0.96079981  0.62711834
   0.24733079  0.14227272  0.41950292
   0.92884229  0.57874566  0.56146721
   0.16840516  0.08734980  0.57679976
   0.27207297  0.60950449  0.41429844
   0.96014950  0.32356762  0.42410139
   0.09172395  0.29777551  0.46957321
   0.43138796  0.99142572  0.48562926
   0.35025936  0.36636528  0.45459924
   0.34848763  0.46523102  0.52102235
   0.08945447  0.86718747  0.60114667
   0.45132542  0.83220130  0.47755143
   0.94682760  0.81242777  0.51535792
   0.30321459  0.61341654  0.49711459
   0.46875328  0.40659506  0.39800732
   0.56625378  0.05749637  0.45345148
   0.33941599  0.21225351  0.47859020
   0.31325344  0.99713186  0.42914367
   0.06643862  0.72464218  0.48061731
   0.65073333  0.87980483  0.56876005
   0.03459047  0.16102188  0.60327842
   0.78829426  0.68067040  0.44226930
   0.52153495  0.24017939  0.60138056
   0.40097287  0.02504543  0.56612121
   0.94484114  0.68459905  0.34678527
   0.52721131  0.08456874  0.60527927
   0.41697646  0.55576528  0.39083335
   0.19853693  0.91395705  0.47293539
   0.17678787  0.67642123  0.53469909
   0.91618267  0.97231311  0.36701384
   0.52534006  0.59635268  0.45733279
   0.98795483  0.10747258  0.39249847
   0.64341672  0.93337836  0.42100573
   0.74078646  0.13829067  0.38405902

 position of ions in cartesian coordinates  (Angst):
   8.10984641  3.76358584 11.28936808
   0.18013248  9.35986856 12.53597586
   0.24302714  1.75049056 18.12599769
  13.11796826  4.80381535 14.83201412
   1.87677602  7.44290361 13.11984583
   1.49640982  5.18267435 14.45888450
   6.35096065  2.60316713 13.18563774
   8.17567646 12.56661391 16.56210594
   9.71086197  1.73486744 14.19191861
   9.60948369  9.41338645 15.58696478
   6.43649260 13.67244780 10.69801314
  11.46441861  9.32636411 10.05837062
  12.61833113  2.81961069 11.82073697
   0.64870900  3.56568077 10.02401349
  14.23744827 12.02579096 10.73157623
   0.05508953  8.33974937 11.07334682
  10.66248733  7.37311229 15.12012181
   8.90144273  6.68986249 12.00619484
   8.86958134 12.25884980 13.53302111
  12.96504422 10.62358808 16.16156345
   3.66447233 10.89102894 10.50619529
  10.76342211 11.05302191 16.71584939
   4.15464471  6.00692547 16.46402082
   1.85699647 11.82183508 11.67027479
  11.37652794  2.85346677 16.44574229
  12.56117813 11.98085374 12.39907188
  12.12743603  6.94167318 16.85433758
   9.41929784 10.06043184 13.34283084
   1.21264520  8.46000184 16.22182379
   0.43323060  4.60443183 17.25815100
  11.64071100 14.14295494 11.88705672
   7.46496111  9.85257761 10.50374646
   8.47747119  2.36256639 10.89678875
   5.36356456  4.07074102 16.63753732
   1.42782293  2.01206642 12.56261869
  10.88365167  7.15141951 10.70874337
   2.96558474  5.25354014 11.62611234
  14.34834727 13.81886374 15.32761302
   9.41228238  3.77832576 15.26780672
   2.13721227  7.42264297 11.64022250
   4.93479962 12.89236169 16.62166888
   3.16041243 12.12039942 15.26544620
   7.29698445  7.27913663 14.76947351
   0.41820646 10.50963781 17.43658615
   1.84454791  6.08223940 16.12488802
   9.11874915  5.88343806 14.22003973
   9.77848514  0.56733480 16.21182125
  12.32620821  8.07171107 13.60322315
  13.14838954  1.35719418 15.61240377
  12.96633752  6.79375117 11.75927909
   6.31602307 10.07629784 14.40189744
   7.38062676  9.08378474 16.25510105
   4.45695436  2.29649163 15.50160041
  12.85998254  4.80772518 16.32654591
   5.86932903 11.46635894 11.11405511
   3.05213072  3.64854061  9.94006601
  11.94629373  1.40648398 13.51996096
   1.50632542  0.33520099 14.13078580
   3.02333148 13.97112104 17.43752838
   3.59647079  2.06880695 11.66461513
  13.50642241  8.41561952 15.61204620
   2.44880235  1.27016534 16.03837993
   3.95625019  8.86288782 11.51990047
  13.96166483  4.70504083 11.79247941
   1.33377043  4.32999422 13.05685980
   6.27287113 14.41645657 13.50331112
   5.09316917  5.32736741 12.64049661
   5.06740619  6.76498770 14.48744428
   1.30076963 12.60989120 16.71536543
   6.56278446 12.10115262 13.27870052
  13.76794922 11.81362294 14.32994043
   4.40908471  8.91977347 13.82266982
   6.81620531  5.91235422 11.06691267
   8.23397336  0.83606249 12.60858207
   4.93549419  3.08640724 13.30758432
   4.55506093 14.49943028 11.93268395
   0.96609300 10.53712077 13.36394993
   9.46240208 12.79336203 15.81482937
   0.50298474  2.34144118 16.77464034
  11.46269430  9.89772114 12.29765270
   7.58371087  3.49248130 16.72186891
   5.83060115  0.36418906 15.74145429
  13.73906381  9.95484808  9.64264271
   7.66625160  1.22972555 16.83027571
   6.06331162  8.08145873 10.86743469
   2.88695255 13.28997408 13.15034795
   2.57069648  9.83593331 14.86773718
  13.32233715 14.13853751 10.20511431
   7.63904141  8.67164562 12.71650499
  14.36598589  1.56277346 10.91373489
   9.35601018 13.57238200 11.70640194
  10.77187687  2.01090350 10.67906902



--------------------------------------------------------------------------------------------------------


 k-point     1 :   0.0000 0.0000 0.0000  plane waves:  554909
 k-point     2 :   0.5000 0.0000 0.0000  plane waves:  555150
 k-point     3 :   0.0000 0.5000 0.0000  plane waves:  555150
 k-point     4 :   0.5000 0.5000 0.0000  plane waves:  555052

 maximum and minimum number of plane-waves per node :     34760    34641

 maximum number of plane-waves:    555150
 maximum index in each direction: 
   IXMAX=   41   IYMAX=   41   IZMAX=   78
   IXMIN=  -41   IYMIN=  -41   IZMIN=  -78


 parallel 3D FFT for wavefunctions:
    minimum data exchange during FFTs selected (reduces bandwidth)
 parallel 3D FFT for charge:
    minimum data exchange during FFTs selected (reduces bandwidth)


 total amount of memory used by VASP MPI-rank0   353929. kBytes
=======================================================================

   base                                    :      30000. kBytes
   nonl-proj                               :      68820. kBytes
   fftplans                                :     108854. kBytes
   grid                                    :      83991. kBytes
   one-center                              :         18. kBytes
   wavefun                                 :      62246. kBytes

     INWAV:  cpu time     17.8993: real time     17.9112
 Broyden mixing: mesh for mixing (old mesh)
   NGX = 83   NGY = 83   NGZ =157
  (NGX  =336   NGY  =336   NGZ  =640)
  gives a total of ****** points

 initial charge density was supplied:
 number of electron     343.9999999 magnetization 
 keeping initial charge density in first step


--------------------------------------------------------------------------------------------------------


 Maximum index for augmentation-charges        11458 (set IRDMAX)


--------------------------------------------------------------------------------------------------------


 First call to EWALD:  gamma=   0.098
 Maximum number of real-space cells   3x   3x   2
 Maximum number of reciprocal cells   2x   2x   4

    FEWALD:  cpu time      0.0190: real time      0.0192


--------------------------------------- Ionic step        1  -------------------------------------------




--------------------------------------- Iteration      1(   1)  ---------------------------------------


    POTLOK:  cpu time      2.1412: real time      2.1422
    SETDIJ:  cpu time      1.5792: real time      1.5808
    EDDIAG:  cpu time     35.8724: real time     35.8931
     EDDAV:  cpu time    163.8435: real time    163.9412
       DOS:  cpu time      0.0081: real time      0.0085
    CHARGE:  cpu time     20.9099: real time     20.9277
    MIXING:  cpu time      0.0498: real time      0.0504
    --------------------------------------------
      LOOP:  cpu time    224.4042: real time    224.5439

 eigenvalue-minimisations  :  1792
 total energy-change (2. order) :-0.8729327E+03  (-0.9785439E+00)
 number of electron     343.9999999 magnetization 
 augmentation part      -18.9915816 magnetization 

 Broyden mixing:
  rms(total) = 0.11279E+01    rms(broyden)= 0.27754E+02
  rms(prec ) = 0.11630E+01
  weight for this iteration     100.00
  WARNING: grid for Broyden might be to small

 Free energy of the ion-electron system (eV)
  ---------------------------------------------------
  alpha Z        PSCENC =        42.50217730
  Ewald energy   TEWEN  =     51310.93519951
  -Hartree energ DENC   =    -59021.85308582
  -exchange      EXHF   =         0.00000000
  -V(xc)+E(xc)   XCENC  =      -389.43807224
  PAW double counting   =     31686.65457880   -30849.32227576
  entropy T*S    EENTRO =        -0.20237289
  eigenvalues    EBANDS =     -2409.72996760
  atomic energy  EATOM  =      8757.52110192
  Solvation  Ediel_sol  =         0.00000000
  ---------------------------------------------------
  free energy    TOTEN  =      -872.93271678 eV

  energy without entropy =     -872.73034389  energy(sigma->0) =     -872.83153034


--------------------------------------------------------------------------------------------------------




--------------------------------------- Iteration      1(   2)  ---------------------------------------


    POTLOK:  cpu time      2.1038: real time      2.1262
    SETDIJ:  cpu time      1.5675: real time      1.5683
    EDDIAG:  cpu time     35.8889: real time     35.9060
     EDDAV:  cpu time    165.7045: real time    165.7970
       DOS:  cpu time      0.0029: real time      0.0029
    CHARGE:  cpu time     20.7815: real time     20.7997
    MIXING:  cpu time      0.0427: real time      0.0428
    --------------------------------------------
      LOOP:  cpu time    226.0919: real time    226.2429

 eigenvalue-minimisations  :  1824
 total energy-change (2. order) : 0.6075858E+02  (-0.9363611E+00)
 number of electron     343.9999999 magnetization 
 augmentation part      -18.9233471 magnetization 

 Broyden mixing:
  rms(total) = 0.76539E+00    rms(broyden)= 0.16005E+02
  rms(prec ) = 0.78332E+00
  weight for this iteration     100.00
  WARNING: grid for Broyden might be to small

 eigenvalues of (default mixing * dielectric matrix)
  average eigenvalue GAMMA=   0.6343
  0.6343

 Free energy of the ion-electron system (eV)
  ---------------------------------------------------
  alpha Z        PSCENC =        42.50217730
  Ewald energy   TEWEN  =     51310.93519951
  -Hartree energ DENC   =    -59009.47170774
  -exchange      EXHF   =         0.00000000
  -V(xc)+E(xc)   XCENC  =      -380.81693582
  PAW double counting   =     37813.52686710   -36975.98170456
  entropy T*S    EENTRO =        -0.19136722
  eigenvalues    EBANDS =     -2370.19776378
  atomic energy  EATOM  =      8757.52110192
  Solvation  Ediel_sol  =         0.00000000
  ---------------------------------------------------
  free energy    TOTEN  =      -812.17413329 eV

  energy without entropy =     -811.98276607  energy(sigma->0) =     -812.07844968


--------------------------------------------------------------------------------------------------------




--------------------------------------- Iteration      1(   3)  ---------------------------------------


    POTLOK:  cpu time      2.0959: real time      2.1228
    SETDIJ:  cpu time      1.5784: real time      1.5793
    EDDIAG:  cpu time     35.9154: real time     35.9352
     EDDAV:  cpu time    163.9348: real time    164.0328
       DOS:  cpu time      0.0019: real time      0.0019
    CHARGE:  cpu time     20.7559: real time     20.7750
    MIXING:  cpu time      0.0399: real time      0.0400
    --------------------------------------------
      LOOP:  cpu time    224.3221: real time    224.4870

 eigenvalue-minimisations  :  1792
 total energy-change (2. order) :-0.3146677E+01  (-0.7566906E+00)
 number of electron     343.9999999 magnetization 
 augmentation part      -18.8566998 magnetization 

 Broyden mixing:
  rms(total) = 0.32505E+00    rms(broyden)= 0.23129E+02
  rms(prec ) = 0.40710E+00
  weight for this iteration     100.00
  WARNING: grid for Broyden might be to small

 eigenvalues of (default mixing * dielectric matrix)
  average eigenvalue GAMMA=   0.7903
  0.9530  0.6277

 Free energy of the ion-electron system (eV)
  ---------------------------------------------------
  alpha Z        PSCENC =        42.50217730
  Ewald energy   TEWEN  =     51310.93519951
  -Hartree energ DENC   =    -59011.04676692
  -exchange      EXHF   =         0.00000000
  -V(xc)+E(xc)   XCENC  =      -383.85174529
  PAW double counting   =     44962.47285276   -44125.05418726
  entropy T*S    EENTRO =        -0.19575120
  eigenvalues    EBANDS =     -2368.60369116
  atomic energy  EATOM  =      8757.52110192
  Solvation  Ediel_sol  =         0.00000000
  ---------------------------------------------------
  free energy    TOTEN  =      -815.32081034 eV

  energy without entropy =     -815.12505914  energy(sigma->0) =     -815.22293474


--------------------------------------------------------------------------------------------------------




--------------------------------------- Iteration      1(   4)  ---------------------------------------


    POTLOK:  cpu time      2.1209: real time      2.1487
    SETDIJ:  cpu time      1.5760: real time      1.5765
    EDDIAG:  cpu time     35.8887: real time     35.9075
     EDDAV:  cpu time    176.3640: real time    176.4682
       DOS:  cpu time      0.0019: real time      0.0020
    CHARGE:  cpu time     20.7740: real time     20.7915
    MIXING:  cpu time      0.0404: real time      0.0413
    --------------------------------------------
      LOOP:  cpu time    236.7659: real time    236.9356

 eigenvalue-minimisations  :  2032
 total energy-change (2. order) : 0.3040594E+00  (-0.9238914E-01)
 number of electron     343.9999999 magnetization 
 augmentation part      -18.8578817 magnetization 

 Broyden mixing:
  rms(total) = 0.11787E+00    rms(broyden)= 0.14015E+01
  rms(prec ) = 0.18183E+00
  weight for this iteration     100.00
  WARNING: grid for Broyden might be to small

 eigenvalues of (default mixing * dielectric matrix)
  average eigenvalue GAMMA=   0.9765
  1.7256  0.6378  0.5661

 Free energy of the ion-electron system (eV)
  ---------------------------------------------------
  alpha Z        PSCENC =        42.50217730
  Ewald energy   TEWEN  =     51310.93519951
  -Hartree energ DENC   =    -59011.05055637
  -exchange      EXHF   =         0.00000000
  -V(xc)+E(xc)   XCENC  =      -384.71437361
  PAW double counting   =     50585.40265278   -49748.02542224
  entropy T*S    EENTRO =        -0.19067063
  eigenvalues    EBANDS =     -2367.39685960
  atomic energy  EATOM  =      8757.52110192
  Solvation  Ediel_sol  =         0.00000000
  ---------------------------------------------------
  free energy    TOTEN  =      -815.01675094 eV

  energy without entropy =     -814.82608031  energy(sigma->0) =     -814.92141563


--------------------------------------------------------------------------------------------------------




--------------------------------------- Iteration      1(   5)  ---------------------------------------


    POTLOK:  cpu time      2.0992: real time      2.1213
    SETDIJ:  cpu time      1.5751: real time      1.5758
    EDDIAG:  cpu time     35.8817: real time     35.9014
     EDDAV:  cpu time    182.3461: real time    182.4503
       DOS:  cpu time      0.0034: real time      0.0034
    CHARGE:  cpu time     20.7697: real time     20.7882
    MIXING:  cpu time      0.0408: real time      0.0408
    --------------------------------------------
      LOOP:  cpu time    242.7160: real time    242.8813

 eigenvalue-minimisations  :  2152
 total energy-change (2. order) :-0.1197605E-01  (-0.2960581E-01)
 number of electron     343.9999999 magnetization 
 augmentation part      -18.8518421 magnetization 

 Broyden mixing:
  rms(total) = 0.71635E-01    rms(broyden)= 0.14400E+01
  rms(prec ) = 0.10637E+00
  weight for this iteration     100.00
  WARNING: grid for Broyden might be to small

 eigenvalues of (default mixing * dielectric matrix)
  average eigenvalue GAMMA=   1.0194
  2.3898  0.7405  0.6202  0.3273

 Free energy of the ion-electron system (eV)
  ---------------------------------------------------
  alpha Z        PSCENC =        42.50217730
  Ewald energy   TEWEN  =     51310.93519951
  -Hartree energ DENC   =    -59012.57490922
  -exchange      EXHF   =         0.00000000
  -V(xc)+E(xc)   XCENC  =      -385.73398936
  PAW double counting   =     50393.94459110   -49556.55080351
  entropy T*S    EENTRO =        -0.19225351
  eigenvalues    EBANDS =     -2364.87984122
  atomic energy  EATOM  =      8757.52110192
  Solvation  Ediel_sol  =         0.00000000
  ---------------------------------------------------
  free energy    TOTEN  =      -815.02872699 eV

  energy without entropy =     -814.83647349  energy(sigma->0) =     -814.93260024


--------------------------------------------------------------------------------------------------------




--------------------------------------- Iteration      1(   6)  ---------------------------------------


    POTLOK:  cpu time      2.0995: real time      2.1237
    SETDIJ:  cpu time      1.5695: real time      1.5704
    EDDIAG:  cpu time     35.9222: real time     35.9413
     EDDAV:  cpu time    167.9737: real time    168.0703
       DOS:  cpu time      0.0022: real time      0.0022
    CHARGE:  cpu time     20.7651: real time     20.7842
    MIXING:  cpu time      0.0425: real time      0.0425
    --------------------------------------------
      LOOP:  cpu time    228.3746: real time    228.5344

 eigenvalue-minimisations  :  1872
 total energy-change (2. order) : 0.1402268E-01  (-0.1230315E-01)
 number of electron     343.9999999 magnetization 
 augmentation part      -18.8552406 magnetization 

 Broyden mixing:
  rms(total) = 0.40112E-01    rms(broyden)= 0.15271E+00
  rms(prec ) = 0.48880E-01
  weight for this iteration     100.00
  WARNING: grid for Broyden might be to small

 eigenvalues of (default mixing * dielectric matrix)
  average eigenvalue GAMMA=   1.0079
  2.5665  0.9142  0.6232  0.6232  0.3125

 Free energy of the ion-electron system (eV)
  ---------------------------------------------------
  alpha Z        PSCENC =        42.50217730
  Ewald energy   TEWEN  =     51310.93519951
  -Hartree energ DENC   =    -59013.21053968
  -exchange      EXHF   =         0.00000000
  -V(xc)+E(xc)   XCENC  =      -386.01172482
  PAW double counting   =     50042.55815497   -49205.14298213
  entropy T*S    EENTRO =        -0.19653370
  eigenvalues    EBANDS =     -2363.96955768
  atomic energy  EATOM  =      8757.52110192
  Solvation  Ediel_sol  =         0.00000000
  ---------------------------------------------------
  free energy    TOTEN  =      -815.01470431 eV

  energy without entropy =     -814.81817061  energy(sigma->0) =     -814.91643746


--------------------------------------------------------------------------------------------------------




--------------------------------------- Iteration      1(   7)  ---------------------------------------


    POTLOK:  cpu time      2.1006: real time      2.1271
    SETDIJ:  cpu time      1.5788: real time      1.5796
    EDDIAG:  cpu time     35.9632: real time     35.9814
     EDDAV:  cpu time    171.9787: real time    172.0753
       DOS:  cpu time      0.0035: real time      0.0035
    CHARGE:  cpu time     20.7912: real time     20.8102
    MIXING:  cpu time      0.0420: real time      0.0420
    --------------------------------------------
      LOOP:  cpu time    232.4579: real time    232.6192

 eigenvalue-minimisations  :  1952
 total energy-change (2. order) : 0.4453461E-02  (-0.1792439E-02)
 number of electron     343.9999999 magnetization 
 augmentation part      -18.8543144 magnetization 

 Broyden mixing:
  rms(total) = 0.22933E-01    rms(broyden)= 0.13753E+00
  rms(prec ) = 0.25331E-01
  weight for this iteration     100.00
  WARNING: grid for Broyden might be to small

 eigenvalues of (default mixing * dielectric matrix)
  average eigenvalue GAMMA=   0.9682
  2.5580  1.0256  0.7223  0.6196  0.5427  0.3409

 Free energy of the ion-electron system (eV)
  ---------------------------------------------------
  alpha Z        PSCENC =        42.50217730
  Ewald energy   TEWEN  =     51310.93519951
  -Hartree energ DENC   =    -59012.78390055
  -exchange      EXHF   =         0.00000000
  -V(xc)+E(xc)   XCENC  =      -385.98320807
  PAW double counting   =     49999.92626312   -49162.50217128
  entropy T*S    EENTRO =        -0.19443489
  eigenvalues    EBANDS =     -2364.43127790
  atomic energy  EATOM  =      8757.52110192
  Solvation  Ediel_sol  =         0.00000000
  ---------------------------------------------------
  free energy    TOTEN  =      -815.01025085 eV

  energy without entropy =     -814.81581595  energy(sigma->0) =     -814.91303340


--------------------------------------------------------------------------------------------------------




--------------------------------------- Iteration      1(   8)  ---------------------------------------


    POTLOK:  cpu time      2.1183: real time      2.1271
    SETDIJ:  cpu time      1.5669: real time      1.5679
    EDDIAG:  cpu time     35.9403: real time     35.9597
     EDDAV:  cpu time    171.1449: real time    171.2453
       DOS:  cpu time      0.0019: real time      0.0019
    CHARGE:  cpu time     20.7895: real time     20.8069
    MIXING:  cpu time      0.0432: real time      0.0432
    --------------------------------------------
      LOOP:  cpu time    231.6050: real time    231.7520

 eigenvalue-minimisations  :  1936
 total energy-change (2. order) :-0.1114282E-02  (-0.9388394E-03)
 number of electron     343.9999999 magnetization 
 augmentation part      -18.8529782 magnetization 

 Broyden mixing:
  rms(total) = 0.10030E-01    rms(broyden)= 0.74451E-01
  rms(prec ) = 0.11382E-01
  weight for this iteration     100.00
  WARNING: grid for Broyden might be to small

 eigenvalues of (default mixing * dielectric matrix)
  average eigenvalue GAMMA=   0.9557
  2.5524  1.2707  0.8262  0.6285  0.6285  0.3743  0.4095

 Free energy of the ion-electron system (eV)
  ---------------------------------------------------
  alpha Z        PSCENC =        42.50217730
  Ewald energy   TEWEN  =     51310.93519951
  -Hartree energ DENC   =    -59012.17828934
  -exchange      EXHF   =         0.00000000
  -V(xc)+E(xc)   XCENC  =      -385.76932851
  PAW double counting   =     49980.06781223   -49142.62660868
  entropy T*S    EENTRO =        -0.19422792
  eigenvalues    EBANDS =     -2365.26920164
  atomic energy  EATOM  =      8757.52110192
  Solvation  Ediel_sol  =         0.00000000
  ---------------------------------------------------
  free energy    TOTEN  =      -815.01136513 eV

  energy without entropy =     -814.81713721  energy(sigma->0) =     -814.91425117


--------------------------------------------------------------------------------------------------------




--------------------------------------- Iteration      1(   9)  ---------------------------------------


    POTLOK:  cpu time      2.0954: real time      2.1206
    SETDIJ:  cpu time      1.5720: real time      1.5732
    EDDIAG:  cpu time     35.9095: real time     35.9285
     EDDAV:  cpu time    169.5374: real time    169.6358
       DOS:  cpu time      0.0019: real time      0.0020
    CHARGE:  cpu time     20.8057: real time     20.8230
    MIXING:  cpu time      0.0437: real time      0.0438
    --------------------------------------------
      LOOP:  cpu time    229.9658: real time    230.1270

 eigenvalue-minimisations  :  1904
 total energy-change (2. order) :-0.7868631E-03  (-0.3572705E-03)
 number of electron     343.9999999 magnetization 
 augmentation part      -18.8524377 magnetization 

 Broyden mixing:
  rms(total) = 0.58023E-02    rms(broyden)= 0.55030E-01
  rms(prec ) = 0.74822E-02
  weight for this iteration     100.00
  WARNING: grid for Broyden might be to small

 eigenvalues of (default mixing * dielectric matrix)
  average eigenvalue GAMMA=   0.9921
  2.5298  1.7058  0.7951  0.7951  0.3563  0.4619  0.6627  0.6300

 Free energy of the ion-electron system (eV)
  ---------------------------------------------------
  alpha Z        PSCENC =        42.50217730
  Ewald energy   TEWEN  =     51310.93519951
  -Hartree energ DENC   =    -59012.19906914
  -exchange      EXHF   =         0.00000000
  -V(xc)+E(xc)   XCENC  =      -385.70826314
  PAW double counting   =     50023.38859485   -49185.93983735
  entropy T*S    EENTRO =        -0.19474735
  eigenvalues    EBANDS =     -2365.31730859
  atomic energy  EATOM  =      8757.52110192
  Solvation  Ediel_sol  =         0.00000000
  ---------------------------------------------------
  free energy    TOTEN  =      -815.01215199 eV

  energy without entropy =     -814.81740464  energy(sigma->0) =     -814.91477832


--------------------------------------------------------------------------------------------------------




--------------------------------------- Iteration      1(  10)  ---------------------------------------


    POTLOK:  cpu time      2.1049: real time      2.1348
    SETDIJ:  cpu time      1.5734: real time      1.5741
    EDDIAG:  cpu time     35.8963: real time     35.9183
     EDDAV:  cpu time    171.1883: real time    171.2915
       DOS:  cpu time      0.0019: real time      0.0019
    CHARGE:  cpu time     20.8062: real time     20.8237
    MIXING:  cpu time      0.0440: real time      0.0440
    --------------------------------------------
      LOOP:  cpu time    231.6148: real time    231.7882

 eigenvalue-minimisations  :  1936
 total energy-change (2. order) : 0.1086764E-04  (-0.9363412E-04)
 number of electron     343.9999999 magnetization 
 augmentation part      -18.8525381 magnetization 

 Broyden mixing:
  rms(total) = 0.23275E-02    rms(broyden)= 0.19881E-01
  rms(prec ) = 0.27010E-02
  weight for this iteration     100.00
  WARNING: grid for Broyden might be to small

 eigenvalues of (default mixing * dielectric matrix)
  average eigenvalue GAMMA=   1.0411
  2.4757  2.4757  0.9857  0.7667  0.3548  0.6590  0.6214  0.5155  0.5155

 Free energy of the ion-electron system (eV)
  ---------------------------------------------------
  alpha Z        PSCENC =        42.50217730
  Ewald energy   TEWEN  =     51310.93519951
  -Hartree energ DENC   =    -59012.11922027
  -exchange      EXHF   =         0.00000000
  -V(xc)+E(xc)   XCENC  =      -385.73092094
  PAW double counting   =     50025.48147052   -49188.03070057
  entropy T*S    EENTRO =        -0.19445706
  eigenvalues    EBANDS =     -2365.37679154
  atomic energy  EATOM  =      8757.52110192
  Solvation  Ediel_sol  =         0.00000000
  ---------------------------------------------------
  free energy    TOTEN  =      -815.01214113 eV

  energy without entropy =     -814.81768407  energy(sigma->0) =     -814.91491260


--------------------------------------------------------------------------------------------------------




--------------------------------------- Iteration      1(  11)  ---------------------------------------


    POTLOK:  cpu time      2.1020: real time      2.1290
    SETDIJ:  cpu time      1.5710: real time      1.5721
    EDDIAG:  cpu time     35.9325: real time     35.9514
     EDDAV:  cpu time    171.8783: real time    171.9790
       DOS:  cpu time      0.0041: real time      0.0041
    CHARGE:  cpu time     20.7721: real time     20.7890
    MIXING:  cpu time      0.0469: real time      0.0469
    --------------------------------------------
      LOOP:  cpu time    232.3069: real time    232.4714

 eigenvalue-minimisations  :  1952
 total energy-change (2. order) : 0.1136339E-04  (-0.4489270E-04)
 number of electron     343.9999999 magnetization 
 augmentation part      -18.8525474 magnetization 

 Broyden mixing:
  rms(total) = 0.15870E-02    rms(broyden)= 0.59671E-02
  rms(prec ) = 0.19544E-02
  weight for this iteration     100.00
  WARNING: grid for Broyden might be to small

 eigenvalues of (default mixing * dielectric matrix)
  average eigenvalue GAMMA=   1.0663
  2.6405  2.6405  0.9870  0.9870  0.3556  0.7105  0.7105  0.5853  0.5635  0.4826

 Free energy of the ion-electron system (eV)
  ---------------------------------------------------
  alpha Z        PSCENC =        42.50217730
  Ewald energy   TEWEN  =     51310.93519951
  -Hartree energ DENC   =    -59011.99974914
  -exchange      EXHF   =         0.00000000
  -V(xc)+E(xc)   XCENC  =      -385.73375299
  PAW double counting   =     50025.53000084   -49188.07799017
  entropy T*S    EENTRO =        -0.19469437
  eigenvalues    EBANDS =     -2365.49442266
  atomic energy  EATOM  =      8757.52110192
  Solvation  Ediel_sol  =         0.00000000
  ---------------------------------------------------
  free energy    TOTEN  =      -815.01212976 eV

  energy without entropy =     -814.81743539  energy(sigma->0) =     -814.91478258


--------------------------------------------------------------------------------------------------------




--------------------------------------- Iteration      1(  12)  ---------------------------------------


    POTLOK:  cpu time      2.1301: real time      2.1349
    SETDIJ:  cpu time      1.5709: real time      1.5715
    EDDIAG:  cpu time     35.8847: real time     35.9020
     EDDAV:  cpu time    170.3974: real time    170.4971
       DOS:  cpu time      0.0044: real time      0.0044
    CHARGE:  cpu time     20.7951: real time     20.8145
    MIXING:  cpu time      0.0457: real time      0.0457
    --------------------------------------------
      LOOP:  cpu time    230.8284: real time    230.9701

 eigenvalue-minimisations  :  1920
 total energy-change (2. order) :-0.6569954E-04  (-0.1926000E-04)
 number of electron     343.9999999 magnetization 
 augmentation part      -18.8526044 magnetization 

 Broyden mixing:
  rms(total) = 0.92109E-03    rms(broyden)= 0.52908E-02
  rms(prec ) = 0.12625E-02
  weight for this iteration     100.00
  WARNING: grid for Broyden might be to small

 eigenvalues of (default mixing * dielectric matrix)
  average eigenvalue GAMMA=   1.0424
  2.6987  2.6987  1.1249  0.8879  0.8879  0.3556  0.6875  0.6233  0.5204  0.5204
  0.4615

 Free energy of the ion-electron system (eV)
  ---------------------------------------------------
  alpha Z        PSCENC =        42.50217730
  Ewald energy   TEWEN  =     51310.93519951
  -Hartree energ DENC   =    -59011.83360595
  -exchange      EXHF   =         0.00000000
  -V(xc)+E(xc)   XCENC  =      -385.74189151
  PAW double counting   =     50023.88141248   -49186.42852152
  entropy T*S    EENTRO =        -0.19459448
  eigenvalues    EBANDS =     -2365.65347321
  atomic energy  EATOM  =      8757.52110192
  Solvation  Ediel_sol  =         0.00000000
  ---------------------------------------------------
  free energy    TOTEN  =      -815.01219546 eV

  energy without entropy =     -814.81760098  energy(sigma->0) =     -814.91489822


--------------------------------------------------------------------------------------------------------




--------------------------------------- Iteration      1(  13)  ---------------------------------------


    POTLOK:  cpu time      2.1022: real time      2.1254
    SETDIJ:  cpu time      1.5713: real time      1.5721
    EDDIAG:  cpu time     36.0066: real time     36.0257
     EDDAV:  cpu time    171.5346: real time    171.6379
       DOS:  cpu time      0.0036: real time      0.0036
    CHARGE:  cpu time     20.7817: real time     20.8002
    MIXING:  cpu time      0.0467: real time      0.0467
    --------------------------------------------
      LOOP:  cpu time    232.0467: real time    232.2116

 eigenvalue-minimisations  :  1944
 total energy-change (2. order) :-0.6375756E-04  (-0.1364877E-04)
 number of electron     343.9999999 magnetization 
 augmentation part      -18.8526619 magnetization 

 Broyden mixing:
  rms(total) = 0.37956E-03    rms(broyden)= 0.23293E-02
  rms(prec ) = 0.54333E-03
  weight for this iteration     100.00
  WARNING: grid for Broyden might be to small

 eigenvalues of (default mixing * dielectric matrix)
  average eigenvalue GAMMA=   1.0933
  2.7746  2.7746  1.7216  1.0571  0.8204  0.8204  0.3554  0.6668  0.6100  0.5665
  0.4762  0.4762

 Free energy of the ion-electron system (eV)
  ---------------------------------------------------
  alpha Z        PSCENC =        42.50217730
  Ewald energy   TEWEN  =     51310.93519951
  -Hartree energ DENC   =    -59011.65563747
  -exchange      EXHF   =         0.00000000
  -V(xc)+E(xc)   XCENC  =      -385.74667766
  PAW double counting   =     50022.11861205   -49184.66529152
  entropy T*S    EENTRO =        -0.19458946
  eigenvalues    EBANDS =     -2365.82715389
  atomic energy  EATOM  =      8757.52110192
  Solvation  Ediel_sol  =         0.00000000
  ---------------------------------------------------
  free energy    TOTEN  =      -815.01225922 eV

  energy without entropy =     -814.81766976  energy(sigma->0) =     -814.91496449


--------------------------------------------------------------------------------------------------------




--------------------------------------- Iteration      1(  14)  ---------------------------------------


    POTLOK:  cpu time      2.1260: real time      2.1278
    SETDIJ:  cpu time      1.5738: real time      1.5748
    EDDIAG:  cpu time     35.8989: real time     35.9194
     EDDAV:  cpu time    166.9446: real time    167.0493
       DOS:  cpu time      0.0020: real time      0.0020
    CHARGE:  cpu time     20.7972: real time     20.8134
    MIXING:  cpu time      0.0479: real time      0.0480
    --------------------------------------------
      LOOP:  cpu time    227.3905: real time    227.5346

 eigenvalue-minimisations  :  1856
 total energy-change (2. order) :-0.8584557E-04  (-0.1117425E-04)
 number of electron     343.9999999 magnetization 
 augmentation part      -18.8527092 magnetization 

 Broyden mixing:
  rms(total) = 0.31969E-03    rms(broyden)= 0.23348E-02
  rms(prec ) = 0.46627E-03
  weight for this iteration     100.00
  WARNING: grid for Broyden might be to small

 eigenvalues of (default mixing * dielectric matrix)
  average eigenvalue GAMMA=   1.1245
  2.8452  2.8452  2.0382  1.0448  1.0448  0.8215  0.8215  0.3554  0.6332  0.6332
  0.5713  0.4818  0.4818

 Free energy of the ion-electron system (eV)
  ---------------------------------------------------
  alpha Z        PSCENC =        42.50217730
  Ewald energy   TEWEN  =     51310.93519951
  -Hartree energ DENC   =    -59011.52658296
  -exchange      EXHF   =         0.00000000
  -V(xc)+E(xc)   XCENC  =      -385.75061726
  PAW double counting   =     50021.70918947   -49184.25596067
  entropy T*S    EENTRO =        -0.19459349
  eigenvalues    EBANDS =     -2365.95225887
  atomic energy  EATOM  =      8757.52110192
  Solvation  Ediel_sol  =         0.00000000
  ---------------------------------------------------
  free energy    TOTEN  =      -815.01234506 eV

  energy without entropy =     -814.81775157  energy(sigma->0) =     -814.91504832


--------------------------------------------------------------------------------------------------------




--------------------------------------- Iteration      1(  15)  ---------------------------------------


    POTLOK:  cpu time      2.0994: real time      2.1270
    SETDIJ:  cpu time      1.5783: real time      1.5791
    EDDIAG:  cpu time     35.9090: real time     35.9278
     EDDAV:  cpu time    166.9654: real time    167.0696
       DOS:  cpu time      0.0050: real time      0.0050
    CHARGE:  cpu time     20.7728: real time     20.7905
    MIXING:  cpu time      0.0481: real time      0.0481
    --------------------------------------------
      LOOP:  cpu time    227.3780: real time    227.5472

 eigenvalue-minimisations  :  1856
 total energy-change (2. order) :-0.8497097E-04  (-0.1338490E-04)
 number of electron     343.9999999 magnetization 
 augmentation part      -18.8527312 magnetization 

 Broyden mixing:
  rms(total) = 0.17640E-03    rms(broyden)= 0.17390E-02
  rms(prec ) = 0.28745E-03
  weight for this iteration     100.00
  WARNING: grid for Broyden might be to small

 eigenvalues of (default mixing * dielectric matrix)
  average eigenvalue GAMMA=   1.1300
  3.0399  2.7420  2.1439  1.2864  1.0243  0.8604  0.8604  0.3554  0.7113  0.4840
  0.4840  0.6360  0.5951  0.5972

 Free energy of the ion-electron system (eV)
  ---------------------------------------------------
  alpha Z        PSCENC =        42.50217730
  Ewald energy   TEWEN  =     51310.93519951
  -Hartree energ DENC   =    -59011.40942692
  -exchange      EXHF   =         0.00000000
  -V(xc)+E(xc)   XCENC  =      -385.75374450
  PAW double counting   =     50021.67860846   -49184.22559194
  entropy T*S    EENTRO =        -0.19460109
  eigenvalues    EBANDS =     -2366.06615277
  atomic energy  EATOM  =      8757.52110192
  Solvation  Ediel_sol  =         0.00000000
  ---------------------------------------------------
  free energy    TOTEN  =      -815.01243004 eV

  energy without entropy =     -814.81782894  energy(sigma->0) =     -814.91512949


--------------------------------------------------------------------------------------------------------




--------------------------------------- Iteration      1(  16)  ---------------------------------------


    POTLOK:  cpu time      2.1289: real time      2.1301
    SETDIJ:  cpu time      1.5692: real time      1.5701
    EDDIAG:  cpu time     35.9244: real time     35.9426
[...]
   0.993E+01 0.461E+02 0.179E+03   -.927E+01 -.450E+02 -.179E+03   -.452E+00 -.112E+01 -.550E+00   0.647E-05 0.907E-05 -.453E-04
   0.141E+02 -.195E+02 -.119E+03   -.146E+02 0.180E+02 0.120E+03   0.509E+00 0.129E+01 -.191E+00   -.106E-04 0.110E-04 -.382E-04
   0.242E+02 -.252E-01 -.322E+03   -.242E+02 -.646E+00 0.324E+03   -.457E-01 0.677E+00 -.809E+00   -.249E-04 0.116E-04 -.370E-04
   0.359E+01 -.245E+02 -.177E+03   -.258E+01 0.236E+02 0.178E+03   -.927E+00 0.639E+00 -.452E+00   -.684E-07 -.809E-05 -.314E-04
   0.221E+02 0.322E+01 -.240E+03   -.203E+02 -.145E+01 0.239E+03   -.161E+01 -.174E+01 0.125E+01   0.186E-04 -.109E-03 -.192E-04
   0.165E+01 -.736E+01 0.265E+03   -.767E+00 0.856E+01 -.265E+03   -.998E+00 -.109E+01 -.355E+00   -.695E-05 0.755E-05 -.820E-05
   -.418E+02 0.464E+01 0.361E+03   0.434E+02 -.305E+01 -.363E+03   -.137E+01 -.136E+01 0.857E+00   0.167E-04 -.913E-05 -.116E-04
   -.450E+01 -.827E+01 -.888E-01   0.347E+01 0.905E+01 -.628E+00   0.749E+00 -.853E+00 0.506E+00   0.190E-05 -.222E-04 -.145E-04
   0.142E+02 -.129E+02 -.251E+02   -.132E+02 0.136E+02 0.252E+02   -.996E+00 -.698E+00 -.479E-01   0.141E-04 -.568E-05 -.284E-04
   -.154E+02 -.116E+02 -.372E+03   0.161E+02 0.987E+01 0.369E+03   -.600E+00 0.148E+01 0.213E+01   -.364E-06 -.751E-05 -.870E-05
   -.280E+02 0.107E+02 0.224E+03   0.271E+02 -.985E+01 -.222E+03   0.625E+00 -.711E+00 -.187E+01   0.125E-05 -.194E-05 -.195E-04
   -.913E+01 0.278E+02 -.185E+03   0.829E+01 -.272E+02 0.185E+03   0.646E+00 -.652E+00 -.542E+00   0.629E-04 0.900E-04 -.684E-04
   -.903E+01 -.339E+02 -.231E+03   0.822E+01 0.333E+02 0.230E+03   0.839E+00 0.773E+00 0.113E+01   0.988E-05 -.154E-04 -.316E-04
   0.966E+01 0.146E+02 0.224E+03   -.997E+01 -.134E+02 -.223E+03   0.172E+00 -.118E+01 -.521E+00   0.106E-04 0.948E-05 -.137E-04
   0.355E+02 -.226E+02 0.169E+03   -.346E+02 0.218E+02 -.168E+03   -.814E+00 0.110E+01 -.112E+01   0.229E-04 -.764E-05 -.267E-04
   0.935E+01 -.101E+02 0.132E+02   -.839E+01 0.110E+02 -.162E+02   -.832E+00 -.386E+00 0.304E+01   0.295E-04 -.152E-04 -.328E-04
   -.687E+01 -.206E+02 0.633E+01   0.572E+01 0.201E+02 -.665E+01   0.103E+01 0.594E+00 0.247E+00   -.380E-05 -.427E-05 -.286E-04
   -.247E+02 0.151E+02 0.103E+03   0.233E+02 -.156E+02 -.102E+03   0.124E+01 0.451E+00 -.137E+01   -.957E-05 0.169E-05 -.231E-04
   0.797E+01 0.177E+02 -.106E+03   -.666E+01 -.173E+02 0.106E+03   -.128E+01 -.300E+00 0.341E-01   -.343E-05 0.160E-06 -.348E-04
   0.180E+02 0.665E+01 -.309E+03   -.166E+02 -.655E+01 0.307E+03   -.167E+01 -.270E+00 0.162E+01   0.833E-05 -.322E-06 -.173E-04
   0.128E+02 -.189E+01 0.164E+02   -.107E+02 0.219E+01 -.159E+02   -.184E+01 0.578E-02 -.178E+00   -.788E-05 0.520E-05 -.330E-04
   0.231E+02 -.159E+02 -.705E+02   -.241E+02 0.159E+02 0.699E+02   0.939E+00 0.705E-01 0.765E+00   0.107E-04 0.152E-04 -.220E-04
   0.936E+01 0.568E+01 -.430E+02   -.877E+01 -.579E+01 0.433E+02   -.503E+00 -.108E+00 -.405E+00   0.614E-05 0.660E-05 -.340E-04
   -.170E+02 0.572E+02 0.277E+03   0.158E+02 -.564E+02 -.279E+03   0.101E+01 -.970E+00 0.140E+01   -.174E-04 0.106E-05 -.496E-05
   0.113E+02 -.336E+02 0.109E+03   -.858E+01 0.318E+02 -.110E+03   -.235E+01 0.154E+01 0.591E+00   -.222E-04 -.153E-04 -.127E-04
   -.168E+02 -.156E+02 0.351E+02   0.190E+02 0.152E+02 -.369E+02   -.174E+01 0.481E+00 0.178E+01   -.118E-04 -.770E-05 -.283E-04
   0.103E+02 -.126E+02 0.208E+03   -.893E+01 0.129E+02 -.207E+03   -.146E+01 -.363E+00 -.756E+00   0.707E-06 -.864E-05 -.232E-04
   -.220E+00 0.177E+02 0.264E+02   0.245E+01 -.154E+02 -.263E+02   -.232E+01 -.237E+01 -.166E+00   0.152E-04 0.196E-04 -.273E-04
   -.151E+02 -.941E+01 -.221E+03   0.126E+02 0.808E+01 0.222E+03   0.252E+01 0.127E+01 -.834E+00   -.355E-05 0.810E-05 -.284E-04
   0.297E+01 -.150E+02 -.269E+03   -.217E+01 0.152E+02 0.271E+03   -.466E+00 -.149E+00 -.227E+01   0.175E-04 -.464E-04 -.215E-04
   0.110E+02 -.859E+01 0.133E+03   -.122E+02 0.905E+01 -.133E+03   0.898E+00 -.367E+00 0.426E-01   -.990E-05 0.223E-04 -.437E-04
   -.122E+02 -.470E+02 -.294E+03   0.114E+02 0.434E+02 0.292E+03   0.526E+00 0.338E+01 0.201E+01   -.178E-04 -.102E-04 -.168E-04
   -.145E+02 0.466E+01 -.210E+03   0.136E+02 -.432E+01 0.210E+03   0.308E+00 -.373E+00 0.911E+00   -.194E-05 -.647E-05 -.278E-04
   -.984E+01 -.917E+00 0.370E+03   0.110E+02 0.369E+00 -.371E+03   -.850E+00 0.374E+00 0.820E+00   -.477E-05 0.217E-05 -.309E-05
   -.200E+01 0.124E+02 -.320E+03   0.258E+01 -.105E+02 0.316E+03   -.505E+00 -.154E+01 0.362E+01   -.129E-04 -.160E-04 -.105E-04
   0.105E+02 0.294E+02 0.301E+03   -.917E+01 -.290E+02 -.301E+03   -.138E+01 -.285E+00 -.796E+00   -.111E-04 0.126E-04 -.147E-05
   -.139E+02 -.347E+01 0.686E+02   0.119E+02 0.525E+01 -.688E+02   0.190E+01 -.161E+01 0.334E+00   0.916E-05 0.297E-05 -.251E-04
   -.258E+02 0.240E+02 -.148E+03   0.258E+02 -.240E+02 0.146E+03   0.909E-01 -.543E-01 0.212E+01   0.150E-04 0.207E-04 -.240E-04
   0.250E+01 -.650E+01 0.340E+03   -.357E+01 0.607E+01 -.340E+03   0.922E+00 0.511E+00 -.111E+00   0.169E-04 -.114E-04 -.263E-05
   -.497E+01 0.123E+02 0.990E+02   0.651E+01 -.117E+02 -.972E+02   -.139E+01 -.401E+00 -.171E+01   -.201E-04 0.171E-04 -.320E-04
   -.694E+01 0.260E+02 0.272E+03   0.557E+01 -.233E+02 -.270E+03   0.109E+01 -.268E+01 -.157E+01   0.254E-04 -.942E-05 -.229E-05
   -.421E+01 0.111E+02 0.240E+03   0.394E+01 -.108E+02 -.237E+03   -.597E-01 -.327E+00 -.294E+01   -.215E-04 -.106E-04 -.622E-05
   0.181E+02 -.274E+02 0.306E+03   -.184E+02 0.274E+02 -.305E+03   -.162E-01 -.429E+00 -.981E+00   -.468E-05 -.367E-05 -.131E-04
 -----------------------------------------------------------------------------------------------
   0.389E+01 -.439E+01 0.543E+01   -.160E-12 0.639E-13 0.227E-12   -.390E+01 0.440E+01 -.543E+01   0.107E-03 0.721E-04 -.210E-02


 POSITION                                       TOTAL-FORCE (eV/Angst)
 -----------------------------------------------------------------------------------
      8.10985      3.76359     11.28937         0.084561      0.229233     -0.107185
      0.18013      9.35987     12.53598         0.169808      0.115045      0.301065
      0.24303      1.75049     18.12600        -0.155499     -0.113855     -0.065569
     13.11797      4.80382     14.83201        -0.080217     -0.253781     -0.038395
      1.87678      7.44290     13.11985        -0.109509      0.028684      0.128455
      1.49641      5.18267     14.45888        -0.264906     -0.489646     -0.383072
      6.35096      2.60317     13.18564        -0.056255     -0.073468     -0.045940
      8.17568     12.56661     16.56211         0.127067     -0.018175     -0.003190
      9.71086      1.73487     14.19192        -0.165202     -0.135893     -0.065237
      9.60948      9.41339     15.58696        -0.153740     -0.290998      0.128908
      6.43649     13.67245     10.69801         0.318064      0.056369      0.074963
     11.46442      9.32636     10.05837        -0.206739      0.102072      0.326766
     12.61833      2.81961     11.82074         0.146473      0.134783     -0.266535
      0.64871      3.56568     10.02401         0.479594     -0.101136      0.510082
     14.23745     12.02579     10.73158         0.031551     -0.032765     -0.256700
      0.05509      8.33975     11.07335        -0.454073      0.060601     -0.204670
     10.66249      7.37311     15.12012        -0.012064      0.283177      0.160870
      8.90144      6.68986     12.00619         0.037093     -0.262228      0.093394
      8.86958     12.25885     13.53302         0.167465      0.199526     -0.067551
     12.96504     10.62359     16.16156         0.079879     -0.287459      0.152116
      3.66447     10.89103     10.50620         0.163028     -0.126364      0.067544
     10.76342     11.05302     16.71585         0.005901     -0.122884     -0.260633
      4.15464      6.00693     16.46402         0.021179      0.334046     -0.056251
      1.85700     11.82184     11.67027        -0.019814     -0.100991     -0.171959
     11.37653      2.85347     16.44574         0.199321     -0.226404     -0.288635
     12.56118     11.98085     12.39907        -0.269107     -0.054092     -0.090143
     12.12744      6.94167     16.85434        -0.139960      0.037903     -0.024939
      9.41930     10.06043     13.34283         0.136106      0.157651      0.175978
      1.21265      8.46000     16.22182         0.217750     -0.006666     -0.100031
      0.43323      4.60443     17.25815         0.170585      0.397620     -0.018174
     11.64071     14.14295     11.88706        -0.029664      0.290470     -0.318670
      7.46496      9.85258     10.50375         0.140666     -0.168692      0.039059
      8.47747      2.36257     10.89679         0.403398     -0.158155      0.099796
      5.36356      4.07074     16.63754         0.149091     -0.119706     -0.383921
      1.42782      2.01207     12.56262         0.329988     -0.097454      0.113732
     10.88365      7.15142     10.70874        -0.000758      0.005513      0.128157
      2.96558      5.25354     11.62611        -0.030158     -0.117977     -0.266463
     14.34835     13.81886     15.32761        -0.065125      0.007559      0.219888
      9.41228      3.77833     15.26781         0.129502     -0.045637      0.203351
      2.13721      7.42264     11.64022         0.245782      0.024771     -0.004028
      4.93480     12.89236     16.62167         0.582589     -0.101791      0.225454
      3.16041     12.12040     15.26545        -0.084159      0.177658     -0.024398
      7.29698      7.27914     14.76947        -0.087550     -0.002165      0.022604
      0.41821     10.50964     17.43659        -0.184985      0.088530     -0.006244
      1.84455      6.08224     16.12489         0.082914     -0.053611      0.681477
      9.11875      5.88344     14.22004         0.134780      0.078395      0.142952
      9.77849      0.56733     16.21182        -0.218008      0.310886      0.157818
     12.32621      8.07171     13.60322         0.075906     -0.071969      0.157321
     13.14839      1.35719     15.61240         0.037924      0.340968     -0.052965
     12.96634      6.79375     11.75928         0.192591     -0.054621     -0.215812
      6.31602     10.07630     14.40190         0.042406     -0.195399      0.176947
      7.38063      9.08378     16.25510         0.014604     -0.003994      0.287983
      4.45695      2.29649     15.50160         0.058709     -0.235559      0.329530
     12.85998      4.80773     16.32655         0.148980     -0.047988      0.295824
      5.86933     11.46636     11.11406        -0.144396      0.071638     -0.434733
      3.05213      3.64854      9.94007        -0.070961      0.164823     -0.374192
     11.94629      1.40648     13.51996        -0.291667     -0.098238     -0.220974
      1.50633      0.33520     14.13079         0.008069     -0.062195      0.090246
      3.02333     13.97112     17.43753         0.007640     -0.265026     -1.093419
      3.59647      2.06881     11.66462        -0.266800      0.054490      0.007633
     13.50642      8.41562     15.61205        -0.185359     -0.094357     -0.144183
      2.44880      1.27017     16.03838         0.067273      0.243359      0.248514
      3.95625      8.86289     11.51990        -0.111407     -0.110687     -0.218982
     13.96166      4.70504     11.79248        -0.036095      0.282237     -0.163022
      1.33377      4.32999     13.05686         0.059248      0.487176      0.146943
      6.27287     14.41646     13.50331        -0.051467      0.044442     -0.112592
      5.09317      5.32737     12.64050        -0.108861     -0.054594      0.086999
      5.06741      6.76499     14.48744         0.001883      0.092133      0.004258
      1.30077     12.60989     16.71537        -0.405259     -0.173644      0.197666
      6.56278     12.10115     13.27870         0.244309      0.301390      0.295230
     13.76795     11.81362     14.32994        -0.038766      0.092980      0.214726
      4.40908      8.91977     13.82267         0.084097     -0.213639     -0.058435
      6.81621      5.91235     11.06691        -0.181335      0.004778      0.158329
      8.23397      0.83606     12.60858         0.243714     -0.171811     -0.111258
      4.93549      3.08641     13.30758         0.339604      0.174598      0.048488
      4.55506     14.49943     11.93268        -0.115893      0.015715      0.137747
      0.96609     10.53712     13.36395        -0.238229     -0.142367     -0.085638
      9.46240     12.79336     15.81483         0.058558      0.010909      0.019970
      0.50298      2.34144     16.77464         0.295734     -0.011505     -0.101288
     11.46269      9.89772     12.29765        -0.228769      0.056092     -0.282220
      7.58371      3.49248     16.72187        -0.312073     -0.166879     -0.267584
      5.83060      0.36419     15.74145        -0.563040     -0.025100      0.324264
     13.73906      9.95485      9.64264         0.185801     -0.199238     -0.119436
      7.66625      1.22973     16.83028         0.069474      0.412596     -0.388458
      6.06331      8.08146     10.86743        -0.046611      0.080549     -0.319161
      2.88695     13.28997     13.15035        -0.051478      0.076095      0.152076
      2.57070      9.83593     14.86774         0.075927     -0.031130      0.181046
     13.32234     14.13854     10.20511        -0.045081      0.121561      0.281655
      7.63904      8.67165     12.71650         0.086778      0.121232     -0.091472
     14.36599      1.56277     10.91373        -0.256907     -0.055047     -0.240542
      9.35601     13.57238     11.70640        -0.333434      0.054345      0.156186
     10.77188      2.01090     10.67907        -0.281984     -0.377618      0.460891
 -----------------------------------------------------------------------------------
    total drift:                               -0.002960      0.006344     -0.007688


--------------------------------------------------------------------------------------------------------



  FREE ENERGIE OF THE ION-ELECTRON SYSTEM (eV)
  ---------------------------------------------------
  free  energy   TOTEN  =      -815.01267455 eV

  energy  without entropy=     -814.81807387  energy(sigma->0) =     -814.91537421



--------------------------------------------------------------------------------------------------------


    POTLOK:  cpu time      3.6517: real time      3.6544


--------------------------------------------------------------------------------------------------------


     LOOP+:  cpu time   5619.1811: real time   5623.2834
    4ORBIT:  cpu time      0.0000: real time      0.0000



 total charge

# of ion       s       p       d       tot
------------------------------------------
    1        0.554   0.017   0.000   0.570
    2        0.555   0.016   0.000   0.571
    3        0.562   0.015   0.000   0.577
    4        0.550   0.015   0.000   0.564
    5        0.565   0.016   0.000   0.580
    6        0.526   0.016   0.000   0.542
    7        0.567   0.016   0.000   0.583
    8        0.558   0.015   0.000   0.573
    9        0.770   0.923   0.000   1.694
   10        0.760   0.954   0.000   1.714
   11        0.860   0.732   0.000   1.592
   12        0.799   0.845   0.000   1.644
   13        0.763   0.947   0.000   1.711
   14        0.820   0.798   0.000   1.619
   15        0.756   0.912   0.000   1.668
   16        0.780   0.866   0.000   1.647
   17        0.761   0.954   0.000   1.715
   18        0.774   0.850   0.000   1.624
   19        0.761   0.965   0.000   1.726
   20        0.755   0.951   0.000   1.707
   21        0.799   0.874   0.000   1.673
   22        0.795   0.880   0.000   1.674
   23        0.781   0.895   0.000   1.676
   24        0.750   0.957   0.000   1.707
   25        0.792   0.781   0.000   1.573
   26        0.778   0.920   0.000   1.698
   27        0.807   0.868   0.000   1.675
   28        0.776   0.948   0.000   1.724
   29        0.754   0.884   0.000   1.638
   30        0.791   0.892   0.000   1.683
   31        0.758   0.882   0.000   1.640
   32        0.834   0.803   0.000   1.637
   33        0.785   0.891   0.000   1.676
   34        0.774   0.892   0.000   1.665
   35        0.757   0.935   0.000   1.692
   36        0.794   0.835   0.000   1.629
   37        0.756   0.944   0.000   1.700
   38        0.760   0.924   0.000   1.683
   39        0.755   0.897   0.000   1.652
   40        0.750   0.984   0.000   1.734
   41        0.822   0.834   0.000   1.656
   42        0.762   0.881   0.000   1.643
   43        0.779   0.894   0.000   1.673
   44        0.822   0.784   0.000   1.606
   45        0.792   0.822   0.000   1.614
   46        0.750   0.936   0.000   1.686
   47        0.779   0.886   0.000   1.665
   48        0.774   0.898   0.000   1.672
   49        0.773   0.846   0.000   1.618
   50        0.750   0.949   0.000   1.699
   51        0.787   0.872   0.000   1.659
   52        0.824   0.839   0.000   1.663
   53        0.753   0.943   0.000   1.695
   54        0.751   0.947   0.000   1.697
   55        0.764   0.929   0.000   1.693
   56        0.815   0.829   0.000   1.644
   57        0.777   0.889   0.000   1.665
   58        0.764   0.964   0.000   1.728
   59        0.817   0.827   0.000   1.644
   60        0.756   0.939   0.000   1.695
   61        0.765   0.927   0.000   1.692
   62        0.757   0.957   0.000   1.713
   63        0.756   0.960   0.000   1.716
   64        0.757   0.935   0.000   1.692
   65        0.772   0.900   0.000   1.672
   66        0.762   0.933   0.000   1.695
   67        0.757   0.930   0.000   1.687
   68        0.756   0.954   0.000   1.710
   69        0.769   0.916   0.000   1.684
   70        0.761   0.943   0.000   1.704
   71        0.759   0.959   0.000   1.718
   72        0.762   0.966   0.000   1.729
   73        0.803   0.833   0.000   1.636
   74        0.757   0.940   0.000   1.696
   75        0.753   0.952   0.000   1.705
   76        0.765   0.920   0.000   1.685
   77        0.775   0.911   0.000   1.686
   78        0.748   0.934   0.000   1.682
   79        0.750   0.955   0.000   1.705
   80        0.763   0.935   0.000   1.698
   81        0.766   0.908   0.000   1.674
   82        0.760   0.926   0.000   1.686
   83        0.799   0.841   0.000   1.640
   84        0.787   0.899   0.000   1.686
   85        0.784   0.901   0.000   1.685
   86        0.754   0.924   0.000   1.678
   87        0.762   0.941   0.000   1.703
   88        0.805   0.832   0.000   1.637
   89        0.757   0.904   0.000   1.661
   90        0.759   0.948   0.000   1.706
   91        0.801   0.869   0.000   1.670
   92        0.822   0.778   0.000   1.600
--------------------------------------------------
tot         69.552  75.744   0.000 145.296


 total amount of memory used by VASP MPI-rank0   353929. kBytes
=======================================================================

   base                                    :      30000. kBytes
   nonl-proj                               :      68820. kBytes
   fftplans                                :     108854. kBytes
   grid                                    :      83991. kBytes
   one-center                              :         18. kBytes
   wavefun                                 :      62246. kBytes

  
  
 General timing and accounting informations for this job:
 ========================================================
  
                  Total CPU time used (sec):     5767.134
                            User time (sec):     5123.855
                          System time (sec):      643.279
                         Elapsed time (sec):     5771.232
  
                   Maximum memory used (kb):      623304.
                   Average memory used (kb):          N/A
  
                          Minor page faults:      9184874
                          Major page faults:         1161
                 Voluntary context switches:         3482
