 vasp.6.5.0 16Dec24 (build Jan 20 2025 08:32:48) complex                         
 executed on        HPECrayEX_GCC date 2025.07.22  03:10:39
 running  128 mpi-ranks, with    1 threads/rank, on    1 nodes
 distrk:  each k-point on  128 cores,    1 groups
 distr:  one band on NCORE=  16 cores,    8 groups


--------------------------------------------------------------------------------------------------------


 INCAR:
   SYSTEM = a-Si SPC
   NCORE = 16
   ISTART = 1
   ICHARG = 1
   ISPIN = 1
   ISYM = 1
   EDIFF = 1E-6
   NELM = 150
   EDIFFG = -0.01
   NSW = 0
   ISIF = 2
   IBRION = -1
   PREC = Accurate
   ENCUT = 1200
   KSPACING = 0.23
   KGAMMA = .TRUE.
   METAGGA = SCAN
   LASPH = .TRUE.
   LDIAG = .FALSE.
   LMIXTAU = .TRUE.
   ADDGRID = .TRUE.
   ALGO = Normal
   ISMEAR = 0
   SIGMA = 0.1
   LORBIT = 11
   NEDOS = 2000
   LWAVE = .FALSE.
   LCHARG = .FALSE.

 POTCAR:    PAW_PBE H 15Jun2001                   
 POTCAR:    PAW_PBE Si 05Jan2001                  
 POTCAR:    PAW_PBE H 15Jun2001                   
   SHA256 =  030f79b5d3ab3cf0e668861823c8fb652ff669f3e15e46930bd03bfd63a607b6 H/POTCAR              
   COPYR  = (c) Copyright 15Jun2001 Georg Kresse                                                    
   COPYR  = This file is part of the software VASP. Any use, copying, and all other rights are regul
   COPYR  = If you do not have a valid VASP license, you may not use, copy or distribute this file. 
   VRHFIN =H: ultrasoft test                                                                        
   LEXCH  = PE                                                                                      
   EATOM  =    12.4884 eV,    0.9179 Ry                                                             
                                                                                                    
   TITEL  = PAW_PBE H 15Jun2001                                                                     
   LULTRA =        F    use ultrasoft PP ?                                                          
   IUNSCR =        0    unscreen: 0-lin 1-nonlin 2-no                                               
   RPACOR =    0.000    partial core radius                                                         
   POMASS =    1.000; ZVAL   =    1.000    mass and valenz                                          
   RCORE  =    1.100    outmost cutoff radius                                                       
   RWIGS  =    0.700; RWIGS  =    0.370    wigner-seitz radius (au A)                               
   ENMAX  =  250.000; ENMIN  =  200.000 eV                                                          
   RCLOC  =    0.701    cutoff for local pot                                                        
   LCOR   =        T    correct aug charges                                                         
   LPAW   =        T    paw PP                                                                      
   EAUG   =  400.000                                                                                
   RMAX   =    1.123    core radius for proj-oper                                                   
   RAUG   =    1.200    factor for augmentation sphere                                              
   RDEP   =    1.112    radius for radial grids                                                     
   RDEPT  =    0.926    core radius for aug-charge                                                  
                                                                                                    
   Atomic configuration                                                                             
    2 entries                                                                                       
     n  l   j            E        occ.                                                              
     1  0  0.50        -6.4927   1.0000                                                             
     2  1  0.50        -3.4015   0.0000                                                             
   Description                                                                                      
     l       E           TYP  RCUT    TYP  RCUT                                                     
     0     -6.4927494     23  1.100                                                                 
     0      6.8029130     23  1.100                                                                 
     1     -4.0817478     23  1.100                                                                 
  local pseudopotential read in
  atomic valenz-charges read in
  non local Contribution for L=           0  read in
    real space projection operators read in
  non local Contribution for L=           0  read in
    real space projection operators read in
  non local Contribution for L=           1  read in
    real space projection operators read in
    PAW grid and wavefunctions read in

   number of l-projection  operators is LMAX  =           3
   number of lm-projection operators is LMMAX =           5

 POTCAR:    PAW_PBE Si 05Jan2001                  
   SHA256 =  79d9987ad8750f624c4d6acb2a16d13abf6a777132adc04dc6c8399be72b42bb Si/POTCAR             
   COPYR  = (c) Copyright 05Jan2001 Georg Kresse                                                    
   COPYR  = This file is part of the software VASP. Any use, copying, and all other rights are regul
   COPYR  = If you do not have a valid VASP license, you may not use, copy or distribute this file. 
   VRHFIN =Si: s2p2                                                                                 
   LEXCH  = PE                                                                                      
   EATOM  =   103.0669 eV,    7.5752 Ry                                                             
                                                                                                    
   TITEL  = PAW_PBE Si 05Jan2001                                                                    
   LULTRA =        F    use ultrasoft PP ?                                                          
   IUNSCR =        1    unscreen: 0-lin 1-nonlin 2-no                                               
   RPACOR =    1.500    partial core radius                                                         
   POMASS =   28.085; ZVAL   =    4.000    mass and valenz                                          
   RCORE  =    1.900    outmost cutoff radius                                                       
   RWIGS  =    2.480; RWIGS  =    1.312    wigner-seitz radius (au A)                               
   ENMAX  =  245.345; ENMIN  =  184.009 eV                                                          
   ICORE  =        2    local potential                                                             
   LCOR   =        T    correct aug charges                                                         
   LPAW   =        T    paw PP                                                                      
   EAUG   =  322.069                                                                                
   DEXC   =    0.000                                                                                
   RMAX   =    1.950    core radius for proj-oper                                                   
   RAUG   =    1.300    factor for augmentation sphere                                              
   RDEP   =    1.993    radius for radial grids                                                     
   RDEPT  =    1.837    core radius for aug-charge                                                  
                                                                                                    
   Atomic configuration                                                                             
    6 entries                                                                                       
     n  l   j            E        occ.                                                              
     1  0  0.50     -1785.8828   2.0000                                                             
     2  0  0.50      -139.4969   2.0000                                                             
     2  1  1.50       -95.5546   6.0000                                                             
     3  0  0.50       -10.8127   2.0000                                                             
     3  1  0.50        -4.0811   2.0000                                                             
     3  2  1.50        -4.0817   0.0000                                                             
   Description                                                                                      
     l       E           TYP  RCUT    TYP  RCUT                                                     
     0    -10.8127223     23  1.900                                                                 
     0     -7.6451159     23  1.900                                                                 
     1     -4.0811372     23  1.900                                                                 
     1      2.4879257     23  1.900                                                                 
     2     -4.0817478      7  1.900                                                                 
  local pseudopotential read in
  partial core-charges read in
  partial kinetic energy density read in
  atomic valenz-charges read in
  non local Contribution for L=           0  read in
    real space projection operators read in
  non local Contribution for L=           0  read in
    real space projection operators read in
  non local Contribution for L=           1  read in
    real space projection operators read in
  non local Contribution for L=           1  read in
    real space projection operators read in
    PAW grid and wavefunctions read in

   number of l-projection  operators is LMAX  =           4
   number of lm-projection operators is LMMAX =           8

 -----------------------------------------------------------------------------
|                                                                             |
|               ----> ADVICE to this user running VASP <----                  |
|                                                                             |
|     You have a (more or less) 'large supercell' and for larger cells it     |
|     might be more efficient to use real-space projection operators.         |
|     Therefore, try LREAL= Auto in the INCAR file.                           |
|     Mind: For very accurate calculation, you might also keep the            |
|     reciprocal projection scheme (i.e. LREAL=.FALSE.).                      |
|                                                                             |
 -----------------------------------------------------------------------------

 -----------------------------------------------------------------------------
|                                                                             |
|               ----> ADVICE to this user running VASP <----                  |
|                                                                             |
|     You enforced a specific xc type in the INCAR file but a different       |
|     type was found in the POTCAR file.                                      |
|     I HOPE YOU KNOW WHAT YOU ARE DOING!                                     |
|                                                                             |
 -----------------------------------------------------------------------------

  PAW_PBE H 15Jun2001                   :
 energy of atom  1       EATOM=  -12.4884
 kinetic energy error for atom=    0.0000 (will be added to EATOM!!)
  PAW_PBE Si 05Jan2001                  :
 energy of atom  2       EATOM= -103.0669
 kinetic energy error for atom=    0.0001 (will be added to EATOM!!)


 POSCAR:  H Si
  positions in cartesian coordinates
  No initial velocities read in


 exchange-correlation table for SCAN
   RHO(1)=    0.500       N(1)  =     2000
   RHO(2)=  100.500       N(2)  =     4000



--------------------------------------------------------------------------------------------------------


 ion  position               nearest neighbor table
   1  0.337  0.529  0.353-  80 1.67
   2  0.182  0.902  0.609-  57 1.49
   3  0.138  0.480  0.511-  14 1.51
   4  0.493  0.133  0.442-  94 2.25  45 2.26  63 2.37  29 2.40
   5  0.419  0.526  0.492-  85 2.38   7 2.38  33 2.39  27 2.43
   6  0.269  0.721  0.643-  32 2.29  11 2.30  57 3.10
   7  0.355  0.404  0.447-  75 2.36   5 2.38  80 2.39  89 2.42
   8  0.933  0.511  0.481-  39 2.31  36 2.32  78 2.38  14 2.43
   9  0.340  0.396  0.608-  85 2.33  42 2.35  41 2.36
  10  0.200  0.198  0.462-  89 2.26  74 2.34  52 2.36  51 2.40
  11  0.362  0.848  0.653-   6 2.30  57 2.46  46 2.58
  12  0.951  0.147  0.552-  62 2.28  60 2.33  69 2.37  34 2.38
  13  0.687  0.447  0.364-  31 2.22  18 2.34  87 2.50
  14  0.090  0.460  0.466-   3 1.51  17 2.24  74 2.27   8 2.43
  15  0.553  0.308  0.543-  90 2.29  42 2.34  29 2.37  59 2.51
  16  0.463  0.616  0.378-  18 2.28  26 2.29  27 2.34
  17  0.146  0.540  0.406-  14 2.24  80 2.27  86 2.28
  18  0.529  0.479  0.360-  16 2.28  13 2.34  75 2.35
  19  0.903  0.896  0.614-  71 2.36  93 2.37  73 2.38
  20  0.293  0.047  0.557-  57 2.28  38 2.35  37 2.41  52 2.45
  21  0.551  0.957  0.535-  44 2.24  94 2.32  70 2.34  37 2.52
  22  0.760  0.394  0.559-  90 2.30  36 2.31  72 2.32  88 2.32
  23  0.821  0.877  0.422-  76 2.21  49 2.29  58 2.36  66 2.48  82 3.11
  24  0.640  0.722  0.519-  77 2.25  40 2.29  84 2.33  44 2.34
  25  0.453  0.108  0.650-  37 2.54
  26  0.601  0.692  0.383-  16 2.29  67 2.35  84 2.46
  27  0.377  0.658  0.444-  56 2.31  86 2.32  16 2.34   5 2.43
  28  0.497  0.602  0.611-  46 2.34  40 2.38  85 2.39
  29  0.440  0.210  0.511-  89 2.30  37 2.31  15 2.37   4 2.40
  30  0.112  0.558  0.586-  64 2.38  32 2.39  39 2.45
  31  0.802  0.547  0.364-  13 2.22  78 2.40
  32  0.249  0.645  0.574-   6 2.29  85 2.36  30 2.39  50 2.41
  33  0.583  0.514  0.495-  84 2.27  90 2.30  40 2.35   5 2.39
  34  0.071  0.037  0.547-  52 2.36  73 2.36  12 2.38  38 2.70
  35  0.710  0.102  0.516-  62 2.26  59 2.31  94 2.35  70 2.39
  36  0.883  0.370  0.509-  69 2.20  91 2.27  22 2.31   8 2.32
  37  0.453  0.089  0.563-  29 2.31  20 2.41  21 2.52  25 2.54  59 2.69
  38  0.188  0.140  0.598-  20 2.35  41 2.44  34 2.70
  39  0.988  0.614  0.536-  61 2.30  79 2.30   8 2.31  30 2.45
  40  0.630  0.590  0.563-  88 2.25  24 2.29  33 2.35  28 2.38
  41  0.228  0.297  0.576-   9 2.36  64 2.37  89 2.44  38 2.44
  42  0.498  0.366  0.614-  15 2.34   9 2.35
  43  0.259  0.898  0.360-  68 2.22  81 2.44  53 2.50
  44  0.507  0.809  0.533-  21 2.24  56 2.31  46 2.33  24 2.34
  45  0.395  0.074  0.389-   4 2.26  51 2.37  81 2.45  47 3.12
  46  0.494  0.763  0.611-  44 2.33  28 2.34  11 2.58  54 2.59
  47  0.345  0.266  0.348-  75 2.29  51 2.40  45 3.12
  48  0.669  0.218  0.652-  72 2.30  59 2.45  60 3.09
  49  0.898  0.977  0.469-  23 2.29  62 2.36  82 2.38  73 2.49
  50  0.257  0.783  0.528-  55 2.34  56 2.35  57 2.40  32 2.41
  51  0.253  0.153  0.386-  45 2.37  10 2.40  47 2.40
  52  0.188  0.046  0.490-  34 2.36  10 2.36  53 2.41  20 2.45
  53  0.157  0.945  0.426-  52 2.41  82 2.41  55 2.46  43 2.50
  54  0.656  0.779  0.648-  71 2.40  46 2.59
  55  0.147  0.799  0.469-  50 2.34  86 2.43  53 2.46  79 2.51
  56  0.388  0.799  0.480-  27 2.31  44 2.31  50 2.35  81 2.65
  57  0.273  0.902  0.586-   2 1.49  20 2.28  50 2.40  11 2.46   6 3.10
  58  0.813  0.811  0.347-  23 2.36
  59  0.621  0.162  0.575-  35 2.31  48 2.45  15 2.51  37 2.69
  60  0.859  0.153  0.618-  12 2.33  72 2.36  93 2.52  48 3.09
  61  0.876  0.631  0.592-  88 2.29  39 2.30  71 2.33
  62  0.854  0.128  0.490-  35 2.26  12 2.28  49 2.36  91 2.47
  63  0.580  0.246  0.402-  87 2.33   4 2.37  75 2.39
  64  0.098  0.394  0.586-  41 2.37  30 2.38  69 2.51
  65  0.971  0.280  0.399-  91 2.23  92 2.34  74 2.43
  66  0.665  0.944  0.412-  94 2.28  67 2.34  83 2.39  23 2.48
  67  0.549  0.846  0.385-  66 2.34  26 2.35  81 2.48
  68  0.238  0.746  0.361-  43 2.22  86 2.27
  69  0.007  0.295  0.532-  36 2.20  74 2.28  12 2.37  64 2.51
  70  0.708  0.955  0.553-  93 2.28  21 2.34  35 2.39  77 2.42  94 3.12
  71  0.802  0.769  0.609-  77 2.32  61 2.33  19 2.36  54 2.40
  72  0.790  0.299  0.621-  48 2.30  22 2.32  60 2.36
  73  0.971  0.910  0.540-  34 2.36  19 2.38  79 2.43  49 2.49
  74  0.080  0.304  0.462-  14 2.27  69 2.28  10 2.34  65 2.43
  75  0.453  0.347  0.389-  47 2.29  18 2.35   7 2.36  63 2.39  80 3.12
  76  0.859  0.757  0.465-  23 2.21  79 2.29  78 2.37  77 2.47
  77  0.767  0.805  0.533-  24 2.25  71 2.32  70 2.42  76 2.47
  78  0.824  0.604  0.442-  76 2.37   8 2.38  31 2.40  84 2.43
  79  0.995  0.759  0.505-  76 2.29  39 2.30  73 2.43  55 2.51
  80  0.269  0.457  0.382-   1 1.67  17 2.27   7 2.39  75 3.12
  81  0.398  0.909  0.407-  43 2.44  45 2.45  67 2.48  56 2.65
  82  0.002  0.988  0.405-  49 2.38  53 2.41  92 2.51  23 3.11
  83  0.720  0.033  0.348-  66 2.39
  84  0.661  0.626  0.456-  33 2.27  24 2.33  78 2.43  26 2.46
  85  0.369  0.536  0.570-   9 2.33  32 2.36   5 2.38  28 2.39
  86  0.220  0.670  0.430-  68 2.27  17 2.28  27 2.32  55 2.43
  87  0.712  0.327  0.424-  91 2.27  90 2.32  63 2.33  13 2.50
  88  0.754  0.532  0.599-  40 2.25  61 2.29  22 2.32
  89  0.303  0.287  0.501-  10 2.26  29 2.30   7 2.42  41 2.44
  90  0.661  0.376  0.497-  15 2.29  22 2.30  33 2.30  87 2.32
  91  0.853  0.277  0.448-  65 2.23  87 2.27  36 2.27  62 2.47
  92  0.986  0.137  0.362-  65 2.34  82 2.51
  93  0.777  1.000  0.621-  70 2.28  19 2.37  60 2.52
  94  0.599  0.031  0.468-   4 2.25  66 2.28  21 2.32  35 2.35  70 3.12

  LATTYP: Found a simple tetragonal cell.
 ALAT       =    14.5272655361
 C/A-ratio  =     1.9832291169
  
  Lattice vectors:
  
 A1 = (  14.5272655361,   0.0000000000,   0.0000000000)
 A2 = (   0.0000000000,  14.5272655361,   0.0000000000)
 A3 = (   0.0000000000,   0.0000000000,  28.8108960000)


Analysis of symmetry for initial positions (statically):
=====================================================================
 Subroutine PRICEL returns:
 Original cell was already a primitive cell.
 

 Routine SETGRP: Setting up the symmetry group for a 
 simple tetragonal supercell.


 Subroutine GETGRP returns: Found  1 space group operations
 (whereof  1 operations were pure point group operations)
 out of a pool of 16 trial point group operations.


The static configuration has the point symmetry C_1 .


Analysis of symmetry for dynamics (positions and initial velocities):
=====================================================================
 Subroutine PRICEL returns:
 Original cell was already a primitive cell.
 

 Routine SETGRP: Setting up the symmetry group for a 
 simple tetragonal supercell.


 Subroutine GETGRP returns: Found  1 space group operations
 (whereof  1 operations were pure point group operations)
 out of a pool of 16 trial point group operations.


The dynamic configuration has the point symmetry C_1 .


 Subroutine INISYM returns: Found  1 space group operations
 (whereof  1 operations are pure point group operations),
 and found     1 'primitive' translations


----------------------------------------------------------------------------------------

                                     Primitive cell                                     

  volume of cell :    6080.2931

  direct lattice vectors                    reciprocal lattice vectors
    14.527265536  0.000000000  0.000000000     0.068836079  0.000000000  0.000000000
     0.000000000 14.527265536  0.000000000     0.000000000  0.068836079  0.000000000
     0.000000000  0.000000000 28.810896000     0.000000000  0.000000000  0.034709091

  length of vectors
    14.527265536 14.527265536 28.810896000     0.068836079  0.068836079  0.034709091

  position of ions in fractional coordinates (direct lattice)
     0.337205236  0.529316407  0.352656544
     0.181964733  0.902489183  0.609131212
     0.138401132  0.480026333  0.511189447
     0.493207754  0.132578977  0.442428309
     0.419016916  0.526209835  0.491840170
     0.269370722  0.721395226  0.642951403
     0.354725395  0.404151765  0.447423641
     0.933196958  0.511286173  0.481408700
     0.340105300  0.396382925  0.607824068
     0.200408672  0.198102664  0.461961544
     0.362289103  0.848260120  0.652909094
     0.950770809  0.147066218  0.551533906
     0.686681191  0.447402161  0.363745439
     0.089773261  0.460391530  0.466025979
     0.553024930  0.307909289  0.543289455
     0.463267501  0.616369266  0.378448348
     0.145670222  0.540240005  0.405784881
     0.528844880  0.478670262  0.360291884
     0.902564902  0.896266401  0.614476412
     0.292641446  0.046833384  0.556800316
     0.550987382  0.957138146  0.535451796
     0.759674969  0.394120283  0.558503838
     0.821358980  0.877109320  0.421874974
     0.639670279  0.722228142  0.519438063
     0.452730762  0.108058189  0.650214280
     0.600828833  0.692215612  0.383278465
     0.376852064  0.657601389  0.443918370
     0.496935916  0.602140849  0.610573028
     0.440018115  0.209845411  0.510833679
     0.112095425  0.557659663  0.586217312
     0.802477243  0.547075427  0.364171354
     0.249396556  0.645009894  0.574115987
     0.583235708  0.514147000  0.494527001
     0.071449097  0.037161570  0.546684352
     0.709789463  0.102299362  0.515634640
     0.883304567  0.370311948  0.509303355
     0.452915931  0.089254925  0.562600205
     0.188394023  0.139683548  0.597848675
     0.987660063  0.613900116  0.536146325
     0.629863891  0.589957551  0.562647410
     0.227886658  0.297473051  0.576135015
     0.498263764  0.366030344  0.614023111
     0.258813332  0.898021721  0.359618319
     0.506740927  0.809457222  0.533458800
     0.395136992  0.073807421  0.389054405
     0.493862385  0.763151191  0.610740325
     0.345243913  0.265654950  0.347552225
     0.668706714  0.217630771  0.651733497
     0.898359018  0.977355302  0.469387207
     0.257069714  0.783210025  0.528003572
     0.252560951  0.152500826  0.386458859
     0.188079442  0.045970592  0.489995729
     0.157247074  0.944795837  0.425748161
     0.655963779  0.779017908  0.647652749
     0.147256206  0.799290133  0.468930088
     0.387631794  0.799042323  0.480393807
     0.273441687  0.901573663  0.585559921
     0.813318926  0.811391516  0.347090906
     0.621079719  0.162320293  0.574890347
     0.859349612  0.152586183  0.617778288
     0.876090546  0.631101564  0.591964443
     0.854407181  0.128364144  0.489721528
     0.580135331  0.245923088  0.402334103
     0.097970261  0.394199444  0.586320051
     0.970891594  0.279985245  0.398783016
     0.665193321  0.943956037  0.411914853
     0.549439947  0.845534211  0.384812607
     0.238378654  0.746293236  0.361309277
     0.006921330  0.294943325  0.531660175
     0.707917121  0.955348408  0.553263807
     0.802236317  0.769002258  0.609039580
     0.790362093  0.299286882  0.621325210
     0.971304611  0.909799574  0.539713378
     0.079686022  0.304395207  0.461520391
     0.452924192  0.347194728  0.388712520
     0.859301427  0.756508510  0.464830597
     0.767453446  0.805134316  0.532613980
     0.823837079  0.603989097  0.441559888
     0.995025524  0.759296371  0.504990057
     0.268979733  0.457074319  0.382058094
     0.397557956  0.909228235  0.407311734
     0.001784011  0.987611878  0.405378437
     0.720107991  0.032680548  0.347653818
     0.660507649  0.625786042  0.455854827
     0.369116954  0.535705772  0.570224751
     0.220053113  0.670421421  0.429586293
     0.711820127  0.326683641  0.424419150
     0.754209385  0.532422979  0.598755624
     0.302829186  0.286621731  0.500686129
     0.660746510  0.375851876  0.496691807
     0.852651861  0.276707271  0.447921370
     0.986193855  0.136853697  0.361992942
     0.777324540  0.999885351  0.620645259
     0.598776830  0.031307681  0.468327885

  ion indices of the primitive-cell ions
   primitive index   ion index
                 1           1
                 2           2
                 3           3
                 4           4
                 5           5
                 6           6
                 7           7
                 8           8
                 9           9
                10          10
                11          11
                12          12
                13          13
                14          14
                15          15
                16          16
                17          17
                18          18
                19          19
                20          20
                21          21
                22          22
                23          23
                24          24
                25          25
                26          26
                27          27
                28          28
                29          29
                30          30
                31          31
                32          32
                33          33
                34          34
                35          35
                36          36
                37          37
                38          38
                39          39
                40          40
                41          41
                42          42
                43          43
                44          44
                45          45
                46          46
                47          47
                48          48
                49          49
                50          50
                51          51
                52          52
                53          53
                54          54
                55          55
                56          56
                57          57
                58          58
                59          59
                60          60
                61          61
                62          62
                63          63
                64          64
                65          65
                66          66
                67          67
                68          68
                69          69
                70          70
                71          71
                72          72
                73          73
                74          74
                75          75
                76          76
                77          77
                78          78
                79          79
                80          80
                81          81
                82          82
                83          83
                84          84
                85          85
                86          86
                87          87
                88          88
                89          89
                90          90
                91          91
                92          92
                93          93
                94          94

----------------------------------------------------------------------------------------


 -----------------------------------------------------------------------------
|                                                                             |
|           W    W    AA    RRRRR   N    N  II  N    N   GGGG   !!!           |
|           W    W   A  A   R    R  NN   N  II  NN   N  G    G  !!!           |
|           W    W  A    A  R    R  N N  N  II  N N  N  G       !!!           |
|           W WW W  AAAAAA  RRRRR   N  N N  II  N  N N  G  GGG   !            |
|           WW  WW  A    A  R   R   N   NN  II  N   NN  G    G                |
|           W    W  A    A  R    R  N    N  II  N    N   GGGG   !!!           |
|                                                                             |
|     The requested file  could not be found or opened for reading            |
|     k-point information. Automatic k-point generation is used as a          |
|     fallback, which may lead to unwanted results.                           |
|                                                                             |
 -----------------------------------------------------------------------------



Automatic generation of k-mesh.
 Grid dimensions derived from KSPACING:
 generate k-points for:    2    2    1

 Generating k-lattice:

  Cartesian coordinates                     Fractional coordinates (reciprocal lattice)
     0.034418040  0.000000000  0.000000000     0.500000000  0.000000000  0.000000000
     0.000000000  0.034418040  0.000000000     0.000000000  0.500000000  0.000000000
     0.000000000  0.000000000  0.034709091     0.000000000  0.000000000  1.000000000

  Length of vectors
     0.034418040  0.034418040  0.034709091

  Shift w.r.t. Gamma in fractional coordinates (k-lattice)
     0.000000000  0.000000000  0.000000000

 
 Subroutine IBZKPT returns following result:
 ===========================================
 
 Found      4 irreducible k-points:
 
 Following reciprocal coordinates:
            Coordinates               Weight
  0.000000  0.000000  0.000000      1.000000
  0.500000  0.000000  0.000000      1.000000
  0.000000  0.500000  0.000000      1.000000
  0.500000  0.500000  0.000000      1.000000
 
 Following cartesian coordinates:
            Coordinates               Weight
  0.000000  0.000000  0.000000      1.000000
  0.034418  0.000000  0.000000      1.000000
  0.000000  0.034418  0.000000      1.000000
  0.034418  0.034418  0.000000      1.000000
 


--------------------------------------------------------------------------------------------------------




 Dimension of arrays:
   k-points           NKPTS =      4   k-points in BZ     NKDIM =      4   number of bands    NBANDS=    232
   number of dos      NEDOS =   2000   number of ions     NIONS =     94
   non local maximal  LDIM  =      4   non local SUM 2l+1 LMDIM =      8
   total plane-waves  NPLWV = ******
   max r-space proj   IRMAX =      1   max aug-charges    IRDMAX= 417331
   dimension x,y,z NGX =   168 NGY =  168 NGZ =  336
   dimension x,y,z NGXF=   336 NGYF=  336 NGZF=  672
   support grid    NGXF=   672 NGYF=  672 NGZF= 1344
   ions per type =               3  91
   NGX,Y,Z   is equivalent  to a cutoff of  19.23, 19.23, 19.39 a.u.
   NGXF,Y,Z  is equivalent  to a cutoff of  38.45, 38.45, 38.78 a.u.

 SYSTEM =  a-Si SPC                                
 POSCAR =   H Si                                   

 Startparameter for this run:
   NWRITE =      2    write-flag & timer
   PREC   = accura    normal or accurate (medium, high low for compatibility)
   ISTART =      1    job   : 0-new  1-cont  2-samecut
   ICHARG =      1    charge: 1-file 2-atom 10-const
   ISPIN  =      1    spin polarized calculation?
   LNONCOLLINEAR =      F non collinear calculations
   LSORBIT =      F    spin-orbit coupling
   INIWAV =      1    electr: 0-lowe 1-rand  2-diag
   LASPH  =      T    aspherical Exc in radial PAW
 Electronic Relaxation 1
   ENCUT  = 1200.0 eV  88.20 Ry    9.39 a.u.  41.03 41.03 81.38*2*pi/ulx,y,z
   ENINI  = 1200.0     initial cutoff
   ENAUG  =  400.0 eV  augmentation charge cutoff
   NELM   =    150;   NELMIN=  2; NELMDL=  0     # of ELM steps 
   EDIFF  = 0.1E-05   stopping-criterion for ELM
   LREAL  =      F    real-space projection
   NLSPLINE    = F    spline interpolate recip. space projectors
   LCOMPAT=      F    compatible to vasp.4.4
   GGA_COMPAT  = T    GGA compatible to vasp.4.4-vasp.4.6
   LMAXPAW     = -100 max onsite density
   LMAXMIX     =    2 max onsite mixed and CHGCAR
   VOSKOWN=      0    Vosko Wilk Nusair interpolation
   ROPT   =    0.00000   0.00000
 Ionic relaxation
   EDIFFG = -.1E-01   stopping-criterion for IOM
   NSW    =      0    number of steps for IOM
   NBLOCK =      1;   KBLOCK =      1    inner block; outer block 
   IBRION =     -1    ionic relax: 0-MD 1-quasi-New 2-CG
   NFREE  =      0    steps in history (QN), initial steepest desc. (CG)
   ISIF   =      2    stress and relaxation
   IWAVPR =     10    prediction:  0-non 1-charg 2-wave 3-comb
   ISYM   =      1    0-nonsym 1-usesym 2-fastsym
   LCORR  =      T    Harris-Foulkes like correction to forces

   POTIM  = 0.5000    time-step for ionic-motion
   TEIN   =    0.0    initial temperature
   TEBEG  =    0.0;   TEEND  =   0.0 temperature during run
   SMASS  =  -3.00    Nose mass-parameter (am)
   estimated Nose-frequenzy (Omega)   =  0.10E-29 period in steps = 0.13E+47 mass=  -0.482E-26a.u.
   SCALEE = 1.0000    scale energy and forces
   NPACO  =    256;   APACO  = 10.0  distance and # of slots for P.C.
   PSTRESS=    0.0 pullay stress

  Mass of Ions in am
   POMASS =   1.00 28.09
  Ionic Valenz
   ZVAL   =   1.00  4.00
  Atomic Wigner-Seitz radii
   RWIGS  =  -1.00 -1.00
  virtual crystal weights 
   VCA    =   1.00  1.00
   NELECT =     367.0000    total number of electrons
   NUPDOWN=      -1.0000    fix difference up-down

 DOS related values:
   EMIN   =  10.00;   EMAX   =-10.00  energy-range for DOS
   EFERMI =   0.00;   METHOD = LEGACY      
   ISMEAR =     0;   SIGMA  =   0.10  broadening in eV -4-tet -1-fermi 0-gaus
   EFERMI_NEDOS =   21; number of points for ismear=-14 and -15

 Electronic relaxation 2 (details)
   IALGO  =     38    algorithm
   LDIAG  =      F    sub-space diagonalisation (order eigenvalues)
   LSUBROT=      F    optimize rotation matrix (better conditioning)
   TURBO    =      0    0=normal 1=particle mesh
   IRESTART =      0    0=no restart 2=restart with 2 vectors
   NREBOOT  =      0    no. of reboots
   NMIN     =      0    reboot dimension
   EREF     =   0.00    reference energy to select bands
   IMIX   =      4    mixing-type and parameters
     AMIX     =   0.40;   BMIX     =  1.00
     AMIX_MAG =   1.60;   BMIX_MAG =  1.00
     AMIN     =   0.10
     WC   =   100.;   INIMIX=   1;  MIXPRE=   1;  MAXMIX= -45

 Intra band minimization:
   WEIMIN = 0.0000     energy-eigenvalue tresh-hold
   EBREAK =  0.11E-08  absolut break condition
   DEPER  =   0.30     relativ break condition  

   TIME   =   0.40     timestep for ELM

  volume/ion in A,a.u.               =      64.68       436.51
  Fermi-wavevector in a.u.,A,eV,Ry     =   0.642178  1.213540  5.610940  0.412392
  Thomas-Fermi vector in A             =   1.708762

 Write flags
   LWAVE        =      F    write WAVECAR
   LDOWNSAMPLE  =      F    k-point downsampling of WAVECAR
   LCHARG       =      F    write CHGCAR
   LVTOT        =      F    write LOCPOT, total local potential
   LVHAR        =      F    write LOCPOT, Hartree potential only
   WRT_POTENTIAL= false  ! write potential to hdf5 file
   LELF         =      F    write electronic localiz. function (ELF)
   LORBIT       =     11    0 simple, 1 ext, 2 COOP (PROOUT), +10 PAW based schemes


 Python interface
   PLUGINS active      =      F    recompile with -DPLUGINS to activate

 Dipole corrections
   LMONO      =      F    monopole corrections only (constant potential shift)
   LDIPOL     =      F    correct potential (dipole corrections)
   IDIPOL     =      0    1-x, 2-y, 3-z, 4-all directions 
   EPSILON    =  1.0000000 bulk dielectric constant
   LVACPOTAV  =      F  vacuum potentials using an averaging scheme for the charge density
   VACPOTFLAT =  0.1000000 required flatness to determine vacuum potential

Coulomb truncation method
  LTRUNCATE          =      F  Coulomb kernel truncation to be used
  IDIMENSIONALITY    =      3  Dimensionality of cutoff (0 molecules / 2 surfaces)
  ISURFACE           =     -1  Direction of surface normal
  LCOARSEN           =      F  Coarsen the charge grid before padding, preferred


 Exchange correlation treatment:
   METAGGA = SCAN    functional components
   XC_C    = 1    coefficients multiplying the functional components
   LIBXC   =     F    Libxc                    
   VOSKOWN =     0    Vosko Wilk Nusair interpolation
   LHFCALC =     F    Hartree Fock is set to
   LHFONE  =     F    Hartree Fock one center treatment
   AEXX    =    0.0000 exact exchange contribution

 Parameters of functionals:
   SCAN:
     P1 =  0.000000E+00
     P2 =  0.000000E+00
     P3 =  0.000000E+00

 Accuracy and mixing parameters for tau-dependent meta-GGA functionals:
   LMAXTAU = 6
   LMIXTAU = T

 Van der Waals corrections
   IVDW    =     0    specifies the selected vdW correction

 Linear response parameters
   LEPSILON=     F    determine dielectric tensor
   LRPA    =     F    only Hartree local field effects (RPA)
   LNABLA  =     F    use nabla operator in PAW spheres
   LVEL    =     F    velocity operator in full k-point grid
   CSHIFT  =0.1000    complex shift for real part using Kramers Kronig
   OMEGAMAX=  -1.0    maximum frequency
   DEG_THRESHOLD= 0.2000000E-02 threshold for treating states as degnerate
   RTIME   =   -0.100 relaxation time in fs
  (WPLASMAI=    0.000 imaginary part of plasma frequency in eV, 0.658/RTIME)
   DFIELD  = 0.0000000 0.0000000 0.0000000 field for delta impulse in time

  Optional k-point grid parameters
   LKPOINTS_OPT  =     F    use optional k-point grid
   KPOINTS_OPT_MODE=     1    mode for optional k-point grid

 Orbital magnetization related:
   ORBITALMAG=     F  switch on orbital magnetization
   LCHIMAG   =     F  perturbation theory with respect to B field
   DQ        =  0.001000  dq finite difference perturbation B field
   LLRAUG    =     F  two centre corrections for induced B field
   LBONE     =     F  B-component reconstruction in AE one-centre
   LVGVCALC  =     T  calculate vGv susceptibility
   LVGVAPPL  =     F  apply vGv susceptibility instead of pGv for G=0

 Random number generation:
   RANDOM_GENERATOR = DEFAULT
   PCG_SEED         = not used


--------------------------------------------------------------------------------------------------------


 Static calculation
 charge density and potential will be updated during run
 non-spin polarized calculation
 Variant of blocked Davidson
 perform Loewdin sub-space diagonalisation
    ordering is kept fixed
    before iterative eigenvector-optimisation
 modified Broyden-mixing scheme, WC =      100.0
 initial mixing is a Kerker type mixing with AMIX =  0.4000 and BMIX =      1.0000
 Hartree-type preconditioning will be used
 using additional bands           48
 reciprocal scheme for non local part
 use partial core corrections
 calculate Harris-corrections to forces   (improved forces if not selfconsistent)
 use gradient corrections 
 use of overlap-Matrix (Vanderbilt PP)
 Gauss-broadening in eV      SIGMA  =   0.10


--------------------------------------------------------------------------------------------------------


  energy-cutoff  :     1200.00
  volume of cell :     6080.29
      direct lattice vectors                 reciprocal lattice vectors
    14.527265536  0.000000000  0.000000000     0.068836079  0.000000000  0.000000000
     0.000000000 14.527265536  0.000000000     0.000000000  0.068836079  0.000000000
     0.000000000  0.000000000 28.810896000     0.000000000  0.000000000  0.034709091

  length of vectors
    14.527265536 14.527265536 28.810896000     0.068836079  0.068836079  0.034709091



 old parameters found on file WAVECAR:
  energy-cutoff  :     1200.00
  volume of cell :     6080.29
      direct lattice vectors                 reciprocal lattice vectors
    14.527265536  0.000000000  0.000000000     0.068836079  0.000000000  0.000000000
     0.000000000 14.527265536  0.000000000     0.000000000  0.068836079  0.000000000
     0.000000000  0.000000000 28.810896000     0.000000000  0.000000000  0.034709091

  length of vectors


 k-points in units of 2pi/SCALE and weight: read from INCAR                         
   0.00000000  0.00000000  0.00000000       0.250
   0.03441804  0.00000000  0.00000000       0.250
   0.00000000  0.03441804  0.00000000       0.250
   0.03441804  0.03441804  0.00000000       0.250

 k-points in reciprocal lattice and weights: read from INCAR                         
   0.00000000  0.00000000  0.00000000       0.250
   0.50000000  0.00000000  0.00000000       0.250
   0.00000000  0.50000000  0.00000000       0.250
   0.50000000  0.50000000  0.00000000       0.250

 position of ions in fractional coordinates (direct lattice) 
   0.33720524  0.52931641  0.35265654
   0.18196473  0.90248918  0.60913121
   0.13840113  0.48002633  0.51118945
   0.49320775  0.13257898  0.44242831
   0.41901692  0.52620983  0.49184017
   0.26937072  0.72139523  0.64295140
   0.35472539  0.40415176  0.44742364
   0.93319696  0.51128617  0.48140870
   0.34010530  0.39638292  0.60782407
   0.20040867  0.19810266  0.46196154
   0.36228910  0.84826012  0.65290909
   0.95077081  0.14706622  0.55153391
   0.68668119  0.44740216  0.36374544
   0.08977326  0.46039153  0.46602598
   0.55302493  0.30790929  0.54328946
   0.46326750  0.61636927  0.37844835
   0.14567022  0.54024000  0.40578488
   0.52884488  0.47867026  0.36029188
   0.90256490  0.89626640  0.61447641
   0.29264145  0.04683338  0.55680032
   0.55098738  0.95713815  0.53545180
   0.75967497  0.39412028  0.55850384
   0.82135898  0.87710932  0.42187497
   0.63967028  0.72222814  0.51943806
   0.45273076  0.10805819  0.65021428
   0.60082883  0.69221561  0.38327847
   0.37685206  0.65760139  0.44391837
   0.49693592  0.60214085  0.61057303
   0.44001812  0.20984541  0.51083368
   0.11209542  0.55765966  0.58621731
   0.80247724  0.54707543  0.36417135
   0.24939656  0.64500989  0.57411599
   0.58323571  0.51414700  0.49452700
   0.07144910  0.03716157  0.54668435
   0.70978946  0.10229936  0.51563464
   0.88330457  0.37031195  0.50930336
   0.45291593  0.08925493  0.56260021
   0.18839402  0.13968355  0.59784868
   0.98766006  0.61390012  0.53614632
   0.62986389  0.58995755  0.56264741
   0.22788666  0.29747305  0.57613502
   0.49826376  0.36603034  0.61402311
   0.25881333  0.89802172  0.35961832
   0.50674093  0.80945722  0.53345880
   0.39513699  0.07380742  0.38905440
   0.49386238  0.76315119  0.61074033
   0.34524391  0.26565495  0.34755222
   0.66870671  0.21763077  0.65173350
   0.89835902  0.97735530  0.46938721
   0.25706971  0.78321002  0.52800357
   0.25256095  0.15250083  0.38645886
   0.18807944  0.04597059  0.48999573
   0.15724707  0.94479584  0.42574816
   0.65596378  0.77901791  0.64765275
   0.14725621  0.79929013  0.46893009
   0.38763179  0.79904232  0.48039381
   0.27344169  0.90157366  0.58555992
   0.81331893  0.81139152  0.34709091
   0.62107972  0.16232029  0.57489035
   0.85934961  0.15258618  0.61777829
   0.87609055  0.63110156  0.59196444
   0.85440718  0.12836414  0.48972153
   0.58013533  0.24592309  0.40233410
   0.09797026  0.39419944  0.58632005
   0.97089159  0.27998524  0.39878302
   0.66519332  0.94395604  0.41191485
   0.54943995  0.84553421  0.38481261
   0.23837865  0.74629324  0.36130928
   0.00692133  0.29494332  0.53166017
   0.70791712  0.95534841  0.55326381
   0.80223632  0.76900226  0.60903958
   0.79036209  0.29928688  0.62132521
   0.97130461  0.90979957  0.53971338
   0.07968602  0.30439521  0.46152039
   0.45292419  0.34719473  0.38871252
   0.85930143  0.75650851  0.46483060
   0.76745345  0.80513432  0.53261398
   0.82383708  0.60398910  0.44155989
   0.99502552  0.75929637  0.50499006
   0.26897973  0.45707432  0.38205809
   0.39755796  0.90922823  0.40731173
   0.00178401  0.98761188  0.40537844
   0.72010799  0.03268055  0.34765382
   0.66050765  0.62578604  0.45585483
   0.36911695  0.53570577  0.57022475
   0.22005311  0.67042142  0.42958629
   0.71182013  0.32668364  0.42441915
   0.75420938  0.53242298  0.59875562
   0.30282919  0.28662173  0.50068613
   0.66074651  0.37585188  0.49669181
   0.85265186  0.27670727  0.44792137
   0.98619385  0.13685370  0.36199294
   0.77732454  0.99988535  0.62064526
   0.59877683  0.03130768  0.46832789

 position of ions in cartesian coordinates  (Angst):
   4.89867000  7.68952000 10.16035100
   2.64345000 13.11070000 17.54961600
   2.01059000  6.97347000 14.72782600
   7.16496000  1.92601000 12.74675600
   6.08717000  7.64439000 14.17035600
   3.91322000 10.47990000 18.52400600
   5.15319000  5.87122000 12.89067600
  13.55680000  7.42759000 13.86981600
   4.94080000  5.75836000 17.51195600
   2.91139000  2.87789000 13.30952600
   5.26307000 12.32290000 18.81089600
  13.81210000  2.13647000 15.89018600
   9.97560000  6.49953000 10.47983200
   1.30416000  6.68823000 13.42662600
   8.03394000  4.47308000 15.65265600
   6.73001000  8.95416000 10.90343600
   2.11619000  7.84821000 11.69102600
   7.68267000  6.95377000 10.38033200
  13.11180000 13.02030000 17.70361600
   4.25128000  0.68036100 16.04191600
   8.00434000 13.90460000 15.42684600
  11.03600000  5.72549000 16.09099600
  11.93210000 12.74200000 12.15459600
   9.29266000 10.49200000 14.96547600
   6.57694000  1.56979000 18.73325600
   8.72840000 10.05600000 11.04259600
   5.47463000  9.55315000 12.78968600
   7.21912000  8.74746000 17.59115600
   6.39226000  3.04848000 14.71757600
   1.62844000  8.10127000 16.88944600
  11.65780000  7.94751000 10.49210300
   3.62305000  9.37023000 16.54079600
   8.47282000  7.46915000 14.24776600
   1.03796000  0.53985600 15.75046600
  10.31130000  1.48613000 14.85589600
  12.83200000  5.37962000 14.67348600
   6.57963000  1.29663000 16.20901600
   2.73685000  2.02922000 17.22455600
  14.34800000  8.91829000 15.44685600
   9.15020000  8.57047000 16.21037600
   3.31057000  4.32147000 16.59896600
   7.23841000  5.31742000 17.69055600
   3.75985000 13.04580000 10.36092600
   7.36156000 11.75920000 15.36942600
   5.74026000  1.07222000 11.20900600
   7.17447000 11.08650000 17.59597600
   5.01545000  3.85924000 10.01329100
   9.71448000  3.16158000 18.77702600
  13.05070000 14.19830000 13.52346600
   3.73452000 11.37790000 15.21225600
   3.66902000  2.21542000 11.13422600
   2.73228000  0.66782700 14.11721600
   2.28437000 13.72530000 12.26618600
   9.52936000 11.31700000 18.65945600
   2.13923000 11.61150000 13.51029600
   5.63123000 11.60790000 13.84057600
   3.97236000 13.09740000 16.87050600
  11.81530000 11.78730000 10.00000000
   9.02259000  2.35807000 16.56310600
  12.48400000  2.21666000 17.79874600
  12.72720000  9.16818000 17.05502600
  12.41220000  1.86478000 14.10931600
   8.42778000  3.57259000 11.59160600
   1.42324000  5.72664000 16.89240600
  14.10440000  4.06742000 11.48929600
   9.66344000 13.71310000 11.86763600
   7.98186000 12.28330000 11.08679600
   3.46299000 10.84160000 10.40964400
   0.10054800  4.28472000 15.31760600
  10.28410000 13.87860000 15.94002600
  11.65430000 11.17150000 17.54697600
  11.48180000  4.34782000 17.90093600
  14.11040000 13.21690000 15.54962600
   1.15762000  4.42203000 13.29681600
   6.57975000  5.04379000 11.19915600
  12.48330000 10.99000000 13.39218600
  11.14900000 11.69640000 15.34508600
  11.96810000  8.77431000 12.72173600
  14.45500000 11.03050000 14.54921600
   3.90754000  6.64004000 11.00743600
   5.77543000 13.20860000 11.73501600
   0.02591680 14.34730000 11.67931600
  10.46120000  0.47475900 10.01621800
   9.59537000  9.09096000 13.13358600
   5.36226000  7.78234000 16.42868600
   3.19677000  9.73939000 12.37676600
  10.34080000  4.74582000 12.22789600
  10.95660000  7.73465000 17.25068600
   4.39928000  4.16383000 14.42521600
   9.59884000  5.46010000 14.31013600
  12.38670000  4.01980000 12.90501600
  14.32670000  1.98811000 10.42934100
  11.29240000 14.52560000 17.88134600
   8.69859000  0.45481500 13.49294600



--------------------------------------------------------------------------------------------------------


 k-point     1 :   0.0000 0.0000 0.0000  plane waves:  573635
 k-point     2 :   0.5000 0.0000 0.0000  plane waves:  574074
 k-point     3 :   0.0000 0.5000 0.0000  plane waves:  574074
 k-point     4 :   0.5000 0.5000 0.0000  plane waves:  573948

 maximum and minimum number of plane-waves per node :     35942    35767

 maximum number of plane-waves:    574074
 maximum index in each direction: 
   IXMAX=   41   IYMAX=   41   IZMAX=   81
   IXMIN=  -41   IYMIN=  -41   IZMIN=  -81


 parallel 3D FFT for wavefunctions:
    minimum data exchange during FFTs selected (reduces bandwidth)
 parallel 3D FFT for charge:
    minimum data exchange during FFTs selected (reduces bandwidth)


 total amount of memory used by VASP MPI-rank0   371550. kBytes
=======================================================================

   base                                    :      30000. kBytes
   nonl-proj                               :      72366. kBytes
   fftplans                                :     114270. kBytes
   grid                                    :      88184. kBytes
   one-center                              :         18. kBytes
   wavefun                                 :      66712. kBytes

     INWAV:  cpu time     19.9327: real time     19.9465
 Broyden mixing: mesh for mixing (old mesh)
   NGX = 83   NGY = 83   NGZ =163
  (NGX  =336   NGY  =336   NGZ  =672)
  gives a total of ****** points

 initial charge density was supplied:
 number of electron     366.9999999 magnetization 
 keeping initial charge density in first step


--------------------------------------------------------------------------------------------------------


 Maximum index for augmentation-charges        11575 (set IRDMAX)


--------------------------------------------------------------------------------------------------------


 First call to EWALD:  gamma=   0.097
 Maximum number of real-space cells   3x   3x   2
 Maximum number of reciprocal cells   2x   2x   4

    FEWALD:  cpu time      0.0192: real time      0.0196


--------------------------------------- Ionic step        1  -------------------------------------------




--------------------------------------- Iteration      1(   1)  ---------------------------------------


    POTLOK:  cpu time      2.2986: real time      2.2993
    SETDIJ:  cpu time      1.7118: real time      1.7129
    EDDIAG:  cpu time     40.5711: real time     40.5968
     EDDAV:  cpu time    187.6063: real time    187.7062
       DOS:  cpu time      0.0092: real time      0.0093
    CHARGE:  cpu time     23.8073: real time     23.8277
    MIXING:  cpu time      0.0529: real time      0.0533
    --------------------------------------------
      LOOP:  cpu time    256.0573: real time    256.2055

 eigenvalue-minimisations  :  1856
 total energy-change (2. order) :-0.9100296E+03  (-0.1026997E+01)
 number of electron     366.9999999 magnetization 
 augmentation part      -20.9320395 magnetization 

 Broyden mixing:
  rms(total) = 0.11339E+01    rms(broyden)= 0.11339E+01
  rms(prec ) = 0.11352E+01
  weight for this iteration     100.00

 Free energy of the ion-electron system (eV)
  ---------------------------------------------------
  alpha Z        PSCENC =        46.66619041
  Ewald energy   TEWEN  =     57103.73393298
  -Hartree energ DENC   =    -65421.03813181
  -exchange      EXHF   =         0.00000000
  -V(xc)+E(xc)   XCENC  =      -451.77814459
  PAW double counting   =     31698.35609033   -30790.34041729
  entropy T*S    EENTRO =        -0.28687640
  eigenvalues    EBANDS =     -2511.88937064
  atomic energy  EATOM  =      9416.54714191
  Solvation  Ediel_sol  =         0.00000000
  ---------------------------------------------------
  free energy    TOTEN  =      -910.02958511 eV

  energy without entropy =     -909.74270870  energy(sigma->0) =     -909.88614690


--------------------------------------------------------------------------------------------------------




--------------------------------------- Iteration      1(   2)  ---------------------------------------


    POTLOK:  cpu time      2.2629: real time      2.2880
    SETDIJ:  cpu time      1.7009: real time      1.7022
    EDDIAG:  cpu time     40.4906: real time     40.5133
     EDDAV:  cpu time    187.6890: real time    187.8085
       DOS:  cpu time      0.0052: real time      0.0052
    CHARGE:  cpu time     23.6676: real time     23.6889
    MIXING:  cpu time      0.0460: real time      0.0462
    --------------------------------------------
      LOOP:  cpu time    255.8621: real time    256.0523

 eigenvalue-minimisations  :  1864
 total energy-change (2. order) : 0.6531409E+02  (-0.9743981E+00)
 number of electron     366.9999999 magnetization 
 augmentation part      -20.8545885 magnetization 

 Broyden mixing:
  rms(total) = 0.76513E+00    rms(broyden)= 0.76513E+00
  rms(prec ) = 0.76677E+00
  weight for this iteration     100.00

 eigenvalues of (default mixing * dielectric matrix)
  average eigenvalue GAMMA=   2.6577
  2.6577

 Free energy of the ion-electron system (eV)
  ---------------------------------------------------
  alpha Z        PSCENC =        46.66619041
  Ewald energy   TEWEN  =     57103.73393298
  -Hartree energ DENC   =    -65408.21543692
  -exchange      EXHF   =         0.00000000
  -V(xc)+E(xc)   XCENC  =      -441.41561876
  PAW double counting   =     37858.49401555   -36950.26190741
  entropy T*S    EENTRO =        -0.26779185
  eigenvalues    EBANDS =     -2469.99602506
  atomic energy  EATOM  =      9416.54714191
  Solvation  Ediel_sol  =         0.00000000
  ---------------------------------------------------
  free energy    TOTEN  =      -844.71549917 eV

  energy without entropy =     -844.44770732  energy(sigma->0) =     -844.58160324


--------------------------------------------------------------------------------------------------------




--------------------------------------- Iteration      1(   3)  ---------------------------------------


    POTLOK:  cpu time      2.2639: real time      2.2949
    SETDIJ:  cpu time      1.6931: real time      1.6946
    EDDIAG:  cpu time     40.5348: real time     40.5632
     EDDAV:  cpu time    187.9174: real time    188.0270
       DOS:  cpu time      0.0027: real time      0.0027
    CHARGE:  cpu time     23.6690: real time     23.6895
    MIXING:  cpu time      0.0432: real time      0.0432
    --------------------------------------------
      LOOP:  cpu time    256.1241: real time    256.3150

 eigenvalue-minimisations  :  1872
 total energy-change (2. order) :-0.2820580E+01  (-0.8565143E+00)
 number of electron     366.9999999 magnetization 
 augmentation part      -20.7832672 magnetization 

 Broyden mixing:
  rms(total) = 0.15493E+00    rms(broyden)= 0.15493E+00
  rms(prec ) = 0.23829E+00
  weight for this iteration     100.00

 eigenvalues of (default mixing * dielectric matrix)
  average eigenvalue GAMMA=   1.7451
  0.8738  2.6164

 Free energy of the ion-electron system (eV)
  ---------------------------------------------------
  alpha Z        PSCENC =        46.66619041
  Ewald energy   TEWEN  =     57103.73393298
  -Hartree energ DENC   =    -65400.94306248
  -exchange      EXHF   =         0.00000000
  -V(xc)+E(xc)   XCENC  =      -444.65855582
  PAW double counting   =     50087.80350866   -49179.82295143
  entropy T*S    EENTRO =        -0.27686493
  eigenvalues    EBANDS =     -2476.58541811
  atomic energy  EATOM  =      9416.54714191
  Solvation  Ediel_sol  =         0.00000000
  ---------------------------------------------------
  free energy    TOTEN  =      -847.53607882 eV

  energy without entropy =     -847.25921389  energy(sigma->0) =     -847.39764636


--------------------------------------------------------------------------------------------------------




--------------------------------------- Iteration      1(   4)  ---------------------------------------


    POTLOK:  cpu time      2.2830: real time      2.2909
    SETDIJ:  cpu time      1.7026: real time      1.7033
    EDDIAG:  cpu time     40.4846: real time     40.5090
     EDDAV:  cpu time    206.5060: real time    206.6205
       DOS:  cpu time      0.0034: real time      0.0034
    CHARGE:  cpu time     23.6622: real time     23.6830
    MIXING:  cpu time      0.0432: real time      0.0432
    --------------------------------------------
      LOOP:  cpu time    274.6851: real time    274.8534

 eigenvalue-minimisations  :  2192
 total energy-change (2. order) :-0.3960800E+00  (-0.1844587E+00)
 number of electron     366.9999999 magnetization 
 augmentation part      -20.7810181 magnetization 

 Broyden mixing:
  rms(total) = 0.17952E+00    rms(broyden)= 0.17952E+00
  rms(prec ) = 0.32820E+00
  weight for this iteration     100.00

 eigenvalues of (default mixing * dielectric matrix)
  average eigenvalue GAMMA=   1.2983
  2.5824  0.9842  0.3284

 Free energy of the ion-electron system (eV)
  ---------------------------------------------------
  alpha Z        PSCENC =        46.66619041
  Ewald energy   TEWEN  =     57103.73393298
  -Hartree energ DENC   =    -65404.92220642
  -exchange      EXHF   =         0.00000000
  -V(xc)+E(xc)   XCENC  =      -447.05859829
  PAW double counting   =     50451.54541095   -49543.53931000
  entropy T*S    EENTRO =        -0.27984304
  eigenvalues    EBANDS =     -2470.62487731
  atomic energy  EATOM  =      9416.54714191
  Solvation  Ediel_sol  =         0.00000000
  ---------------------------------------------------
  free energy    TOTEN  =      -847.93215882 eV

  energy without entropy =     -847.65231578  energy(sigma->0) =     -847.79223730


--------------------------------------------------------------------------------------------------------




--------------------------------------- Iteration      1(   5)  ---------------------------------------


    POTLOK:  cpu time      2.2574: real time      2.2870
    SETDIJ:  cpu time      1.7052: real time      1.7061
    EDDIAG:  cpu time     40.5275: real time     40.5501
     EDDAV:  cpu time    200.5070: real time    200.6142
       DOS:  cpu time      0.0028: real time      0.0031
    CHARGE:  cpu time     23.6413: real time     23.6634
    MIXING:  cpu time      0.0467: real time      0.0467
    --------------------------------------------
      LOOP:  cpu time    268.6880: real time    268.8708

 eigenvalue-minimisations  :  2088
 total energy-change (2. order) : 0.1245108E+00  (-0.7660877E-01)
 number of electron     366.9999999 magnetization 
 augmentation part      -20.7827679 magnetization 

 Broyden mixing:
  rms(total) = 0.94267E-01    rms(broyden)= 0.94267E-01
  rms(prec ) = 0.13451E+00
  weight for this iteration     100.00

 eigenvalues of (default mixing * dielectric matrix)
  average eigenvalue GAMMA=   1.0927
  2.5502  1.0993  0.4658  0.2554

 Free energy of the ion-electron system (eV)
  ---------------------------------------------------
  alpha Z        PSCENC =        46.66619041
  Ewald energy   TEWEN  =     57103.73393298
  -Hartree energ DENC   =    -65406.74631420
  -exchange      EXHF   =         0.00000000
  -V(xc)+E(xc)   XCENC  =      -448.10951274
  PAW double counting   =     50295.91884806   -49387.89513826
  entropy T*S    EENTRO =        -0.26230281
  eigenvalues    EBANDS =     -2467.66049336
  atomic energy  EATOM  =      9416.54714191
  Solvation  Ediel_sol  =         0.00000000
  ---------------------------------------------------
  free energy    TOTEN  =      -847.80764803 eV

  energy without entropy =     -847.54534522  energy(sigma->0) =     -847.67649662


--------------------------------------------------------------------------------------------------------




--------------------------------------- Iteration      1(   6)  ---------------------------------------


    POTLOK:  cpu time      2.2650: real time      2.2934
    SETDIJ:  cpu time      1.7036: real time      1.7044
    EDDIAG:  cpu time     40.5158: real time     40.5400
     EDDAV:  cpu time    192.7158: real time    192.8195
       DOS:  cpu time      0.0021: real time      0.0021
    CHARGE:  cpu time     23.6689: real time     23.6885
    MIXING:  cpu time      0.0445: real time      0.0445
    --------------------------------------------
      LOOP:  cpu time    260.9155: real time    261.0922

 eigenvalue-minimisations  :  1952
 total energy-change (2. order) : 0.1294875E-01  (-0.2563017E-01)
 number of electron     366.9999999 magnetization 
 augmentation part      -20.7837729 magnetization 

 Broyden mixing:
  rms(total) = 0.41970E-01    rms(broyden)= 0.41970E-01
  rms(prec ) = 0.46441E-01
  weight for this iteration     100.00

 eigenvalues of (default mixing * dielectric matrix)
  average eigenvalue GAMMA=   1.0668
  2.4987  1.4059  0.6718  0.5039  0.2539

 Free energy of the ion-electron system (eV)
  ---------------------------------------------------
  alpha Z        PSCENC =        46.66619041
  Ewald energy   TEWEN  =     57103.73393298
  -Hartree energ DENC   =    -65406.93687417
  -exchange      EXHF   =         0.00000000
  -V(xc)+E(xc)   XCENC  =      -448.30439724
  PAW double counting   =     50180.13793690   -49272.10252689
  entropy T*S    EENTRO =        -0.27042651
  eigenvalues    EBANDS =     -2467.26567667
  atomic energy  EATOM  =      9416.54714191
  Solvation  Ediel_sol  =         0.00000000
  ---------------------------------------------------
  free energy    TOTEN  =      -847.79469928 eV

  energy without entropy =     -847.52427278  energy(sigma->0) =     -847.65948603


--------------------------------------------------------------------------------------------------------




--------------------------------------- Iteration      1(   7)  ---------------------------------------


    POTLOK:  cpu time      2.2594: real time      2.2903
    SETDIJ:  cpu time      1.7340: real time      1.7347
    EDDIAG:  cpu time     40.5232: real time     40.5497
     EDDAV:  cpu time    194.0331: real time    194.1374
       DOS:  cpu time      0.0021: real time      0.0021
    CHARGE:  cpu time     23.6550: real time     23.6754
    MIXING:  cpu time      0.0449: real time      0.0449
    --------------------------------------------
      LOOP:  cpu time    262.2517: real time    262.4346

 eigenvalue-minimisations  :  1976
 total energy-change (2. order) : 0.7755093E-03  (-0.4044304E-02)
 number of electron     366.9999999 magnetization 
 augmentation part      -20.7827221 magnetization 

 Broyden mixing:
  rms(total) = 0.28574E-01    rms(broyden)= 0.28574E-01
  rms(prec ) = 0.30486E-01
  weight for this iteration     100.00

 eigenvalues of (default mixing * dielectric matrix)
  average eigenvalue GAMMA=   1.1619
  2.3816  2.3816  0.8556  0.6098  0.4904  0.2524

 Free energy of the ion-electron system (eV)
  ---------------------------------------------------
  alpha Z        PSCENC =        46.66619041
  Ewald energy   TEWEN  =     57103.73393298
  -Hartree energ DENC   =    -65405.38264564
  -exchange      EXHF   =         0.00000000
  -V(xc)+E(xc)   XCENC  =      -448.22800219
  PAW double counting   =     50123.36248481   -49215.31495842
  entropy T*S    EENTRO =        -0.27037925
  eigenvalues    EBANDS =     -2468.90768837
  atomic energy  EATOM  =      9416.54714191
  Solvation  Ediel_sol  =         0.00000000
  ---------------------------------------------------
  free energy    TOTEN  =      -847.79392377 eV

  energy without entropy =     -847.52354452  energy(sigma->0) =     -847.65873415


--------------------------------------------------------------------------------------------------------




--------------------------------------- Iteration      1(   8)  ---------------------------------------


    POTLOK:  cpu time      2.2859: real time      2.2875
    SETDIJ:  cpu time      1.7014: real time      1.7026
    EDDIAG:  cpu time     40.5459: real time     40.5698
     EDDAV:  cpu time    200.3110: real time    200.4210
       DOS:  cpu time      0.0030: real time      0.0030
    CHARGE:  cpu time     23.6652: real time     23.6848
    MIXING:  cpu time      0.0467: real time      0.0467
    --------------------------------------------
      LOOP:  cpu time    268.5590: real time    268.7154

 eigenvalue-minimisations  :  2088
 total energy-change (2. order) :-0.2288591E-02  (-0.1342439E-02)
 number of electron     366.9999999 magnetization 
 augmentation part      -20.7797133 magnetization 

 Broyden mixing:
  rms(total) = 0.15061E-01    rms(broyden)= 0.15061E-01
  rms(prec ) = 0.17304E-01
  weight for this iteration     100.00

 eigenvalues of (default mixing * dielectric matrix)
  average eigenvalue GAMMA=   1.1689
  2.6303  2.6303  0.9423  0.2521  0.6349  0.6349  0.4576

 Free energy of the ion-electron system (eV)
  ---------------------------------------------------
  alpha Z        PSCENC =        46.66619041
  Ewald energy   TEWEN  =     57103.73393298
  -Hartree energ DENC   =    -65404.43310312
  -exchange      EXHF   =         0.00000000
  -V(xc)+E(xc)   XCENC  =      -447.93674669
  PAW double counting   =     50112.77139830   -49204.70770611
  entropy T*S    EENTRO =        -0.27238690
  eigenvalues    EBANDS =     -2470.16493313
  atomic energy  EATOM  =      9416.54714191
  Solvation  Ediel_sol  =         0.00000000
  ---------------------------------------------------
  free energy    TOTEN  =      -847.79621236 eV

  energy without entropy =     -847.52382546  energy(sigma->0) =     -847.66001891


--------------------------------------------------------------------------------------------------------




--------------------------------------- Iteration      1(   9)  ---------------------------------------


    POTLOK:  cpu time      2.2834: real time      2.2861
    SETDIJ:  cpu time      1.7014: real time      1.7020
    EDDIAG:  cpu time     40.5386: real time     40.5632
     EDDAV:  cpu time    196.2613: real time    196.3695
       DOS:  cpu time      0.0021: real time      0.0021
    CHARGE:  cpu time     23.6773: real time     23.6975
    MIXING:  cpu time      0.0491: real time      0.0491
    --------------------------------------------
      LOOP:  cpu time    264.5131: real time    264.6696

 eigenvalue-minimisations  :  2016
 total energy-change (2. order) :-0.9487973E-03  (-0.5605139E-03)
 number of electron     366.9999999 magnetization 
 augmentation part      -20.7787675 magnetization 

 Broyden mixing:
  rms(total) = 0.63865E-02    rms(broyden)= 0.63865E-02
  rms(prec ) = 0.81764E-02
  weight for this iteration     100.00

 eigenvalues of (default mixing * dielectric matrix)
  average eigenvalue GAMMA=   1.1252
  2.6075  2.6075  0.9942  0.9546  0.2519  0.5888  0.5410  0.4563

 Free energy of the ion-electron system (eV)
  ---------------------------------------------------
  alpha Z        PSCENC =        46.66619041
  Ewald energy   TEWEN  =     57103.73393298
  -Hartree energ DENC   =    -65404.05113796
  -exchange      EXHF   =         0.00000000
  -V(xc)+E(xc)   XCENC  =      -447.80793785
  PAW double counting   =     50145.57889685   -49237.50469781
  entropy T*S    EENTRO =        -0.27164180
  eigenvalues    EBANDS =     -2470.68790788
  atomic energy  EATOM  =      9416.54714191
  Solvation  Ediel_sol  =         0.00000000
  ---------------------------------------------------
  free energy    TOTEN  =      -847.79716116 eV

  energy without entropy =     -847.52551936  energy(sigma->0) =     -847.66134026


--------------------------------------------------------------------------------------------------------




--------------------------------------- Iteration      1(  10)  ---------------------------------------


    POTLOK:  cpu time      2.2938: real time      2.2957
    SETDIJ:  cpu time      1.7067: real time      1.7081
    EDDIAG:  cpu time     40.5403: real time     40.5646
     EDDAV:  cpu time    191.2845: real time    191.3856
       DOS:  cpu time      0.0127: real time      0.0130
    CHARGE:  cpu time     23.6525: real time     23.6740
    MIXING:  cpu time      0.0618: real time      0.0619
    --------------------------------------------
      LOOP:  cpu time    259.5524: real time    259.7028

 eigenvalue-minimisations  :  1928
 total energy-change (2. order) : 0.9267672E-04  (-0.2520318E-03)
 number of electron     366.9999999 magnetization 
 augmentation part      -20.7790615 magnetization 

 Broyden mixing:
  rms(total) = 0.30080E-02    rms(broyden)= 0.30079E-02
  rms(prec ) = 0.35556E-02
  weight for this iteration     100.00

 eigenvalues of (default mixing * dielectric matrix)
  average eigenvalue GAMMA=   1.1184
  2.6230  2.6230  1.2864  0.9920  0.6729  0.6729  0.2519  0.4719  0.4719

 Free energy of the ion-electron system (eV)
  ---------------------------------------------------
  alpha Z        PSCENC =        46.66619041
  Ewald energy   TEWEN  =     57103.73393298
  -Hartree energ DENC   =    -65403.94532858
  -exchange      EXHF   =         0.00000000
  -V(xc)+E(xc)   XCENC  =      -447.83930447
  PAW double counting   =     50161.85117666   -49253.77396033
  entropy T*S    EENTRO =        -0.27145236
  eigenvalues    EBANDS =     -2470.76546470
  atomic energy  EATOM  =      9416.54714191
  Solvation  Ediel_sol  =         0.00000000
  ---------------------------------------------------
  free energy    TOTEN  =      -847.79706848 eV

  energy without entropy =     -847.52561613  energy(sigma->0) =     -847.66134231


--------------------------------------------------------------------------------------------------------




--------------------------------------- Iteration      1(  11)  ---------------------------------------


    POTLOK:  cpu time      2.2908: real time      2.2932
    SETDIJ:  cpu time      1.7049: real time      1.7072
    EDDIAG:  cpu time     40.5519: real time     40.5762
     EDDAV:  cpu time    193.7866: real time    193.8892
       DOS:  cpu time      0.0050: real time      0.0050
    CHARGE:  cpu time     23.6542: real time     23.6764
    MIXING:  cpu time      0.0481: real time      0.0481
    --------------------------------------------
      LOOP:  cpu time    262.0415: real time    262.1953

 eigenvalue-minimisations  :  1976
 total energy-change (2. order) : 0.4710193E-05  (-0.6771936E-04)
 number of electron     366.9999999 magnetization 
 augmentation part      -20.7791019 magnetization 

 Broyden mixing:
  rms(total) = 0.19830E-02    rms(broyden)= 0.19830E-02
  rms(prec ) = 0.23904E-02
  weight for this iteration     100.00

 eigenvalues of (default mixing * dielectric matrix)
  average eigenvalue GAMMA=   1.1329
  2.6740  2.6740  1.7484  1.0144  0.7393  0.7393  0.2519  0.5141  0.5141  0.4595

 Free energy of the ion-electron system (eV)
  ---------------------------------------------------
  alpha Z        PSCENC =        46.66619041
  Ewald energy   TEWEN  =     57103.73393298
  -Hartree energ DENC   =    -65403.67112516
  -exchange      EXHF   =         0.00000000
  -V(xc)+E(xc)   XCENC  =      -447.85217320
  PAW double counting   =     50158.42923918   -49250.34977351
  entropy T*S    EENTRO =        -0.27157536
  eigenvalues    EBANDS =     -2471.02892101
  atomic energy  EATOM  =      9416.54714191
  Solvation  Ediel_sol  =         0.00000000
  ---------------------------------------------------
  free energy    TOTEN  =      -847.79706377 eV

  energy without entropy =     -847.52548841  energy(sigma->0) =     -847.66127609


--------------------------------------------------------------------------------------------------------




--------------------------------------- Iteration      1(  12)  ---------------------------------------


    POTLOK:  cpu time      2.2855: real time      2.2867
    SETDIJ:  cpu time      1.7021: real time      1.7034
    EDDIAG:  cpu time     40.5496: real time     40.5744
     EDDAV:  cpu time    193.4710: real time    193.5715
       DOS:  cpu time      0.0049: real time      0.0049
    CHARGE:  cpu time     23.6816: real time     23.7027
    MIXING:  cpu time      0.0490: real time      0.0490
    --------------------------------------------
      LOOP:  cpu time    261.7437: real time    261.8926

 eigenvalue-minimisations  :  1968
 total energy-change (2. order) :-0.6435101E-04  (-0.2273249E-04)
 number of electron     366.9999999 magnetization 
 augmentation part      -20.7792630 magnetization 

 Broyden mixing:
  rms(total) = 0.10695E-02    rms(broyden)= 0.10695E-02
  rms(prec ) = 0.13531E-02
  weight for this iteration     100.00

 eigenvalues of (default mixing * dielectric matrix)
  average eigenvalue GAMMA=   1.1647
  2.8146  2.8146  2.0496  1.0862  0.8390  0.8390  0.2519  0.6670  0.4966  0.4966
  0.4570

 Free energy of the ion-electron system (eV)
  ---------------------------------------------------
  alpha Z        PSCENC =        46.66619041
  Ewald energy   TEWEN  =     57103.73393298
  -Hartree energ DENC   =    -65403.36725937
  -exchange      EXHF   =         0.00000000
  -V(xc)+E(xc)   XCENC  =      -447.86400379
  PAW double counting   =     50154.26320757   -49246.18211960
  entropy T*S    EENTRO =        -0.27155964
  eigenvalues    EBANDS =     -2471.32265859
  atomic energy  EATOM  =      9416.54714191
  Solvation  Ediel_sol  =         0.00000000
  ---------------------------------------------------
  free energy    TOTEN  =      -847.79712813 eV

  energy without entropy =     -847.52556849  energy(sigma->0) =     -847.66134831


--------------------------------------------------------------------------------------------------------




--------------------------------------- Iteration      1(  13)  ---------------------------------------


    POTLOK:  cpu time      2.2580: real time      2.2854
    SETDIJ:  cpu time      1.7060: real time      1.7075
    EDDIAG:  cpu time     40.5557: real time     40.5811
     EDDAV:  cpu time    193.2015: real time    193.3010
       DOS:  cpu time      0.0020: real time      0.0020
    CHARGE:  cpu time     23.6632: real time     23.6837
    MIXING:  cpu time      0.0495: real time      0.0500
    --------------------------------------------
      LOOP:  cpu time    261.4359: real time    261.6108

 eigenvalue-minimisations  :  1960
 total energy-change (2. order) :-0.1198684E-03  (-0.2443850E-04)
 number of electron     366.9999999 magnetization 
 augmentation part      -20.7793715 magnetization 

 Broyden mixing:
  rms(total) = 0.52420E-03    rms(broyden)= 0.52420E-03
  rms(prec ) = 0.75939E-03
  weight for this iteration     100.00

 eigenvalues of (default mixing * dielectric matrix)
  average eigenvalue GAMMA=   1.1709
  2.9000  2.9000  2.1192  1.2841  0.8312  0.8312  0.8340  0.2519  0.6459  0.4980
  0.4980  0.4575

 Free energy of the ion-electron system (eV)
  ---------------------------------------------------
  alpha Z        PSCENC =        46.66619041
  Ewald energy   TEWEN  =     57103.73393298
  -Hartree energ DENC   =    -65402.96678807
  -exchange      EXHF   =         0.00000000
  -V(xc)+E(xc)   XCENC  =      -447.87316127
  PAW double counting   =     50151.03504794   -49242.95296179
  entropy T*S    EENTRO =        -0.27152315
  eigenvalues    EBANDS =     -2471.71512694
  atomic energy  EATOM  =      9416.54714191
  Solvation  Ediel_sol  =         0.00000000
  ---------------------------------------------------
  free energy    TOTEN  =      -847.79724799 eV

  energy without entropy =     -847.52572484  energy(sigma->0) =     -847.66148642


--------------------------------------------------------------------------------------------------------




--------------------------------------- Iteration      1(  14)  ---------------------------------------


    POTLOK:  cpu time      2.2927: real time      2.2942
    SETDIJ:  cpu time      1.7012: real time      1.7022
    EDDIAG:  cpu time     40.5382: real time     40.5625
     EDDAV:  cpu time    190.5347: real time    190.6353
       DOS:  cpu time      0.0048: real time      0.0048
    CHARGE:  cpu time     23.6685: real time     23.6886
    MIXING:  cpu time      0.0512: real time      0.0512
    --------------------------------------------
      LOOP:  cpu time    258.7913: real time    258.9387

 eigenvalue-minimisations  :  1920
 total energy-change (2. order) :-0.1199310E-03  (-0.1574263E-04)
 number of electron     366.9999999 magnetization 
 augmentation part      -20.7794292 magnetization 

 Broyden mixing:
  rms(total) = 0.34921E-03    rms(broyden)= 0.34921E-03
  rms(prec ) = 0.53941E-03
  weight for this iteration     100.00

 eigenvalues of (default mixing * dielectric matrix)
  average eigenvalue GAMMA=   1.1802
  2.9415  2.9415  2.2216  1.4970  0.9615  0.9615  0.8503  0.2519  0.6315  0.6315
  0.4978  0.4978  0.4569

 Free energy of the ion-electron system (eV)
  ---------------------------------------------------
  alpha Z        PSCENC =        46.66619041
  Ewald energy   TEWEN  =     57103.73393298
  -Hartree energ DENC   =    -65402.68024375
  -exchange      EXHF   =         0.00000000
  -V(xc)+E(xc)   XCENC  =      -447.87796693
  PAW double counting   =     50150.38367231   -49242.30152544
  entropy T*S    EENTRO =        -0.27154955
  eigenvalues    EBANDS =     -2471.99701986
  atomic energy  EATOM  =      9416.54714191
  Solvation  Ediel_sol  =         0.00000000
  ---------------------------------------------------
  free energy    TOTEN  =      -847.79736792 eV

  energy without entropy =     -847.52581838  energy(sigma->0) =     -847.66159315


--------------------------------------------------------------------------------------------------------




--------------------------------------- Iteration      1(  15)  ---------------------------------------


    POTLOK:  cpu time      2.2790: real time      2.2970
    SETDIJ:  cpu time      1.7003: real time      1.7012
    EDDIAG:  cpu time     40.5187: real time     40.5425
     EDDAV:  cpu time    190.2487: real time    190.3500
       DOS:  cpu time      0.0020: real time      0.0021
    CHARGE:  cpu time     23.6444: real time     23.6653
    MIXING:  cpu time      0.0514: real time      0.0514
    --------------------------------------------
      LOOP:  cpu time    258.4446: real time    258.6095

 eigenvalue-minimisations  :  1912
 total energy-change (2. order) :-0.1077296E-03  (-0.1291857E-04)
 number of electron     366.9999999 magnetization 
 augmentation part      -20.7794938 magnetization 

 Broyden mixing:
  rms(total) = 0.26614E-03    rms(broyden)= 0.26614E-03
  rms(prec ) = 0.41534E-03
  weight for this iteration     100.00

 eigenvalues of (default mixing * dielectric matrix)
  average eigenvalue GAMMA=   1.1967
  3.1714  2.8560  2.3501  1.7534  1.0594  1.0594  0.2519  0.7843  0.7352  0.7352
  0.5159  0.5159  0.4660  0.5001

 Free energy of the ion-electron system (eV)
  ---------------------------------------------------
  alpha Z        PSCENC =        46.66619041
  Ewald energy   TEWEN  =     57103.73393298
  -Hartree energ DENC   =    -65402.46686863
  -exchange      EXHF   =         0.00000000
  -V(xc)+E(xc)   XCENC  =      -447.88298096
  PAW double counting   =     50150.60357634   -49242.52175491
  entropy T*S    EENTRO =        -0.27155578
  eigenvalues    EBANDS =     -2472.20515701
  atomic energy  EATOM  =      9416.54714191
  Solvation  Ediel_sol  =         0.00000000
  ---------------------------------------------------
  free energy    TOTEN  =      -847.79747565 eV

  energy without entropy =     -847.52591988  energy(sigma->0) =     -847.66169777


--------------------------------------------------------------------------------------------------------




--------------------------------------- Iteration      1(  16)  ---------------------------------------


    POTLOK:  cpu time      2.2580: real time      2.2892
    SETDIJ:  cpu time      1.7050: real time      1.7063
    EDDIAG:  cpu time     40.5658: real time     40.5916
     EDDAV:  cpu time    190.9152: real time    191.0208
       DOS:  cpu time      0.0093: real time      0.0096
    CHARGE:  cpu time     23.6879: real time     23.7089
    MIXING:  cpu time      0.0667: real time      0.0669
    --------------------------------------------
      LOOP:  cpu time    259.2079: real time    259.3933

 eigenvalue-minimisations  :  1920
 total energy-change (2. order) :-0.1018509E-03  (-0.1152577E-04)
 number of electron     366.9999999 magnetization 
[...]
   -.230E+00 -.133E+01 -.370E+03   -.181E-01 0.213E+01 0.377E+03   -.112E+00 -.423E+00 -.611E+01   -.759E-04 -.168E-04 0.952E-04
   0.335E+02 0.356E+01 0.839E+02   -.326E+02 -.330E+01 -.829E+02   -.169E+01 -.777E+00 -.786E+00   0.193E-04 0.929E-05 0.152E-03
   0.587E+01 -.261E+02 0.537E+02   -.599E+01 0.240E+02 -.518E+02   0.434E+00 0.240E+01 -.247E+01   -.397E-04 0.271E-05 0.137E-03
   0.150E+02 -.717E+01 -.231E+03   -.176E+02 0.791E+01 0.231E+03   0.242E+01 -.207E+01 0.331E+00   -.458E-05 -.827E-04 0.126E-03
   -.301E+02 0.164E+02 0.363E+03   0.315E+02 -.181E+02 -.367E+03   -.172E+01 0.219E+01 0.308E+01   0.757E-05 -.217E-04 -.320E-04
   0.458E+01 0.180E+01 -.218E+03   -.274E+01 0.644E+00 0.218E+03   -.188E+01 -.100E+01 0.247E+00   -.827E-04 -.437E-04 -.178E-04
   -.451E+02 -.203E+01 -.332E+03   0.453E+02 0.277E+01 0.330E+03   -.887E+00 -.115E+01 0.122E+01   0.892E-04 0.305E-05 -.270E-05
   -.479E+02 0.177E+02 -.282E+03   0.451E+02 -.172E+02 0.279E+03   0.159E+01 -.492E+00 0.314E+01   0.981E-04 -.141E-04 0.645E-04
   -.106E+02 -.561E+01 0.585E+02   0.102E+02 0.498E+01 -.560E+02   0.363E-01 0.112E+01 -.333E+01   0.359E-04 0.154E-04 -.117E-05
   -.302E+02 0.265E+02 0.274E+03   0.285E+02 -.253E+02 -.273E+03   0.992E+00 -.138E+01 -.114E+01   -.332E-04 0.306E-05 -.146E-04
   0.193E+02 -.587E+01 -.279E+03   -.185E+02 0.394E+01 0.279E+03   -.912E+00 0.128E+01 -.579E+00   0.671E-04 0.691E-04 0.866E-04
   -.100E+02 -.254E+02 0.306E+03   0.955E+01 0.248E+02 -.305E+03   0.172E+01 0.354E+00 -.129E+01   0.217E-04 -.115E-05 0.137E-04
   -.983E+01 -.225E+01 0.231E+03   0.832E+01 0.440E+01 -.233E+03   0.187E+01 -.219E+01 0.135E+01   -.103E-04 -.392E-05 0.634E-04
   0.786E+01 -.961E+01 0.306E+03   -.657E+01 0.806E+01 -.303E+03   -.113E+01 0.144E+01 -.188E+01   -.164E-04 0.152E-04 0.208E-04
   0.350E+02 0.180E+02 0.358E+03   -.342E+02 -.163E+02 -.357E+03   -.641E-01 -.190E+01 -.152E+01   0.938E-06 0.524E-05 0.542E-04
   -.223E+02 0.383E+01 -.134E+03   0.201E+02 -.276E+01 0.131E+03   0.303E+01 -.104E+01 0.494E+01   0.107E-03 0.486E-04 0.712E-04
   -.658E+01 0.831E+01 -.151E+03   0.617E+01 -.708E+01 0.151E+03   0.302E+00 -.134E+01 -.811E+00   -.354E-04 -.266E-04 0.205E-04
   -.299E+02 0.183E+02 -.319E+03   0.300E+02 -.172E+02 0.316E+03   0.173E+00 -.123E+01 0.250E+01   0.290E-04 -.466E-04 0.603E-04
   -.445E+02 -.366E+02 -.329E+03   0.420E+02 0.363E+02 0.330E+03   0.226E+01 -.221E+00 -.883E+00   0.716E-04 0.838E-04 0.591E-05
   -.347E+02 0.114E+02 -.128E+03   0.341E+02 -.112E+02 0.129E+03   0.456E+00 -.565E+00 -.575E+00   0.729E-04 -.997E-05 0.517E-04
   -.107E+02 0.478E+01 0.127E+03   0.998E+01 -.442E+01 -.126E+03   0.642E+00 -.144E+01 -.221E+01   0.348E-04 0.272E-05 0.596E-04
   -.631E+01 0.106E+02 0.275E+03   0.619E+01 -.112E+02 -.275E+03   0.141E+01 0.208E+00 0.192E-02   -.558E-04 -.584E-04 -.218E-04
   -.273E+02 0.203E+02 0.119E+03   0.281E+02 -.182E+02 -.118E+03   -.814E+00 -.295E+01 0.786E+00   0.128E-04 -.107E-04 0.545E-04
   -.234E+02 -.399E+01 -.774E+02   0.204E+02 0.159E+01 0.785E+02   0.339E+01 0.281E+01 -.146E+01   0.910E-05 -.185E-04 0.551E-04
   -.373E+02 0.808E+01 0.171E+03   0.362E+02 -.726E+01 -.172E+03   0.516E+00 -.912E+00 0.383E+00   0.260E-04 -.142E-04 0.603E-04
   -.380E+02 0.709E+01 -.177E+02   0.366E+02 -.707E+01 0.162E+02   0.294E+01 0.127E+01 0.844E+00   0.551E-04 -.338E-04 0.114E-03
   0.439E+02 0.156E+02 0.312E+03   -.451E+02 -.145E+02 -.311E+03   0.220E+01 -.141E+01 -.251E+01   0.253E-04 -.861E-04 0.921E-05
   0.106E+01 -.165E+01 0.225E+03   -.195E+01 0.404E+01 -.226E+03   0.808E+00 -.272E+01 0.443E+00   0.678E-05 0.577E-04 0.630E-04
   -.377E+01 0.110E+02 0.271E+03   0.401E+01 -.971E+01 -.270E+03   0.619E-01 -.358E+00 -.108E+01   0.208E-04 0.303E-04 0.231E-04
   -.153E+02 -.306E+02 0.357E+03   0.161E+02 0.329E+02 -.360E+03   -.637E+00 -.270E+01 0.263E+01   0.141E-04 0.563E-04 -.227E-04
   -.175E+02 -.288E+01 0.138E+03   0.164E+02 0.294E+01 -.134E+03   0.152E+01 0.704E+00 -.424E+01   -.360E-05 -.825E-05 0.591E-04
   0.272E+02 0.842E+01 -.196E+03   -.261E+02 -.819E+01 0.196E+03   -.910E+00 -.233E-01 0.102E-01   -.130E-03 0.549E-04 0.106E-03
   0.448E+02 0.840E+01 0.166E+03   -.446E+02 -.791E+01 -.168E+03   -.111E+01 -.320E+00 0.231E+01   0.121E-04 -.509E-04 0.183E-03
   -.248E+02 0.120E+02 0.224E+03   0.247E+02 -.133E+02 -.223E+03   -.908E+00 0.148E+01 -.261E+01   0.752E-05 -.247E-04 0.527E-05
   -.248E+02 0.150E+02 -.310E+03   0.243E+02 -.140E+02 0.308E+03   0.133E+01 -.120E+01 0.228E+01   0.258E-04 0.292E-04 0.473E-04
   0.132E+02 -.188E+02 -.210E+02   -.137E+02 0.154E+02 0.191E+02   0.568E+00 0.366E+01 0.169E+01   -.469E-04 0.146E-04 0.752E-04
   -.873E+01 0.859E+01 0.186E+02   0.822E+01 -.705E+01 -.174E+02   -.236E+00 -.122E+01 -.113E+01   0.118E-05 0.292E-05 0.164E-04
   0.184E+01 0.145E+02 0.170E+03   -.418E+00 -.119E+02 -.170E+03   -.182E+01 -.358E+01 -.201E+00   0.360E-04 -.391E-05 -.105E-05
   -.571E+00 0.213E+01 0.344E+03   -.622E+00 -.180E+01 -.347E+03   0.130E+01 -.107E+01 0.327E+01   0.257E-04 0.336E-04 -.112E-05
   -.211E+01 -.937E+01 -.347E+03   0.245E+01 0.704E+01 0.345E+03   0.553E+00 0.278E+01 0.326E+01   -.126E-04 -.576E-04 0.265E-04
   -.116E+00 0.939E+00 0.106E+03   -.257E+00 -.108E+01 -.107E+03   0.754E+00 -.298E-01 0.670E+00   -.378E-04 0.596E-05 0.346E-04
 -----------------------------------------------------------------------------------------------
   0.376E+01 0.160E+02 0.151E+02   -.131E-12 0.429E-13 -.568E-13   -.375E+01 -.160E+02 -.152E+02   -.491E-03 -.845E-04 0.468E-02


 POSITION                                       TOTAL-FORCE (eV/Angst)
 -----------------------------------------------------------------------------------
      4.89867      7.68952     10.16035        -0.862062     -1.034303      0.913267
      2.64345     13.11070     17.54962        -0.274071      0.075764     -0.062639
      2.01059      6.97347     14.72783         0.051433      0.200449      0.159348
      7.16496      1.92601     12.74676         0.275699      1.306035      0.116505
      6.08717      7.64439     14.17036         0.003445      0.180618     -0.420346
      3.91322     10.47990     18.52401         0.625227      0.412405      0.265975
      5.15319      5.87122     12.89068        -0.048913      0.055746      0.262459
     13.55680      7.42759     13.86982         0.232238     -0.184531     -0.138059
      4.94080      5.75836     17.51196         0.535620     -0.349257     -0.262323
      2.91139      2.87789     13.30953        -0.151633     -0.189977     -0.776820
      5.26307     12.32290     18.81090         0.865293      0.044277     -0.772545
     13.81210      2.13647     15.89019         0.945752      0.339941      0.260114
      9.97560      6.49953     10.47983        -0.815031     -0.552208      1.182238
      1.30416      6.68823     13.42663        -0.535080      0.426452     -0.364623
      8.03394      4.47308     15.65266        -0.288081     -1.500715      0.078239
      6.73001      8.95416     10.90344         0.236364     -0.023103     -0.513733
      2.11619      7.84821     11.69103         0.067896     -0.104947     -0.236656
      7.68267      6.95377     10.38033        -0.046997     -0.646219      0.615002
     13.11180     13.02030     17.70362        -0.559628      0.205435      0.011837
      4.25128      0.68036     16.04192         0.226128      0.408121     -0.326628
      8.00434     13.90460     15.42685        -0.303228      1.263850      0.370832
     11.03600      5.72549     16.09100         0.816043      0.108952     -0.006030
     11.93210     12.74200     12.15460        -1.079171      0.701871     -1.387017
      9.29266     10.49200     14.96548        -0.522471      0.189976     -0.335482
      6.57694      1.56979     18.73326         0.432249      0.343961     -1.434515
      8.72840     10.05600     11.04260         0.381594      0.702474      0.284607
      5.47463      9.55315     12.78969         0.398704     -0.698475      0.388710
      7.21912      8.74746     17.59116         0.047073     -0.783315     -0.552300
      6.39226      3.04848     14.71758         0.736255      0.342043     -0.287984
      1.62844      8.10127     16.88945        -0.630696     -0.156090     -1.040911
     11.65780      7.94751     10.49210         0.492333      1.335564     -0.288395
      3.62305      9.37023     16.54080        -0.257449     -0.433851     -0.250024
      8.47282      7.46915     14.24777        -0.509806     -0.396593      0.111483
      1.03796      0.53986     15.75047         0.298211      0.832023      0.275370
     10.31130      1.48613     14.85590        -0.540935     -0.584038      0.032441
     12.83200      5.37962     14.67349        -0.889521      1.181351      0.308077
      6.57963      1.29663     16.20902         0.130103     -1.111586      1.283639
      2.73685      2.02922     17.22456         0.121717     -0.397936     -0.217705
     14.34800      8.91829     15.44686         0.824907     -0.446828      1.478954
      9.15020      8.57047     16.21038        -1.185248      0.221277      0.468961
      3.31057      4.32147     16.59897        -0.253569      0.255686      0.193627
      7.23841      5.31742     17.69056         0.176620      0.052225      0.470058
      3.75985     13.04580     10.36093         0.034689      1.121635      0.599489
      7.36156     11.75920     15.36943        -0.135647     -0.830368     -0.174607
      5.74026      1.07222     11.20901        -0.606457     -0.497261     -0.103881
      7.17447     11.08650     17.59598        -0.273542      0.436957      0.892216
      5.01545      3.85924     10.01329        -1.196628      0.201193      0.320204
      9.71448      3.16158     18.77703        -1.108845     -0.490139     -0.120547
     13.05070     14.19830     13.52347         0.836932      0.626544      0.239245
      3.73452     11.37790     15.21226        -0.252623      0.643692     -0.004689
      3.66902      2.21542     11.13423         0.286119      0.450737     -0.027139
      2.73228      0.66783     14.11722        -0.032414      0.437190      0.197589
      2.28437     13.72530     12.26619         0.042137     -0.961552     -0.329619
      9.52936     11.31700     18.65946        -0.302520      0.317491      0.106280
      2.13923     11.61150     13.51030        -0.810200     -0.616337      0.222070
      5.63123     11.60790     13.84058         0.352712      0.379419     -0.680303
      3.97236     13.09740     16.87051        -0.098147     -1.470334      0.681316
     11.81530     11.78730     10.00000        -0.434588      0.777806      0.059975
      9.02259      2.35807     16.56311        -0.175913      1.408359      0.518152
     12.48400      2.21666     17.79875        -0.830995     -0.425906     -0.261597
     12.72720      9.16818     17.05503        -1.260715     -0.005065      0.135622
     12.41220      1.86478     14.10932        -0.350581      0.526565     -0.883921
      8.42778      3.57259     11.59161        -0.755099     -0.168408      0.117813
      1.42324      5.72664     16.89241        -0.016716     -0.565848     -0.809442
     14.10440      4.06742     11.48930         1.299043     -0.407290     -0.104756
      9.66344     13.71310     11.86764         0.465280     -0.135036     -0.721298
      7.98186     12.28330     11.08680         0.163822     -0.025074      0.622418
      3.46299     10.84160     10.40964         0.775196     -0.174164     -0.276969
      0.10055      4.28472     15.31761         1.034972      0.017642      1.770144
     10.28410     13.87860     15.94003        -0.116926     -0.164393     -0.232248
     11.65430     11.17150     17.54698         0.310055     -0.184211     -0.020104
     11.48180      4.34782     17.90094        -0.259399     -0.724159      0.071659
     14.11040     13.21690     15.54963        -0.132919     -0.329437      0.130304
      1.15762      4.42203     13.29682        -0.106135     -1.127601     -1.046440
      6.57975      5.04379     11.19916         1.362579     -0.330579     -0.082413
     12.48330     10.99000     13.39219        -0.127661     -1.025491      0.975862
     11.14900     11.69640     15.34509         0.478452      0.554980     -0.470308
     11.96810      8.77431     12.72174        -0.597062     -0.129200      0.099363
     14.45500     11.03050     14.54922         1.711956      1.354699     -0.584173
      3.90754      6.64004     11.00744         1.195554     -0.189839     -1.126818
      5.77543     13.20860     11.73502        -0.022322     -0.513329     -0.315106
      0.02592     14.34730     11.67932         0.332422      0.995775      0.086276
     10.46120      0.47476     10.01622         0.102012     -0.820954      0.439366
      9.59537      9.09096     13.13359         0.484299      0.812915     -0.773020
      5.36226      7.78234     16.42869         0.162561      0.222479      0.192391
      3.19677      9.73939     12.37677        -0.893069      0.186699      0.300777
     10.34080      4.74582     12.22790        -1.129675      0.268485     -0.939158
     10.95660      7.73465     17.25069         0.884508     -0.170847      0.001151
      4.39928      4.16383     14.42522         0.123617      0.375402     -0.114227
      9.59884      5.46010     14.31014        -0.780094      0.279173      0.071259
     12.38670      4.01980     12.90502        -0.503243     -1.163642      0.047279
     14.32670      1.98811     10.42934         0.203362     -0.756395      0.385072
     11.29240     14.52560     17.88135         1.069648      0.578916      0.542891
      8.69859      0.45482     13.49295         0.430897     -0.164418      0.519592
 -----------------------------------------------------------------------------------
    total drift:                                0.010054      0.007848     -0.007834


--------------------------------------------------------------------------------------------------------



  FREE ENERGIE OF THE ION-ELECTRON SYSTEM (eV)
  ---------------------------------------------------
  free  energy   TOTEN  =      -847.79779644 eV

  energy  without entropy=     -847.52622349  energy(sigma->0) =     -847.66200996



--------------------------------------------------------------------------------------------------------


    POTLOK:  cpu time      3.9545: real time      3.9571


--------------------------------------------------------------------------------------------------------


     LOOP+:  cpu time   6128.1388: real time   6132.1949
    4ORBIT:  cpu time      0.0000: real time      0.0000



 total charge

# of ion       s       p       d       tot
------------------------------------------
    1        0.500   0.011   0.000   0.511
    2        0.566   0.016   0.000   0.582
    3        0.550   0.019   0.000   0.569
    4        0.764   0.959   0.000   1.724
    5        0.765   0.895   0.000   1.660
    6        0.860   0.752   0.000   1.613
    7        0.766   0.889   0.000   1.655
    8        0.752   0.943   0.000   1.695
    9        0.802   0.846   0.000   1.647
   10        0.759   0.948   0.000   1.707
   11        0.833   0.784   0.000   1.616
   12        0.761   0.945   0.000   1.706
   13        0.779   0.876   0.000   1.654
   14        0.761   0.972   0.000   1.733
   15        0.771   0.905   0.000   1.675
   16        0.773   0.885   0.000   1.658
   17        0.792   0.926   0.000   1.718
   18        0.783   0.866   0.000   1.649
   19        0.809   0.836   0.000   1.645
   20        0.774   0.892   0.000   1.666
   21        0.765   0.944   0.000   1.709
   22        0.762   0.959   0.000   1.720
   23        0.760   0.945   0.000   1.705
   24        0.769   0.982   0.000   1.751
   25        0.940   0.542   0.000   1.481
   26        0.787   0.846   0.000   1.632
   27        0.761   0.917   0.000   1.678
   28        0.792   0.844   0.000   1.636
   29        0.768   0.935   0.000   1.703
   30        0.792   0.814   0.000   1.606
   31        0.851   0.760   0.000   1.612
   32        0.764   0.917   0.000   1.681
   33        0.765   0.949   0.000   1.714
   34        0.768   0.863   0.000   1.631
   35        0.771   0.947   0.000   1.718
   36        0.765   1.013   0.000   1.777
   37        0.745   0.905   0.000   1.650
   38        0.822   0.768   0.000   1.591
   39        0.759   0.940   0.000   1.699
   40        0.764   0.957   0.000   1.721
   41        0.764   0.872   0.000   1.636
   42        0.831   0.751   0.000   1.582
   43        0.823   0.825   0.000   1.648
   44        0.756   0.974   0.000   1.730
   45        0.800   0.833   0.000   1.633
   46        0.775   0.838   0.000   1.612
   47        0.837   0.750   0.000   1.587
   48        0.875   0.691   0.000   1.566
   49        0.772   0.896   0.000   1.668
   50        0.757   0.911   0.000   1.668
   51        0.806   0.806   0.000   1.612
   52        0.777   0.877   0.000   1.653
   53        0.773   0.835   0.000   1.609
   54        0.877   0.668   0.000   1.545
   55        0.764   0.870   0.000   1.634
   56        0.767   0.906   0.000   1.673
   57        0.753   0.947   0.000   1.700
   58        0.926   0.594   0.000   1.520
   59        0.807   0.803   0.000   1.609
   60        0.801   0.813   0.000   1.614
   61        0.786   0.881   0.000   1.666
   62        0.764   0.937   0.000   1.702
   63        0.795   0.838   0.000   1.632
   64        0.795   0.809   0.000   1.604
   65        0.803   0.876   0.000   1.680
   66        0.758   0.925   0.000   1.684
   67        0.792   0.823   0.000   1.615
   68        0.856   0.788   0.000   1.644
   69        0.765   0.956   0.000   1.721
   70        0.780   0.896   0.000   1.677
   71        0.765   0.931   0.000   1.695
   72        0.817   0.846   0.000   1.662
   73        0.767   0.861   0.000   1.628
   74        0.760   0.953   0.000   1.713
   75        0.760   0.919   0.000   1.679
   76        0.768   0.952   0.000   1.721
   77        0.774   0.910   0.000   1.683
   78        0.754   0.897   0.000   1.651
   79        0.752   0.922   0.000   1.674
   80        0.774   0.852   0.000   1.626
   81        0.779   0.787   0.000   1.566
   82        0.810   0.783   0.000   1.593
   83        0.915   0.602   0.000   1.517
   84        0.773   0.895   0.000   1.668
   85        0.761   0.907   0.000   1.667
   86        0.765   0.945   0.000   1.711
   87        0.763   0.916   0.000   1.679
   88        0.781   0.917   0.000   1.698
   89        0.763   0.927   0.000   1.690
   90        0.767   0.968   0.000   1.735
   91        0.761   0.961   0.000   1.722
   92        0.859   0.699   0.000   1.558
   93        0.799   0.821   0.000   1.620
   94        0.765   0.983   0.000   1.748
--------------------------------------------------
tot         73.276  79.254   0.000 152.530


 total amount of memory used by VASP MPI-rank0   371550. kBytes
=======================================================================

   base                                    :      30000. kBytes
   nonl-proj                               :      72366. kBytes
   fftplans                                :     114270. kBytes
   grid                                    :      88184. kBytes
   one-center                              :         18. kBytes
   wavefun                                 :      66712. kBytes

  
  
 General timing and accounting informations for this job:
 ========================================================
  
                  Total CPU time used (sec):     6281.571
                            User time (sec):     5583.452
                          System time (sec):      698.119
                         Elapsed time (sec):     6285.844
  
                   Maximum memory used (kb):      647160.
                   Average memory used (kb):          N/A
  
                          Minor page faults:      6003054
                          Major page faults:         1169
                 Voluntary context switches:         2673
