 vasp.6.5.0 16Dec24 (build Jan 20 2025 08:32:48) complex                         
 executed on        HPECrayEX_GCC date 2025.07.28  11:37:49
 running   64 mpi-ranks, with    1 threads/rank, on    2 nodes
 distrk:  each k-point on   64 cores,    1 groups
 distr:  one band on NCORE=  16 cores,    4 groups


--------------------------------------------------------------------------------------------------------


 INCAR:
   SYSTEM = a-Si SPC
   NCORE = 16
   ISTART = 1
   ICHARG = 1
   ISPIN = 1
   ISYM = 1
   EDIFF = 1E-6
   NELM = 300
   EDIFFG = -0.01
   NSW = 0
   ISIF = 2
   IBRION = -1
   PREC = Accurate
   ENCUT = 1200
   KSPACING = 0.23
   KGAMMA = .TRUE.
   METAGGA = SCAN
   LASPH = .TRUE.
   LDIAG = .FALSE.
   LMIXTAU = .TRUE.
   ADDGRID = .TRUE.
   ALGO = Normal
   ISMEAR = 0
   SIGMA = 0.1
   LORBIT = 11
   NEDOS = 2000
   LWAVE = .FALSE.
   LCHARG = .FALSE.

 POTCAR:    PAW_PBE H 15Jun2001                   
 POTCAR:    PAW_PBE Si 05Jan2001                  
 POTCAR:    PAW_PBE H 15Jun2001                   
   SHA256 =  030f79b5d3ab3cf0e668861823c8fb652ff669f3e15e46930bd03bfd63a607b6 H/POTCAR              
   COPYR  = (c) Copyright 15Jun2001 Georg Kresse                                                    
   COPYR  = This file is part of the software VASP. Any use, copying, and all other rights are regul
   COPYR  = If you do not have a valid VASP license, you may not use, copy or distribute this file. 
   VRHFIN =H: ultrasoft test                                                                        
   LEXCH  = PE                                                                                      
   EATOM  =    12.4884 eV,    0.9179 Ry                                                             
                                                                                                    
   TITEL  = PAW_PBE H 15Jun2001                                                                     
   LULTRA =        F    use ultrasoft PP ?                                                          
   IUNSCR =        0    unscreen: 0-lin 1-nonlin 2-no                                               
   RPACOR =    0.000    partial core radius                                                         
   POMASS =    1.000; ZVAL   =    1.000    mass and valenz                                          
   RCORE  =    1.100    outmost cutoff radius                                                       
   RWIGS  =    0.700; RWIGS  =    0.370    wigner-seitz radius (au A)                               
   ENMAX  =  250.000; ENMIN  =  200.000 eV                                                          
   RCLOC  =    0.701    cutoff for local pot                                                        
   LCOR   =        T    correct aug charges                                                         
   LPAW   =        T    paw PP                                                                      
   EAUG   =  400.000                                                                                
   RMAX   =    1.123    core radius for proj-oper                                                   
   RAUG   =    1.200    factor for augmentation sphere                                              
   RDEP   =    1.112    radius for radial grids                                                     
   RDEPT  =    0.926    core radius for aug-charge                                                  
                                                                                                    
   Atomic configuration                                                                             
    2 entries                                                                                       
     n  l   j            E        occ.                                                              
     1  0  0.50        -6.4927   1.0000                                                             
     2  1  0.50        -3.4015   0.0000                                                             
   Description                                                                                      
     l       E           TYP  RCUT    TYP  RCUT                                                     
     0     -6.4927494     23  1.100                                                                 
     0      6.8029130     23  1.100                                                                 
     1     -4.0817478     23  1.100                                                                 
  local pseudopotential read in
  atomic valenz-charges read in
  non local Contribution for L=           0  read in
    real space projection operators read in
  non local Contribution for L=           0  read in
    real space projection operators read in
  non local Contribution for L=           1  read in
    real space projection operators read in
    PAW grid and wavefunctions read in

   number of l-projection  operators is LMAX  =           3
   number of lm-projection operators is LMMAX =           5

 POTCAR:    PAW_PBE Si 05Jan2001                  
   SHA256 =  79d9987ad8750f624c4d6acb2a16d13abf6a777132adc04dc6c8399be72b42bb Si/POTCAR             
   COPYR  = (c) Copyright 05Jan2001 Georg Kresse                                                    
   COPYR  = This file is part of the software VASP. Any use, copying, and all other rights are regul
   COPYR  = If you do not have a valid VASP license, you may not use, copy or distribute this file. 
   VRHFIN =Si: s2p2                                                                                 
   LEXCH  = PE                                                                                      
   EATOM  =   103.0669 eV,    7.5752 Ry                                                             
                                                                                                    
   TITEL  = PAW_PBE Si 05Jan2001                                                                    
   LULTRA =        F    use ultrasoft PP ?                                                          
   IUNSCR =        1    unscreen: 0-lin 1-nonlin 2-no                                               
   RPACOR =    1.500    partial core radius                                                         
   POMASS =   28.085; ZVAL   =    4.000    mass and valenz                                          
   RCORE  =    1.900    outmost cutoff radius                                                       
   RWIGS  =    2.480; RWIGS  =    1.312    wigner-seitz radius (au A)                               
   ENMAX  =  245.345; ENMIN  =  184.009 eV                                                          
   ICORE  =        2    local potential                                                             
   LCOR   =        T    correct aug charges                                                         
   LPAW   =        T    paw PP                                                                      
   EAUG   =  322.069                                                                                
   DEXC   =    0.000                                                                                
   RMAX   =    1.950    core radius for proj-oper                                                   
   RAUG   =    1.300    factor for augmentation sphere                                              
   RDEP   =    1.993    radius for radial grids                                                     
   RDEPT  =    1.837    core radius for aug-charge                                                  
                                                                                                    
   Atomic configuration                                                                             
    6 entries                                                                                       
     n  l   j            E        occ.                                                              
     1  0  0.50     -1785.8828   2.0000                                                             
     2  0  0.50      -139.4969   2.0000                                                             
     2  1  1.50       -95.5546   6.0000                                                             
     3  0  0.50       -10.8127   2.0000                                                             
     3  1  0.50        -4.0811   2.0000                                                             
     3  2  1.50        -4.0817   0.0000                                                             
   Description                                                                                      
     l       E           TYP  RCUT    TYP  RCUT                                                     
     0    -10.8127223     23  1.900                                                                 
     0     -7.6451159     23  1.900                                                                 
     1     -4.0811372     23  1.900                                                                 
     1      2.4879257     23  1.900                                                                 
     2     -4.0817478      7  1.900                                                                 
  local pseudopotential read in
  partial core-charges read in
  partial kinetic energy density read in
  atomic valenz-charges read in
  non local Contribution for L=           0  read in
    real space projection operators read in
  non local Contribution for L=           0  read in
    real space projection operators read in
  non local Contribution for L=           1  read in
    real space projection operators read in
  non local Contribution for L=           1  read in
    real space projection operators read in
    PAW grid and wavefunctions read in

   number of l-projection  operators is LMAX  =           4
   number of lm-projection operators is LMMAX =           8

 -----------------------------------------------------------------------------
|                                                                             |
|               ----> ADVICE to this user running VASP <----                  |
|                                                                             |
|     You have a (more or less) 'large supercell' and for larger cells it     |
|     might be more efficient to use real-space projection operators.         |
|     Therefore, try LREAL= Auto in the INCAR file.                           |
|     Mind: For very accurate calculation, you might also keep the            |
|     reciprocal projection scheme (i.e. LREAL=.FALSE.).                      |
|                                                                             |
 -----------------------------------------------------------------------------

 -----------------------------------------------------------------------------
|                                                                             |
|               ----> ADVICE to this user running VASP <----                  |
|                                                                             |
|     You enforced a specific xc type in the INCAR file but a different       |
|     type was found in the POTCAR file.                                      |
|     I HOPE YOU KNOW WHAT YOU ARE DOING!                                     |
|                                                                             |
 -----------------------------------------------------------------------------

  PAW_PBE H 15Jun2001                   :
 energy of atom  1       EATOM=  -12.4884
 kinetic energy error for atom=    0.0000 (will be added to EATOM!!)
  PAW_PBE Si 05Jan2001                  :
 energy of atom  2       EATOM= -103.0669
 kinetic energy error for atom=    0.0001 (will be added to EATOM!!)


 POSCAR: H  Si
  positions in cartesian coordinates
  No initial velocities read in


 exchange-correlation table for SCAN
   RHO(1)=    0.500       N(1)  =     2000
   RHO(2)=  100.500       N(2)  =     4000



--------------------------------------------------------------------------------------------------------


 ion  position               nearest neighbor table
   1  0.000  0.000  0.268-  33 1.48
   2  1.000  0.250  0.266-  43 1.56
   3  0.250  0.000  0.267-  45 1.52
   4  0.250  0.250  0.271-  47 1.40
   5  1.000  0.750  0.268-  51 1.48
   6  0.250  0.500  0.268-  53 1.50
   7  0.250  0.750  0.266-  55 1.55
   8  1.000  0.500  0.263-  57 1.64
   9  0.500  0.250  0.262-  67 1.69
  10  0.750  0.000  0.262-  69 1.67
  11  0.750  0.250  0.263-  71 1.66
  12  0.500  0.000  0.268-  73 1.49
  13  0.500  0.500  0.268-  81 1.49
  14  0.500  0.750  0.267-  91 1.51
  15  0.750  0.500  0.268-  93 1.48
  16  0.750  0.750  0.265-  95 1.58
  17  0.500  0.750  0.728- 100 1.35
  18  0.750  0.500  0.735- 102 1.60
  19  0.750  0.750  0.736- 104 1.60
  20  0.500  0.500  0.736- 106 1.61
  21  0.500  1.000  0.734- 114 1.55
  22  0.500  0.250  0.732- 124 1.48
  23  0.750  0.000  0.739- 126 1.71
  24  0.750  0.250  0.738- 128 1.68
  25  1.000  0.500  0.734- 130 1.55
  26  1.000  0.750  0.732- 140 1.50
  27  0.250  0.500  0.732- 142 1.47
  28  0.250  0.750  0.731- 144 1.46
  29  1.000  0.250  0.735- 148 1.60
  30  0.250  0.000  0.730- 150 1.42
  31  0.250  0.250  0.733- 152 1.53
  32  1.000  1.000  0.729- 154 1.40
  33  0.000  0.000  0.315-   1 1.48  34 2.35
  34  0.000  0.000  0.389-  37 2.35  35 2.35  33 2.35  39 2.35
  35  0.833  0.083  0.414-  34 2.35  36 2.35  70 2.35  72 2.35
  36  0.833  0.083  0.488-  35 2.35 121 2.35 117 2.35 111 2.35
  37  0.083  0.833  0.414-  34 2.35  38 2.35  56 2.35  52 2.35
  38  0.083  0.833  0.488- 111 2.35 131 2.35  37 2.35 137 2.35
  39  0.083  0.083  0.414-  40 2.35  34 2.35  46 2.35  44 2.35
  40  0.083  0.083  0.488- 117 2.35  39 2.35 145 2.35 131 2.35
  41  0.833  0.833  0.414-  70 2.35  52 2.35  42 2.35  96 2.35
  42  0.833  0.833  0.488- 111 2.35 107 2.35  41 2.35 109 2.35
  43  1.000  0.250  0.315-   2 1.56  44 2.35
  44  1.000  0.250  0.389-  61 2.35  49 2.35  43 2.35  39 2.35
  45  0.250  0.000  0.315-   3 1.52  46 2.35
  46  0.250  0.000  0.389-  65 2.35  45 2.35  75 2.35  39 2.35
  47  0.250  0.250  0.315-   4 1.40  48 2.35
  48  0.250  0.250  0.389-  61 2.35  89 2.35  47 2.35  75 2.35
  49  0.833  0.333  0.414-  44 2.35  72 2.35  50 2.35  94 2.35
  50  0.833  0.333  0.488- 117 2.35  49 2.35 119 2.35 115 2.35
  51  1.000  0.750  0.315-   5 1.48  52 2.35
  52  1.000  0.750  0.389-  41 2.35  51 2.35  37 2.35  63 2.35
  53  0.250  0.500  0.315-   6 1.50  54 2.35
  54  0.250  0.500  0.389-  53 2.35  83 2.35  63 2.35  89 2.35
  55  0.250  0.750  0.315-   7 1.55  56 2.35
  56  0.250  0.750  0.389-  55 2.35  37 2.35  83 2.35  65 2.35
  57  1.000  0.500  0.315-   8 1.64  58 2.35
  58  1.000  0.500  0.389-  59 2.35  57 2.35  63 2.35  61 2.35
  59  0.833  0.583  0.414-  58 2.35  60 2.35  94 2.35  96 2.35
  60  0.833  0.583  0.488-  59 2.35  97 2.35 109 2.35 119 2.35
  61  0.083  0.333  0.414-  44 2.35  48 2.35  62 2.35  58 2.35
  62  0.083  0.333  0.488- 145 2.35 119 2.35  61 2.35 155 2.35
  63  0.083  0.583  0.414-  64 2.35  58 2.35  54 2.35  52 2.35
  64  0.083  0.583  0.488- 109 2.35  63 2.35 137 2.35 155 2.35
  65  0.333  0.833  0.414-  46 2.35  66 2.35  92 2.35  56 2.35
  66  0.333  0.833  0.488- 135 2.35  65 2.35 133 2.35 131 2.35
  67  0.500  0.250  0.315-   9 1.69  68 2.35
  68  0.500  0.250  0.389-  89 2.35  67 2.35  79 2.35  85 2.35
  69  0.750  0.000  0.315-  10 1.67  70 2.35
  70  0.750  0.000  0.389-  41 2.35  69 2.35  35 2.35  79 2.35
  71  0.750  0.250  0.315-  11 1.66  72 2.35
  72  0.750  0.250  0.389-  85 2.35  49 2.35  71 2.35  35 2.35
  73  0.500  0.000  0.315-  12 1.49  74 2.35
  74  0.500  0.000  0.389-  77 2.35  73 2.35  79 2.35  75 2.35
  75  0.333  0.083  0.414-  76 2.35  46 2.35  74 2.35  48 2.35
  76  0.333  0.083  0.488-  75 2.35 145 2.35 157 2.35 135 2.35
  77  0.583  0.833  0.414-  74 2.35  78 2.35  96 2.35  92 2.35
  78  0.583  0.833  0.488- 107 2.35 135 2.35  77 2.35  97 2.35
  79  0.583  0.083  0.414-  80 2.35  74 2.35  68 2.35  70 2.35
  80  0.583  0.083  0.488-  79 2.35 157 2.35 107 2.35 121 2.35
  81  0.500  0.500  0.315-  13 1.49  82 2.35
  82  0.500  0.500  0.389-  81 2.35  87 2.35  85 2.35  83 2.35
  83  0.333  0.583  0.414-  84 2.35  54 2.35  56 2.35  82 2.35
  84  0.333  0.583  0.488-  83 2.35 137 2.35 159 2.35 133 2.35
  85  0.583  0.333  0.414-  72 2.35  86 2.35  82 2.35  68 2.35
  86  0.583  0.333  0.488- 121 2.35  85 2.35 115 2.35 159 2.35
  87  0.583  0.583  0.414-  88 2.35  82 2.35  94 2.35  92 2.35
  88  0.583  0.583  0.488-  87 2.35 133 2.35  97 2.35 115 2.35
  89  0.333  0.333  0.414-  68 2.35  48 2.35  90 2.35  54 2.35
  90  0.333  0.333  0.488- 157 2.35  89 2.35 159 2.35 155 2.35
  91  0.500  0.750  0.315-  14 1.51  92 2.35
  92  0.500  0.750  0.389-  91 2.35  65 2.35  77 2.35  87 2.35
  93  0.750  0.500  0.315-  15 1.48  94 2.35
  94  0.750  0.500  0.389-  93 2.35  59 2.35  87 2.35  49 2.35
  95  0.750  0.750  0.315-  16 1.58  96 2.35
  96  0.750  0.750  0.389-  95 2.35  77 2.35  41 2.35  59 2.35
  97  0.667  0.667  0.512-  98 2.35  60 2.35  88 2.35  78 2.35
  98  0.667  0.667  0.586-  97 2.35 103 2.35  99 2.35 101 2.35
  99  0.500  0.750  0.611- 136 2.35 100 2.35 134 2.35  98 2.35
 100  0.500  0.750  0.685-  17 1.35  99 2.35
 101  0.750  0.500  0.611- 102 2.35 120 2.35 116 2.35  98 2.35
 102  0.750  0.500  0.685-  18 1.60 101 2.35
 103  0.750  0.750  0.611- 108 2.35 104 2.35  98 2.35 110 2.35
 104  0.750  0.750  0.685-  19 1.60 103 2.35
 105  0.500  0.500  0.611- 106 2.35 116 2.35 134 2.35 160 2.35
 106  0.500  0.500  0.685-  20 1.61 105 2.35
 107  0.667  0.917  0.512-  78 2.35  42 2.35 108 2.35  80 2.35
 108  0.667  0.917  0.586- 103 2.35 107 2.35 113 2.35 125 2.35
 109  0.917  0.667  0.512-  64 2.35 110 2.35  60 2.35  42 2.35
 110  0.917  0.667  0.586- 109 2.35 139 2.35 103 2.35 129 2.35
 111  0.917  0.917  0.512-  38 2.35  42 2.35 112 2.35  36 2.35
 112  0.917  0.917  0.586- 139 2.35 111 2.35 125 2.35 153 2.35
 113  0.500  1.000  0.611- 114 2.35 108 2.35 136 2.35 158 2.35
 114  0.500  1.000  0.685-  21 1.55 113 2.35
 115  0.667  0.417  0.512- 116 2.35  86 2.35  50 2.35  88 2.35
 116  0.667  0.417  0.586- 127 2.35 115 2.35 105 2.35 101 2.35
 117  0.917  0.167  0.512-  50 2.35  40 2.35 118 2.35  36 2.35
 118  0.917  0.167  0.586- 117 2.35 147 2.35 127 2.35 153 2.35
 119  0.917  0.417  0.512-  62 2.35 120 2.35  50 2.35  60 2.35
 120  0.917  0.417  0.586- 147 2.35 119 2.35 101 2.35 129 2.35
 121  0.667  0.167  0.512-  86 2.35 122 2.35  36 2.35  80 2.35
 122  0.667  0.167  0.586- 121 2.35 127 2.35 125 2.35 123 2.35
 123  0.500  0.250  0.611- 160 2.35 124 2.35 158 2.35 122 2.35
 124  0.500  0.250  0.685-  22 1.48 123 2.35
 125  0.750  0.000  0.611- 126 2.35 112 2.35 122 2.35 108 2.35
 126  0.750  0.000  0.685-  23 1.71 125 2.35
 127  0.750  0.250  0.611- 116 2.35 128 2.35 122 2.35 118 2.35
 128  0.750  0.250  0.685-  24 1.68 127 2.35
 129  0.000  0.500  0.611- 130 2.35 156 2.35 120 2.35 110 2.35
 130  1.000  0.500  0.685-  25 1.55 129 2.35
 131  0.167  0.917  0.512-  38 2.35 132 2.35  66 2.35  40 2.35
 132  0.167  0.917  0.586- 143 2.35 131 2.35 153 2.35 149 2.35
 133  0.417  0.667  0.512- 134 2.35  88 2.35  66 2.35  84 2.35
 134  0.417  0.667  0.586- 133 2.35  99 2.35 105 2.35 143 2.35
 135  0.417  0.917  0.512-  66 2.35  78 2.35 136 2.35  76 2.35
 136  0.417  0.917  0.586-  99 2.35 135 2.35 113 2.35 149 2.35
 137  0.167  0.667  0.512- 138 2.35  84 2.35  64 2.35  38 2.35
 138  0.167  0.667  0.586- 137 2.35 139 2.35 143 2.35 141 2.35
 139  1.000  0.750  0.611- 112 2.35 140 2.35 138 2.35 110 2.35
 140  1.000  0.750  0.685-  26 1.50 139 2.35
 141  0.250  0.500  0.611- 142 2.35 160 2.35 156 2.35 138 2.35
 142  0.250  0.500  0.685-  27 1.47 141 2.35
 143  0.250  0.750  0.611- 132 2.35 144 2.35 138 2.35 134 2.35
 144  0.250  0.750  0.685-  28 1.46 143 2.35
 145  0.167  0.167  0.512-  62 2.35 146 2.35  76 2.35  40 2.35
 146  0.167  0.167  0.586- 145 2.35 151 2.35 147 2.35 149 2.35
 147  1.000  0.250  0.611- 120 2.35 148 2.35 118 2.35 146 2.35
 148  1.000  0.250  0.685-  29 1.60 147 2.35
 149  0.250  0.000  0.611- 150 2.35 146 2.35 132 2.35 136 2.35
 150  0.250  0.000  0.685-  30 1.42 149 2.35
 151  0.250  0.250  0.611- 156 2.35 152 2.35 146 2.35 158 2.35
 152  0.250  0.250  0.685-  31 1.53 151 2.35
 153  0.000  1.000  0.611- 154 2.35 132 2.35 112 2.35 118 2.35
 154  1.000  1.000  0.685-  32 1.40 153 2.35
 155  0.167  0.417  0.512- 156 2.35  62 2.35  90 2.35  64 2.35
 156  0.167  0.417  0.586- 151 2.35 155 2.35 129 2.35 141 2.35
 157  0.417  0.167  0.512-  90 2.35 158 2.35  80 2.35  76 2.35
 158  0.417  0.167  0.586- 157 2.35 123 2.35 151 2.35 113 2.35
 159  0.417  0.417  0.512- 160 2.35  90 2.35  84 2.35  86 2.35
 160  0.417  0.417  0.586- 123 2.35 159 2.35 141 2.35 105 2.35

  LATTYP: Found a hexagonal cell.
 ALAT       =    15.3583592874
 C/A-ratio  =     2.0676879777
  
  Lattice vectors:
  
 A1 = (  -7.6791796437, -13.3007293033,   0.0000000000)
 A2 = (  15.3583592874,   0.0000000000,   0.0000000000)
 A3 = (   0.0000000000,   0.0000000000,  31.7562948564)


Analysis of symmetry for initial positions (statically):
=====================================================================
 Subroutine PRICEL returns:
 Original cell was already a primitive cell.
 

 Routine SETGRP: Setting up the symmetry group for a 
 hexagonal supercell.


 Subroutine GETGRP returns: Found  1 space group operations
 (whereof  1 operations were pure point group operations)
 out of a pool of 24 trial point group operations.


The static configuration has the point symmetry C_1 .


Analysis of symmetry for dynamics (positions and initial velocities):
=====================================================================
 Subroutine PRICEL returns:
 Original cell was already a primitive cell.
 

 Routine SETGRP: Setting up the symmetry group for a 
 hexagonal supercell.


 Subroutine GETGRP returns: Found  1 space group operations
 (whereof  1 operations were pure point group operations)
 out of a pool of 24 trial point group operations.


The dynamic configuration has the point symmetry C_1 .


 Subroutine INISYM returns: Found  1 space group operations
 (whereof  1 operations are pure point group operations),
 and found     1 'primitive' translations


----------------------------------------------------------------------------------------

                                     Primitive cell                                     

  volume of cell :    6487.0927

  direct lattice vectors                    reciprocal lattice vectors
    15.358359287  0.000000000  0.000000000     0.065111122 -0.037591924  0.000000000
     7.679179644 13.300729303  0.000000000     0.000000000  0.075183847  0.000000000
     0.000000000  0.000000000 31.756294856     0.000000000  0.000000000  0.031489820

  length of vectors
    15.358359287 15.358359287 31.756294856     0.075183847  0.075183847  0.031489820

  position of ions in fractional coordinates (direct lattice)
     0.000000000  0.000000000  0.268151511
     1.000000000  0.250000000  0.265781574
     0.250000000  0.000000000  0.266915449
     0.250000000  0.250000000  0.270748240
     1.000000000  0.750000000  0.268242269
     0.250000000  0.500000000  0.267512079
     0.250000000  0.750000000  0.266064150
     1.000000000  0.500000000  0.263362249
     0.500000000  0.250000000  0.261640201
     0.750000000  0.000000000  0.262272290
     0.750000000  0.250000000  0.262774871
     0.500000000  0.000000000  0.268060610
     0.500000000  0.500000000  0.268049200
     0.500000000  0.750000000  0.267207759
     0.750000000  0.500000000  0.268318884
     0.750000000  0.750000000  0.265212479
     0.500000000  0.750000000  0.727719554
     0.750000000  0.500000000  0.735419233
     0.750000000  0.750000000  0.735575650
     0.500000000  0.500000000  0.735679588
     0.500000000  1.000000000  0.733949409
     0.500000000  0.250000000  0.731811789
     0.750000000  0.000000000  0.738902582
     0.750000000  0.250000000  0.737950224
     1.000000000  0.500000000  0.733973571
     1.000000000  0.750000000  0.732417452
     0.250000000  0.500000000  0.731533314
     0.250000000  0.750000000  0.731209352
     1.000000000  0.250000000  0.735403768
     0.250000000  0.000000000  0.729859797
     0.250000000  0.250000000  0.733301678
     1.000000000  1.000000000  0.729142333
     0.000000000  0.000000000  0.314898197
     0.000000000  0.000000000  0.388938918
     0.833333334  0.083333333  0.413619159
     0.833333334  0.083333333  0.487659880
     0.083333333  0.833333334  0.413619159
     0.083333333  0.833333334  0.487659880
     0.083333333  0.083333333  0.413619159
     0.083333333  0.083333333  0.487659880
     0.833333333  0.833333334  0.413619159
     0.833333333  0.833333334  0.487659880
     1.000000000  0.250000000  0.314898197
     1.000000000  0.250000000  0.388938918
     0.250000000  0.000000000  0.314898197
     0.250000000  0.000000000  0.388938918
     0.250000000  0.250000000  0.314898197
     0.250000000  0.250000000  0.388938918
     0.833333334  0.333333333  0.413619159
     0.833333334  0.333333333  0.487659880
     1.000000000  0.750000000  0.314898197
     1.000000000  0.750000000  0.388938918
     0.250000000  0.500000000  0.314898197
     0.250000000  0.500000000  0.388938918
     0.250000000  0.750000000  0.314898197
     0.250000000  0.750000000  0.388938918
     1.000000000  0.500000000  0.314898197
     1.000000000  0.500000000  0.388938918
     0.833333333  0.583333333  0.413619159
     0.833333333  0.583333333  0.487659880
     0.083333333  0.333333333  0.413619159
     0.083333333  0.333333333  0.487659880
     0.083333333  0.583333333  0.413619159
     0.083333333  0.583333333  0.487659880
     0.333333333  0.833333334  0.413619159
     0.333333333  0.833333334  0.487659880
     0.500000000  0.250000000  0.314898197
     0.500000000  0.250000000  0.388938918
     0.750000000  0.000000000  0.314898197
     0.750000000  0.000000000  0.388938918
     0.750000000  0.250000000  0.314898197
     0.750000000  0.250000000  0.388938918
     0.500000000  0.000000000  0.314898197
     0.500000000  0.000000000  0.388938918
     0.333333333  0.083333333  0.413619159
     0.333333333  0.083333333  0.487659880
     0.583333333  0.833333334  0.413619159
     0.583333333  0.833333334  0.487659880
     0.583333333  0.083333333  0.413619159
     0.583333333  0.083333333  0.487659880
     0.500000000  0.500000000  0.314898197
     0.500000000  0.500000000  0.388938918
     0.333333333  0.583333333  0.413619159
     0.333333333  0.583333333  0.487659880
     0.583333334  0.333333333  0.413619159
     0.583333334  0.333333333  0.487659880
     0.583333334  0.583333333  0.413619159
     0.583333334  0.583333333  0.487659880
     0.333333333  0.333333333  0.413619159
     0.333333333  0.333333333  0.487659880
     0.500000000  0.750000000  0.314898197
     0.500000000  0.750000000  0.388938918
     0.750000000  0.500000000  0.314898197
     0.750000000  0.500000000  0.388938918
     0.750000000  0.750000000  0.314898197
     0.750000000  0.750000000  0.388938918
     0.666666667  0.666666667  0.512340120
     0.666666667  0.666666667  0.586380841
     0.500000000  0.750000000  0.611061082
     0.500000000  0.750000000  0.685101803
     0.750000000  0.500000000  0.611061082
     0.750000000  0.500000000  0.685101803
     0.750000000  0.750000000  0.611061082
     0.750000000  0.750000000  0.685101803
     0.500000000  0.500000000  0.611061082
     0.500000000  0.500000000  0.685101803
     0.666666667  0.916666666  0.512340120
     0.666666667  0.916666666  0.586380841
     0.916666667  0.666666667  0.512340120
     0.916666667  0.666666667  0.586380841
     0.916666667  0.916666666  0.512340120
     0.916666667  0.916666666  0.586380841
     0.500000000  1.000000000  0.611061082
     0.500000000  1.000000000  0.685101803
     0.666666667  0.416666666  0.512340120
     0.666666667  0.416666666  0.586380841
     0.916666667  0.166666667  0.512340120
     0.916666667  0.166666667  0.586380841
     0.916666667  0.416666666  0.512340120
     0.916666667  0.416666666  0.586380841
     0.666666667  0.166666667  0.512340120
     0.666666667  0.166666667  0.586380841
     0.500000000  0.250000000  0.611061082
     0.500000000  0.250000000  0.685101803
     0.750000000  0.000000000  0.611061082
     0.750000000  0.000000000  0.685101803
     0.750000000  0.250000000  0.611061082
     0.750000000  0.250000000  0.685101803
     0.000000000  0.500000000  0.611061082
     1.000000000  0.500000000  0.685101803
     0.166666667  0.916666666  0.512340120
     0.166666667  0.916666666  0.586380841
     0.416666667  0.666666667  0.512340120
     0.416666667  0.666666667  0.586380841
     0.416666667  0.916666666  0.512340120
     0.416666667  0.916666666  0.586380841
     0.166666666  0.666666667  0.512340120
     0.166666666  0.666666667  0.586380841
     1.000000000  0.750000000  0.611061082
     1.000000000  0.750000000  0.685101803
     0.250000000  0.500000000  0.611061082
     0.250000000  0.500000000  0.685101803
     0.250000000  0.750000000  0.611061082
     0.250000000  0.750000000  0.685101803
     0.166666666  0.166666667  0.512340120
     0.166666666  0.166666667  0.586380841
     1.000000000  0.250000000  0.611061082
     1.000000000  0.250000000  0.685101803
     0.250000000  0.000000000  0.611061082
     0.250000000  0.000000000  0.685101803
     0.250000000  0.250000000  0.611061082
     0.250000000  0.250000000  0.685101803
     0.000000000  1.000000000  0.611061082
     1.000000000  1.000000000  0.685101803
     0.166666667  0.416666666  0.512340120
     0.166666667  0.416666666  0.586380841
     0.416666666  0.166666667  0.512340120
     0.416666666  0.166666667  0.586380841
     0.416666666  0.416666666  0.512340120
     0.416666666  0.416666666  0.586380841

  ion indices of the primitive-cell ions
   primitive index   ion index
                 1           1
                 2           2
                 3           3
                 4           4
                 5           5
                 6           6
                 7           7
                 8           8
                 9           9
                10          10
                11          11
                12          12
                13          13
                14          14
                15          15
                16          16
                17          17
                18          18
                19          19
                20          20
                21          21
                22          22
                23          23
                24          24
                25          25
                26          26
                27          27
                28          28
                29          29
                30          30
                31          31
                32          32
                33          33
                34          34
                35          35
                36          36
                37          37
                38          38
                39          39
                40          40
                41          41
                42          42
                43          43
                44          44
                45          45
                46          46
                47          47
                48          48
                49          49
                50          50
                51          51
                52          52
                53          53
                54          54
                55          55
                56          56
                57          57
                58          58
                59          59
                60          60
                61          61
                62          62
                63          63
                64          64
                65          65
                66          66
                67          67
                68          68
                69          69
                70          70
                71          71
                72          72
                73          73
                74          74
                75          75
                76          76
                77          77
                78          78
                79          79
                80          80
                81          81
                82          82
                83          83
                84          84
                85          85
                86          86
                87          87
                88          88
                89          89
                90          90
                91          91
                92          92
                93          93
                94          94
                95          95
                96          96
                97          97
                98          98
                99          99
               100         100
               101         101
               102         102
               103         103
               104         104
               105         105
               106         106
               107         107
               108         108
               109         109
               110         110
               111         111
               112         112
               113         113
               114         114
               115         115
               116         116
               117         117
               118         118
               119         119
               120         120
               121         121
               122         122
               123         123
               124         124
               125         125
               126         126
               127         127
               128         128
               129         129
               130         130
               131         131
               132         132
               133         133
               134         134
               135         135
               136         136
               137         137
               138         138
               139         139
               140         140
               141         141
               142         142
               143         143
               144         144
               145         145
               146         146
               147         147
               148         148
               149         149
               150         150
               151         151
               152         152
               153         153
               154         154
               155         155
               156         156
               157         157
               158         158
               159         159
               160         160

----------------------------------------------------------------------------------------


 -----------------------------------------------------------------------------
|                                                                             |
|           W    W    AA    RRRRR   N    N  II  N    N   GGGG   !!!           |
|           W    W   A  A   R    R  NN   N  II  NN   N  G    G  !!!           |
|           W    W  A    A  R    R  N N  N  II  N N  N  G       !!!           |
|           W WW W  AAAAAA  RRRRR   N  N N  II  N  N N  G  GGG   !            |
|           WW  WW  A    A  R   R   N   NN  II  N   NN  G    G                |
|           W    W  A    A  R    R  N    N  II  N    N   GGGG   !!!           |
|                                                                             |
|     The requested file  could not be found or opened for reading            |
|     k-point information. Automatic k-point generation is used as a          |
|     fallback, which may lead to unwanted results.                           |
|                                                                             |
 -----------------------------------------------------------------------------



Automatic generation of k-mesh.
 Grid dimensions derived from KSPACING:
 generate k-points for:    3    3    1

 Generating k-lattice:

  Cartesian coordinates                     Fractional coordinates (reciprocal lattice)
     0.021703707 -0.012530641  0.000000000     0.333333333 -0.000000000  0.000000000
     0.000000000  0.025061282  0.000000000     0.000000000  0.333333333  0.000000000
     0.000000000  0.000000000  0.031489820     0.000000000  0.000000000  1.000000000

  Length of vectors
     0.025061282  0.025061282  0.031489820

  Shift w.r.t. Gamma in fractional coordinates (k-lattice)
     0.000000000  0.000000000  0.000000000

 
 Subroutine IBZKPT returns following result:
 ===========================================
 
 Found      5 irreducible k-points:
 
 Following reciprocal coordinates:
            Coordinates               Weight
  0.000000  0.000000  0.000000      1.000000
  0.333333  0.000000  0.000000      2.000000
  0.333333  0.333333  0.000000      2.000000
  0.000000  0.333333  0.000000      2.000000
 -0.333333  0.333333  0.000000      2.000000
 
 Following cartesian coordinates:
            Coordinates               Weight
  0.000000  0.000000  0.000000      1.000000
  0.021704 -0.012531  0.000000      2.000000
  0.021704  0.012531  0.000000      2.000000
  0.000000  0.025061  0.000000      2.000000
 -0.021704  0.037592  0.000000      2.000000
 


--------------------------------------------------------------------------------------------------------




 Dimension of arrays:
   k-points           NKPTS =      5   k-points in BZ     NKDIM =      5   number of bands    NBANDS=    356
   number of dos      NEDOS =   2000   number of ions     NIONS =    160
   non local maximal  LDIM  =      4   non local SUM 2l+1 LMDIM =      8
   total plane-waves  NPLWV = ******
   max r-space proj   IRMAX =      1   max aug-charges    IRDMAX= 481080
   dimension x,y,z NGX =   180 NGY =  180 NGZ =  360
   dimension x,y,z NGXF=   360 NGYF=  360 NGZF=  720
   support grid    NGXF=   720 NGYF=  720 NGZF= 1440
   ions per type =              32 128
   NGX,Y,Z   is equivalent  to a cutoff of  19.48, 19.48, 18.85 a.u.
   NGXF,Y,Z  is equivalent  to a cutoff of  38.97, 38.97, 37.69 a.u.

 SYSTEM =  a-Si SPC                                
 POSCAR =  H  Si                                   

 Startparameter for this run:
   NWRITE =      2    write-flag & timer
   PREC   = accura    normal or accurate (medium, high low for compatibility)
   ISTART =      0    job   : 0-new  1-cont  2-samecut
   ICHARG =      1    charge: 1-file 2-atom 10-const
   ISPIN  =      1    spin polarized calculation?
   LNONCOLLINEAR =      F non collinear calculations
   LSORBIT =      F    spin-orbit coupling
   INIWAV =      1    electr: 0-lowe 1-rand  2-diag
   LASPH  =      T    aspherical Exc in radial PAW
 Electronic Relaxation 1
   ENCUT  = 1200.0 eV  88.20 Ry    9.39 a.u.  43.38 43.38 89.70*2*pi/ulx,y,z
   ENINI  = 1200.0     initial cutoff
   ENAUG  =  400.0 eV  augmentation charge cutoff
   NELM   =    300;   NELMIN=  2; NELMDL=  0     # of ELM steps 
   EDIFF  = 0.1E-05   stopping-criterion for ELM
   LREAL  =      F    real-space projection
   NLSPLINE    = F    spline interpolate recip. space projectors
   LCOMPAT=      F    compatible to vasp.4.4
   GGA_COMPAT  = T    GGA compatible to vasp.4.4-vasp.4.6
   LMAXPAW     = -100 max onsite density
   LMAXMIX     =    2 max onsite mixed and CHGCAR
   VOSKOWN=      0    Vosko Wilk Nusair interpolation
   ROPT   =    0.00000   0.00000
 Ionic relaxation
   EDIFFG = -.1E-01   stopping-criterion for IOM
   NSW    =      0    number of steps for IOM
   NBLOCK =      1;   KBLOCK =      1    inner block; outer block 
   IBRION =     -1    ionic relax: 0-MD 1-quasi-New 2-CG
   NFREE  =      0    steps in history (QN), initial steepest desc. (CG)
   ISIF   =      2    stress and relaxation
   IWAVPR =     10    prediction:  0-non 1-charg 2-wave 3-comb
   ISYM   =      1    0-nonsym 1-usesym 2-fastsym
   LCORR  =      T    Harris-Foulkes like correction to forces

   POTIM  = 0.5000    time-step for ionic-motion
   TEIN   =    0.0    initial temperature
   TEBEG  =    0.0;   TEEND  =   0.0 temperature during run
   SMASS  =  -3.00    Nose mass-parameter (am)
   estimated Nose-frequenzy (Omega)   =  0.10E-29 period in steps = 0.13E+47 mass=  -0.539E-26a.u.
   SCALEE = 1.0000    scale energy and forces
   NPACO  =    256;   APACO  = 10.0  distance and # of slots for P.C.
   PSTRESS=    0.0 pullay stress

  Mass of Ions in am
   POMASS =   1.00 28.09
  Ionic Valenz
   ZVAL   =   1.00  4.00
  Atomic Wigner-Seitz radii
   RWIGS  =  -1.00 -1.00
  virtual crystal weights 
   VCA    =   1.00  1.00
   NELECT =     544.0000    total number of electrons
   NUPDOWN=      -1.0000    fix difference up-down

 DOS related values:
   EMIN   =  10.00;   EMAX   =-10.00  energy-range for DOS
   EFERMI =   0.00;   METHOD = LEGACY      
   ISMEAR =     0;   SIGMA  =   0.10  broadening in eV -4-tet -1-fermi 0-gaus
   EFERMI_NEDOS =   21; number of points for ismear=-14 and -15

 Electronic relaxation 2 (details)
   IALGO  =     38    algorithm
   LDIAG  =      F    sub-space diagonalisation (order eigenvalues)
   LSUBROT=      F    optimize rotation matrix (better conditioning)
   TURBO    =      0    0=normal 1=particle mesh
   IRESTART =      0    0=no restart 2=restart with 2 vectors
   NREBOOT  =      0    no. of reboots
   NMIN     =      0    reboot dimension
   EREF     =   0.00    reference energy to select bands
   IMIX   =      4    mixing-type and parameters
     AMIX     =   0.40;   BMIX     =  1.00
     AMIX_MAG =   1.60;   BMIX_MAG =  1.00
     AMIN     =   0.10
     WC   =   100.;   INIMIX=   1;  MIXPRE=   1;  MAXMIX= -45

 Intra band minimization:
   WEIMIN = 0.0000     energy-eigenvalue tresh-hold
   EBREAK =  0.70E-09  absolut break condition
   DEPER  =   0.30     relativ break condition  

   TIME   =   0.40     timestep for ELM

  volume/ion in A,a.u.               =      40.54       273.61
  Fermi-wavevector in a.u.,A,eV,Ry     =   0.716569  1.354118  6.986191  0.513471
  Thomas-Fermi vector in A             =   1.805023

 Write flags
   LWAVE        =      F    write WAVECAR
   LDOWNSAMPLE  =      F    k-point downsampling of WAVECAR
   LCHARG       =      F    write CHGCAR
   LVTOT        =      F    write LOCPOT, total local potential
   LVHAR        =      F    write LOCPOT, Hartree potential only
   WRT_POTENTIAL= false  ! write potential to hdf5 file
   LELF         =      F    write electronic localiz. function (ELF)
   LORBIT       =     11    0 simple, 1 ext, 2 COOP (PROOUT), +10 PAW based schemes


 Python interface
   PLUGINS active      =      F    recompile with -DPLUGINS to activate

 Dipole corrections
   LMONO      =      F    monopole corrections only (constant potential shift)
   LDIPOL     =      F    correct potential (dipole corrections)
   IDIPOL     =      0    1-x, 2-y, 3-z, 4-all directions 
   EPSILON    =  1.0000000 bulk dielectric constant
   LVACPOTAV  =      F  vacuum potentials using an averaging scheme for the charge density
   VACPOTFLAT =  0.1000000 required flatness to determine vacuum potential

Coulomb truncation method
  LTRUNCATE          =      F  Coulomb kernel truncation to be used
  IDIMENSIONALITY    =      3  Dimensionality of cutoff (0 molecules / 2 surfaces)
  ISURFACE           =     -1  Direction of surface normal
  LCOARSEN           =      F  Coarsen the charge grid before padding, preferred


 Exchange correlation treatment:
   METAGGA = SCAN    functional components
   XC_C    = 1    coefficients multiplying the functional components
   LIBXC   =     F    Libxc                    
   VOSKOWN =     0    Vosko Wilk Nusair interpolation
   LHFCALC =     F    Hartree Fock is set to
   LHFONE  =     F    Hartree Fock one center treatment
   AEXX    =    0.0000 exact exchange contribution

 Parameters of functionals:
   SCAN:
     P1 =  0.000000E+00
     P2 =  0.000000E+00
     P3 =  0.000000E+00

 Accuracy and mixing parameters for tau-dependent meta-GGA functionals:
   LMAXTAU = 6
   LMIXTAU = T

 Van der Waals corrections
   IVDW    =     0    specifies the selected vdW correction

 Linear response parameters
   LEPSILON=     F    determine dielectric tensor
   LRPA    =     F    only Hartree local field effects (RPA)
   LNABLA  =     F    use nabla operator in PAW spheres
   LVEL    =     F    velocity operator in full k-point grid
   CSHIFT  =0.1000    complex shift for real part using Kramers Kronig
   OMEGAMAX=  -1.0    maximum frequency
   DEG_THRESHOLD= 0.2000000E-02 threshold for treating states as degnerate
   RTIME   =   -0.100 relaxation time in fs
  (WPLASMAI=    0.000 imaginary part of plasma frequency in eV, 0.658/RTIME)
   DFIELD  = 0.0000000 0.0000000 0.0000000 field for delta impulse in time

  Optional k-point grid parameters
   LKPOINTS_OPT  =     F    use optional k-point grid
   KPOINTS_OPT_MODE=     1    mode for optional k-point grid

 Orbital magnetization related:
   ORBITALMAG=     F  switch on orbital magnetization
   LCHIMAG   =     F  perturbation theory with respect to B field
   DQ        =  0.001000  dq finite difference perturbation B field
   LLRAUG    =     F  two centre corrections for induced B field
   LBONE     =     F  B-component reconstruction in AE one-centre
   LVGVCALC  =     T  calculate vGv susceptibility
   LVGVAPPL  =     F  apply vGv susceptibility instead of pGv for G=0

 Random number generation:
   RANDOM_GENERATOR = DEFAULT
   PCG_SEED         = not used


--------------------------------------------------------------------------------------------------------


 Static calculation
 charge density and potential will be updated during run
 non-spin polarized calculation
 Variant of blocked Davidson
 perform Loewdin sub-space diagonalisation
    ordering is kept fixed
    before iterative eigenvector-optimisation
 modified Broyden-mixing scheme, WC =      100.0
 initial mixing is a Kerker type mixing with AMIX =  0.4000 and BMIX =      1.0000
 Hartree-type preconditioning will be used
 using additional bands           84
 reciprocal scheme for non local part
 use partial core corrections
 calculate Harris-corrections to forces   (improved forces if not selfconsistent)
 use gradient corrections 
 use of overlap-Matrix (Vanderbilt PP)
 Gauss-broadening in eV      SIGMA  =   0.10


--------------------------------------------------------------------------------------------------------


  energy-cutoff  :     1200.00
  volume of cell :     6487.09
      direct lattice vectors                 reciprocal lattice vectors
    15.358359287  0.000000000  0.000000000     0.065111122 -0.037591924  0.000000000
     7.679179644 13.300729303  0.000000000     0.000000000  0.075183847  0.000000000
     0.000000000  0.000000000 31.756294856     0.000000000  0.000000000  0.031489820

  length of vectors
    15.358359287 15.358359287 31.756294856     0.075183847  0.075183847  0.031489820



 k-points in units of 2pi/SCALE and weight: read from INCAR                         
   0.00000000  0.00000000  0.00000000       0.111
   0.02170371 -0.01253064  0.00000000       0.222
   0.02170371  0.01253064  0.00000000       0.222
   0.00000000  0.02506128  0.00000000       0.222
  -0.02170371  0.03759192  0.00000000       0.222

 k-points in reciprocal lattice and weights: read from INCAR                         
   0.00000000  0.00000000  0.00000000       0.111
   0.33333333  0.00000000  0.00000000       0.222
   0.33333333  0.33333333  0.00000000       0.222
   0.00000000  0.33333333  0.00000000       0.222
  -0.33333333  0.33333333  0.00000000       0.222

 position of ions in fractional coordinates (direct lattice) 
   0.00000000  0.00000000  0.26815151
   1.00000000  0.25000000  0.26578157
   0.25000000  0.00000000  0.26691545
   0.25000000  0.25000000  0.27074824
   1.00000000  0.75000000  0.26824227
   0.25000000  0.50000000  0.26751208
   0.25000000  0.75000000  0.26606415
   1.00000000  0.50000000  0.26336225
   0.50000000  0.25000000  0.26164020
   0.75000000  0.00000000  0.26227229
   0.75000000  0.25000000  0.26277487
   0.50000000  0.00000000  0.26806061
   0.50000000  0.50000000  0.26804920
   0.50000000  0.75000000  0.26720776
   0.75000000  0.50000000  0.26831888
   0.75000000  0.75000000  0.26521248
   0.50000000  0.75000000  0.72771955
   0.75000000  0.50000000  0.73541923
   0.75000000  0.75000000  0.73557565
   0.50000000  0.50000000  0.73567959
   0.50000000  1.00000000  0.73394941
   0.50000000  0.25000000  0.73181179
   0.75000000  0.00000000  0.73890258
   0.75000000  0.25000000  0.73795022
   1.00000000  0.50000000  0.73397357
   1.00000000  0.75000000  0.73241745
   0.25000000  0.50000000  0.73153331
   0.25000000  0.75000000  0.73120935
   1.00000000  0.25000000  0.73540377
   0.25000000  0.00000000  0.72985980
   0.25000000  0.25000000  0.73330168
   1.00000000  1.00000000  0.72914233
   0.00000000  0.00000000  0.31489820
   0.00000000  0.00000000  0.38893892
   0.83333333  0.08333333  0.41361916
   0.83333333  0.08333333  0.48765988
   0.08333333  0.83333333  0.41361916
   0.08333333  0.83333333  0.48765988
   0.08333333  0.08333333  0.41361916
   0.08333333  0.08333333  0.48765988
   0.83333333  0.83333333  0.41361916
   0.83333333  0.83333333  0.48765988
   1.00000000  0.25000000  0.31489820
   1.00000000  0.25000000  0.38893892
   0.25000000  0.00000000  0.31489820
   0.25000000  0.00000000  0.38893892
   0.25000000  0.25000000  0.31489820
   0.25000000  0.25000000  0.38893892
   0.83333333  0.33333333  0.41361916
   0.83333333  0.33333333  0.48765988
   1.00000000  0.75000000  0.31489820
   1.00000000  0.75000000  0.38893892
   0.25000000  0.50000000  0.31489820
   0.25000000  0.50000000  0.38893892
   0.25000000  0.75000000  0.31489820
   0.25000000  0.75000000  0.38893892
   1.00000000  0.50000000  0.31489820
   1.00000000  0.50000000  0.38893892
   0.83333333  0.58333333  0.41361916
   0.83333333  0.58333333  0.48765988
   0.08333333  0.33333333  0.41361916
   0.08333333  0.33333333  0.48765988
   0.08333333  0.58333333  0.41361916
   0.08333333  0.58333333  0.48765988
   0.33333333  0.83333333  0.41361916
   0.33333333  0.83333333  0.48765988
   0.50000000  0.25000000  0.31489820
   0.50000000  0.25000000  0.38893892
   0.75000000  0.00000000  0.31489820
   0.75000000  0.00000000  0.38893892
   0.75000000  0.25000000  0.31489820
   0.75000000  0.25000000  0.38893892
   0.50000000  0.00000000  0.31489820
   0.50000000  0.00000000  0.38893892
   0.33333333  0.08333333  0.41361916
   0.33333333  0.08333333  0.48765988
   0.58333333  0.83333333  0.41361916
   0.58333333  0.83333333  0.48765988
   0.58333333  0.08333333  0.41361916
   0.58333333  0.08333333  0.48765988
   0.50000000  0.50000000  0.31489820
   0.50000000  0.50000000  0.38893892
   0.33333333  0.58333333  0.41361916
   0.33333333  0.58333333  0.48765988
   0.58333333  0.33333333  0.41361916
   0.58333333  0.33333333  0.48765988
   0.58333333  0.58333333  0.41361916
   0.58333333  0.58333333  0.48765988
   0.33333333  0.33333333  0.41361916
   0.33333333  0.33333333  0.48765988
   0.50000000  0.75000000  0.31489820
   0.50000000  0.75000000  0.38893892
   0.75000000  0.50000000  0.31489820
   0.75000000  0.50000000  0.38893892
   0.75000000  0.75000000  0.31489820
   0.75000000  0.75000000  0.38893892
   0.66666667  0.66666667  0.51234012
   0.66666667  0.66666667  0.58638084
   0.50000000  0.75000000  0.61106108
   0.50000000  0.75000000  0.68510180
   0.75000000  0.50000000  0.61106108
   0.75000000  0.50000000  0.68510180
   0.75000000  0.75000000  0.61106108
   0.75000000  0.75000000  0.68510180
   0.50000000  0.50000000  0.61106108
   0.50000000  0.50000000  0.68510180
   0.66666667  0.91666667  0.51234012
   0.66666667  0.91666667  0.58638084
   0.91666667  0.66666667  0.51234012
   0.91666667  0.66666667  0.58638084
   0.91666667  0.91666667  0.51234012
   0.91666667  0.91666667  0.58638084
   0.50000000  1.00000000  0.61106108
   0.50000000  1.00000000  0.68510180
   0.66666667  0.41666667  0.51234012
   0.66666667  0.41666667  0.58638084
   0.91666667  0.16666667  0.51234012
   0.91666667  0.16666667  0.58638084
   0.91666667  0.41666667  0.51234012
   0.91666667  0.41666667  0.58638084
   0.66666667  0.16666667  0.51234012
   0.66666667  0.16666667  0.58638084
   0.50000000  0.25000000  0.61106108
   0.50000000  0.25000000  0.68510180
   0.75000000  0.00000000  0.61106108
   0.75000000  0.00000000  0.68510180
   0.75000000  0.25000000  0.61106108
   0.75000000  0.25000000  0.68510180
   0.00000000  0.50000000  0.61106108
   1.00000000  0.50000000  0.68510180
   0.16666667  0.91666667  0.51234012
   0.16666667  0.91666667  0.58638084
   0.41666667  0.66666667  0.51234012
   0.41666667  0.66666667  0.58638084
   0.41666667  0.91666667  0.51234012
   0.41666667  0.91666667  0.58638084
   0.16666667  0.66666667  0.51234012
   0.16666667  0.66666667  0.58638084
   1.00000000  0.75000000  0.61106108
   1.00000000  0.75000000  0.68510180
   0.25000000  0.50000000  0.61106108
   0.25000000  0.50000000  0.68510180
   0.25000000  0.75000000  0.61106108
   0.25000000  0.75000000  0.68510180
   0.16666667  0.16666667  0.51234012
   0.16666667  0.16666667  0.58638084
   1.00000000  0.25000000  0.61106108
   1.00000000  0.25000000  0.68510180
   0.25000000  0.00000000  0.61106108
   0.25000000  0.00000000  0.68510180
   0.25000000  0.25000000  0.61106108
   0.25000000  0.25000000  0.68510180
   0.00000000  1.00000000  0.61106108
   1.00000000  1.00000000  0.68510180
   0.16666667  0.41666667  0.51234012
   0.16666667  0.41666667  0.58638084
   0.41666667  0.16666667  0.51234012
   0.41666667  0.16666667  0.58638084
   0.41666667  0.41666667  0.51234012
   0.41666667  0.41666667  0.58638084

 position of ions in cartesian coordinates  (Angst):
   0.00000000  0.00000000  8.51549845
  17.27815420  3.32518233  8.44023804
   3.83958982  0.00000000  8.47624571
   5.75938473  3.32518233  8.59796093
  21.11774402  9.97554698  8.51838058
   7.67917964  6.65036465  8.49519246
   9.59897455  9.97554698  8.44921161
  19.19794911  6.65036465  8.36340924
   9.59897455  3.32518233  8.30872336
  11.51876947  0.00000000  8.32879616
  13.43856438  3.32518233  8.34475630
   7.67917964  0.00000000  8.51261176
  11.51876947  6.65036465  8.51224944
  13.43856438  9.97554698  8.48552838
  15.35835929  6.65036465  8.52081361
  17.27815420  9.97554698  8.42216567
  13.43856438  9.97554698 23.10967673
  15.35835929  6.65036465 23.35419001
  17.27815420  9.97554698 23.35915723
  11.51876947  6.65036465 23.36245792
  15.35835929 13.30072930 23.30751384
   9.59897455  3.32518233 23.23963094
  11.51876947  0.00000000 23.46480828
  13.43856438  3.32518233 23.43456490
  19.19794911  6.65036465 23.30828115
  21.11774402  9.97554698 23.25886458
   7.67917964  6.65036465 23.23078761
   9.59897455  9.97554698 23.22049977
  17.27815420  3.32518233 23.35369888
   3.83958982  0.00000000 23.17764293
   5.75938473  3.32518233 23.28694432
  23.03753893 13.30072930 23.15485891
   0.00000000  0.00000000 10.00000000
   0.00000000  0.00000000 12.35125897
  13.43856438  1.10839411 13.13501196
  13.43856438  1.10839411 15.48627093
   7.67917964 11.08394109 13.13501196
   7.67917964 11.08394109 15.48627093
   1.91979491  1.10839411 13.13501196
   1.91979491  1.10839411 15.48627093
  19.19794911 11.08394109 13.13501196
  19.19794911 11.08394109 15.48627093
  17.27815420  3.32518233 10.00000000
  17.27815420  3.32518233 12.35125897
   3.83958982  0.00000000 10.00000000
   3.83958982  0.00000000 12.35125897
   5.75938473  3.32518233 10.00000000
   5.75938473  3.32518233 12.35125897
  15.35835929  4.43357643 13.13501196
  15.35835929  4.43357643 15.48627093
  21.11774402  9.97554698 10.00000000
  21.11774402  9.97554698 12.35125897
   7.67917964  6.65036465 10.00000000
   7.67917964  6.65036465 12.35125897
   9.59897455  9.97554698 10.00000000
   9.59897455  9.97554698 12.35125897
  19.19794911  6.65036465 10.00000000
  19.19794911  6.65036465 12.35125897
  17.27815420  7.75875876 13.13501196
  17.27815420  7.75875876 15.48627093
   3.83958982  4.43357643 13.13501196
   3.83958982  4.43357643 15.48627093
   5.75938473  7.75875876 13.13501196
   5.75938473  7.75875876 15.48627093
  11.51876947 11.08394109 13.13501196
  11.51876947 11.08394109 15.48627093
   9.59897455  3.32518233 10.00000000
   9.59897455  3.32518233 12.35125897
  11.51876947  0.00000000 10.00000000
  11.51876947  0.00000000 12.35125897
  13.43856438  3.32518233 10.00000000
  13.43856438  3.32518233 12.35125897
   7.67917964  0.00000000 10.00000000
   7.67917964  0.00000000 12.35125897
   5.75938473  1.10839411 13.13501196
   5.75938473  1.10839411 15.48627093
  15.35835929 11.08394109 13.13501196
  15.35835929 11.08394109 15.48627093
   9.59897455  1.10839411 13.13501196
   9.59897455  1.10839411 15.48627093
  11.51876947  6.65036465 10.00000000
  11.51876947  6.65036465 12.35125897
   9.59897455  7.75875876 13.13501196
   9.59897455  7.75875876 15.48627093
  11.51876947  4.43357643 13.13501196
  11.51876947  4.43357643 15.48627093
  13.43856438  7.75875876 13.13501196
  13.43856438  7.75875876 15.48627093
   7.67917964  4.43357643 13.13501196
   7.67917964  4.43357643 15.48627093
  13.43856438  9.97554698 10.00000000
  13.43856438  9.97554698 12.35125897
  15.35835929  6.65036465 10.00000000
  15.35835929  6.65036465 12.35125897
  17.27815420  9.97554698 10.00000000
  17.27815420  9.97554698 12.35125897
  15.35835929  8.86715287 16.27002392
  15.35835929  8.86715287 18.62128289
  13.43856438  9.97554698 19.40503589
  13.43856438  9.97554698 21.75629486
  15.35835929  6.65036465 19.40503589
  15.35835929  6.65036465 21.75629486
  17.27815420  9.97554698 19.40503589
  17.27815420  9.97554698 21.75629486
  11.51876947  6.65036465 19.40503589
  11.51876947  6.65036465 21.75629486
  17.27815420 12.19233519 16.27002392
  17.27815420 12.19233519 18.62128289
  19.19794911  8.86715287 16.27002392
  19.19794911  8.86715287 18.62128289
  21.11774402 12.19233519 16.27002392
  21.11774402 12.19233519 18.62128289
  15.35835929 13.30072930 19.40503589
  15.35835929 13.30072930 21.75629486
  13.43856438  5.54197054 16.27002392
  13.43856438  5.54197054 18.62128289
  15.35835929  2.21678822 16.27002392
  15.35835929  2.21678822 18.62128289
  17.27815420  5.54197054 16.27002392
  17.27815420  5.54197054 18.62128289
  11.51876947  2.21678822 16.27002392
  11.51876947  2.21678822 18.62128289
   9.59897455  3.32518233 19.40503589
   9.59897455  3.32518233 21.75629486
  11.51876947  0.00000000 19.40503589
  11.51876947  0.00000000 21.75629486
  13.43856438  3.32518233 19.40503589
  13.43856438  3.32518233 21.75629486
   3.83958982  6.65036465 19.40503589
  19.19794911  6.65036465 21.75629486
   9.59897455 12.19233519 16.27002392
   9.59897455 12.19233519 18.62128289
  11.51876947  8.86715287 16.27002392
  11.51876947  8.86715287 18.62128289
  13.43856438 12.19233519 16.27002392
  13.43856438 12.19233519 18.62128289
   7.67917964  8.86715287 16.27002392
   7.67917964  8.86715287 18.62128289
  21.11774402  9.97554698 19.40503589
  21.11774402  9.97554698 21.75629486
   7.67917964  6.65036465 19.40503589
   7.67917964  6.65036465 21.75629486
   9.59897455  9.97554698 19.40503589
   9.59897455  9.97554698 21.75629486
   3.83958982  2.21678822 16.27002392
   3.83958982  2.21678822 18.62128289
  17.27815420  3.32518233 19.40503589
  17.27815420  3.32518233 21.75629486
   3.83958982  0.00000000 19.40503589
   3.83958982  0.00000000 21.75629486
   5.75938473  3.32518233 19.40503589
   5.75938473  3.32518233 21.75629486
   7.67917964 13.30072930 19.40503589
  23.03753893 13.30072930 21.75629486
   5.75938473  5.54197054 16.27002392
   5.75938473  5.54197054 18.62128289
   7.67917964  2.21678822 16.27002392
   7.67917964  2.21678822 18.62128289
   9.59897455  5.54197054 16.27002392
   9.59897455  5.54197054 18.62128289



--------------------------------------------------------------------------------------------------------


 k-point     1 :   0.0000 0.0000 0.0000  plane waves:  612431
 k-point     2 :   0.3333 0.0000 0.0000  plane waves:  612295
 k-point     3 :   0.3333 0.3333 0.0000  plane waves:  612295
 k-point     4 :   0.0000 0.3333 0.0000  plane waves:  612295
 k-point     5 :  -0.3333 0.3333 0.0000  plane waves:  612066

 maximum and minimum number of plane-waves per node :     38333    38227

 maximum number of plane-waves:    612431
 maximum index in each direction: 
   IXMAX=   43   IYMAX=   43   IZMAX=   89
   IXMIN=  -43   IYMIN=  -43   IZMIN=  -89


 parallel 3D FFT for wavefunctions:
    minimum data exchange during FFTs selected (reduces bandwidth)
 parallel 3D FFT for charge:
    minimum data exchange during FFTs selected (reduces bandwidth)


 total amount of memory used by VASP MPI-rank0   827571. kBytes
=======================================================================

   base                                    :      30000. kBytes
   nonl-proj                               :     122521. kBytes
   fftplans                                :     246108. kBytes
   grid                                    :     155761. kBytes
   one-center                              :         30. kBytes
   wavefun                                 :     273151. kBytes

     INWAV:  cpu time      0.0001: real time      0.0001
 Broyden mixing: mesh for mixing (old mesh)
   NGX = 87   NGY = 87   NGZ =179
  (NGX  =360   NGY  =360   NGZ  =720)
  gives a total of ****** points

 initial charge density was supplied:
 charge density of overlapping atoms calculated
 number of electron     544.0000000 magnetization 
 keeping initial charge density in first step


--------------------------------------------------------------------------------------------------------


 Maximum index for augmentation-charges        12500 (set IRDMAX)


--------------------------------------------------------------------------------------------------------


 First call to EWALD:  gamma=   0.095
 Maximum number of real-space cells   4x   4x   2
 Maximum number of reciprocal cells   2x   2x   4

    FEWALD:  cpu time      0.0281: real time      0.0281


--------------------------------------- Ionic step        1  -------------------------------------------




--------------------------------------- Iteration      1(   1)  ---------------------------------------


    POTLOK:  cpu time      5.2611: real time      5.3009
    SETDIJ:  cpu time      3.7375: real time      3.7399
    EDDIAG:  cpu time    187.1653: real time    187.2792
     EDDAV:  cpu time    909.9897: real time    910.5972
       DOS:  cpu time      0.0091: real time      0.0091
    --------------------------------------------
      LOOP:  cpu time   1106.1632: real time   1106.9268

 eigenvalue-minimisations  :  3560
 total energy-change (2. order) : 0.3342180E+04  (-0.2324249E+05)
 number of electron     544.0000000 magnetization 
 augmentation part      544.0000000 magnetization 

 Free energy of the ion-electron system (eV)
  ---------------------------------------------------
  alpha Z        PSCENC =        96.87183681
  Ewald energy   TEWEN  =     95748.67562916
  -Hartree energ DENC   =   -107760.62095196
  -exchange      EXHF   =         0.00000000
  -V(xc)+E(xc)   XCENC  =      -601.26050124
  PAW double counting   =     10733.40200892    -9445.63403713
  entropy T*S    EENTRO =        -0.15805110
  eigenvalues    EBANDS =       978.72143672
  atomic energy  EATOM  =     13592.18256620
  Solvation  Ediel_sol  =         0.00000000
  ---------------------------------------------------
  free energy    TOTEN  =      3342.17993637 eV

  energy without entropy =     3342.33798747  energy(sigma->0) =     3342.25896192


--------------------------------------------------------------------------------------------------------




--------------------------------------- Iteration      1(   2)  ---------------------------------------


    EDDIAG:  cpu time    187.3261: real time    187.4541
     EDDAV:  cpu time   1050.4340: real time   1051.1472
       DOS:  cpu time      0.0077: real time      0.0076
    --------------------------------------------
      LOOP:  cpu time   1237.7678: real time   1238.6090

 eigenvalue-minimisations  :  4492
 total energy-change (2. order) :-0.4067531E+04  (-0.3791143E+04)
 number of electron     544.0000000 magnetization 
 augmentation part      544.0000000 magnetization 

 Free energy of the ion-electron system (eV)
  ---------------------------------------------------
  alpha Z        PSCENC =        96.87183681
  Ewald energy   TEWEN  =     95748.67562916
  -Hartree energ DENC   =   -107760.62095196
  -exchange      EXHF   =         0.00000000
  -V(xc)+E(xc)   XCENC  =      -601.26050124
  PAW double counting   =     10733.40200892    -9445.63403713
  entropy T*S    EENTRO =        -0.20193419
  eigenvalues    EBANDS =     -3088.76543115
  atomic energy  EATOM  =     13592.18256620
  Solvation  Ediel_sol  =         0.00000000
  ---------------------------------------------------
  free energy    TOTEN  =      -725.35081459 eV

  energy without entropy =     -725.14888040  energy(sigma->0) =     -725.24984750


--------------------------------------------------------------------------------------------------------




--------------------------------------- Iteration      1(   3)  ---------------------------------------


    EDDIAG:  cpu time    187.4067: real time    187.5293
     EDDAV:  cpu time   1034.7731: real time   1035.4668
       DOS:  cpu time      0.0127: real time      0.0127
    --------------------------------------------
      LOOP:  cpu time   1222.1925: real time   1223.0087

 eigenvalue-minimisations  :  4392
 total energy-change (2. order) :-0.6357599E+03  (-0.4638694E+03)
 number of electron     544.0000000 magnetization 
 augmentation part      544.0000000 magnetization 

 Free energy of the ion-electron system (eV)
  ---------------------------------------------------
  alpha Z        PSCENC =        96.87183681
  Ewald energy   TEWEN  =     95748.67562916
  -Hartree energ DENC   =   -107760.62095196
  -exchange      EXHF   =         0.00000000
  -V(xc)+E(xc)   XCENC  =      -601.26050124
  PAW double counting   =     10733.40200892    -9445.63403713
  entropy T*S    EENTRO =        -0.14747457
  eigenvalues    EBANDS =     -3724.57979308
  atomic energy  EATOM  =     13592.18256620
  Solvation  Ediel_sol  =         0.00000000
  ---------------------------------------------------
  free energy    TOTEN  =     -1361.11071689 eV

  energy without entropy =    -1360.96324233  energy(sigma->0) =    -1361.03697961


--------------------------------------------------------------------------------------------------------




--------------------------------------- Iteration      1(   4)  ---------------------------------------


    EDDIAG:  cpu time    187.4007: real time    187.5499
     EDDAV:  cpu time   1096.8163: real time   1097.5680
       DOS:  cpu time      0.0131: real time      0.0131
    --------------------------------------------
      LOOP:  cpu time   1284.2304: real time   1285.1314

 eigenvalue-minimisations  :  4808
 total energy-change (2. order) :-0.3276203E+02  (-0.2198052E+02)
 number of electron     544.0000000 magnetization 
 augmentation part      544.0000000 magnetization 

 Free energy of the ion-electron system (eV)
  ---------------------------------------------------
  alpha Z        PSCENC =        96.87183681
  Ewald energy   TEWEN  =     95748.67562916
  -Hartree energ DENC   =   -107760.62095196
  -exchange      EXHF   =         0.00000000
  -V(xc)+E(xc)   XCENC  =      -601.26050124
  PAW double counting   =     10733.40200892    -9445.63403713
  entropy T*S    EENTRO =        -0.19314110
  eigenvalues    EBANDS =     -3757.29615573
  atomic energy  EATOM  =     13592.18256620
  Solvation  Ediel_sol  =         0.00000000
  ---------------------------------------------------
  free energy    TOTEN  =     -1393.87274609 eV

  energy without entropy =    -1393.67960498  energy(sigma->0) =    -1393.77617554


--------------------------------------------------------------------------------------------------------




--------------------------------------- Iteration      1(   5)  ---------------------------------------


    EDDIAG:  cpu time    187.3985: real time    187.5362
     EDDAV:  cpu time   1219.9371: real time   1220.7749
       DOS:  cpu time      0.0098: real time      0.0098
    CHARGE:  cpu time    103.3937: real time    103.4714
    MIXING:  cpu time      0.0972: real time      0.0973
    --------------------------------------------
      LOOP:  cpu time   1510.8356: real time   1511.8886

 eigenvalue-minimisations  :  5640
 total energy-change (2. order) :-0.1501617E+01  (-0.1122836E+01)
 number of electron     543.9999999 magnetization 
 augmentation part      -28.3756782 magnetization 

 Broyden mixing:
  rms(total) = 0.48239E+01    rms(broyden)= 0.48239E+01
  rms(prec ) = 0.48885E+01
  weight for this iteration     100.00

 Free energy of the ion-electron system (eV)
  ---------------------------------------------------
  alpha Z        PSCENC =        96.87183681
  Ewald energy   TEWEN  =     95748.67562916
  -Hartree energ DENC   =   -107760.62095196
  -exchange      EXHF   =         0.00000000
  -V(xc)+E(xc)   XCENC  =      -601.26050124
  PAW double counting   =     10733.40200892    -9445.63403713
  entropy T*S    EENTRO =        -0.19363821
  eigenvalues    EBANDS =     -3758.79727613
  atomic energy  EATOM  =     13592.18256620
  Solvation  Ediel_sol  =         0.00000000
  ---------------------------------------------------
  free energy    TOTEN  =     -1395.37436358 eV

  energy without entropy =    -1395.18072537  energy(sigma->0) =    -1395.27754448


--------------------------------------------------------------------------------------------------------




--------------------------------------- Iteration      1(   6)  ---------------------------------------


    POTLOK:  cpu time      5.2762: real time      5.2790
    SETDIJ:  cpu time      3.7302: real time      3.7328
    EDDIAG:  cpu time    187.4509: real time    187.5800
     EDDAV:  cpu time   1040.1372: real time   1040.8343
       DOS:  cpu time      0.0081: real time      0.0081
    CHARGE:  cpu time    102.8905: real time    102.9678
    MIXING:  cpu time      0.0977: real time      0.0984
    --------------------------------------------
      LOOP:  cpu time   1339.5911: real time   1340.5139

 eigenvalue-minimisations  :  4400
 total energy-change (2. order) : 0.9935316E+02  (-0.2508197E+01)
 number of electron     543.9999999 magnetization 
 augmentation part      -27.9442576 magnetization 

 Broyden mixing:
  rms(total) = 0.30306E+01    rms(broyden)= 0.30306E+01
  rms(prec ) = 0.30616E+01
  weight for this iteration     100.00

 eigenvalues of (default mixing * dielectric matrix)
  average eigenvalue GAMMA=   2.5824
  2.5824

 Free energy of the ion-electron system (eV)
  ---------------------------------------------------
  alpha Z        PSCENC =        96.87183681
  Ewald energy   TEWEN  =     95748.67562916
  -Hartree energ DENC   =   -108031.10791511
  -exchange      EXHF   =         0.00000000
  -V(xc)+E(xc)   XCENC  =      -562.16067293
  PAW double counting   =     27319.57935441   -26036.90583582
  entropy T*S    EENTRO =        -0.08092134
  eigenvalues    EBANDS =     -3423.07524292
  atomic energy  EATOM  =     13592.18256620
  Solvation  Ediel_sol  =         0.00000000
  ---------------------------------------------------
  free energy    TOTEN  =     -1296.02120154 eV

  energy without entropy =    -1295.94028020  energy(sigma->0) =    -1295.98074087


--------------------------------------------------------------------------------------------------------




--------------------------------------- Iteration      1(   7)  ---------------------------------------


    POTLOK:  cpu time      5.2614: real time      5.2779
    SETDIJ:  cpu time      3.7342: real time      3.7367
    EDDIAG:  cpu time    187.3186: real time    187.4382
     EDDAV:  cpu time   1018.5288: real time   1019.2176
       DOS:  cpu time      0.0073: real time      0.0073
    CHARGE:  cpu time    103.0959: real time    103.1717
    MIXING:  cpu time      0.1003: real time      0.1012
    --------------------------------------------
      LOOP:  cpu time   1318.0461: real time   1318.9373

 eigenvalue-minimisations  :  4280
 total energy-change (2. order) :-0.4704386E+01  (-0.2387929E+01)
 number of electron     543.9999999 magnetization 
 augmentation part      -27.9099025 magnetization 

 Broyden mixing:
  rms(total) = 0.47901E+00    rms(broyden)= 0.47901E+00
  rms(prec ) = 0.56003E+00
  weight for this iteration     100.00

 eigenvalues of (default mixing * dielectric matrix)
  average eigenvalue GAMMA=   1.7231
  0.9217  2.5245

 Free energy of the ion-electron system (eV)
  ---------------------------------------------------
  alpha Z        PSCENC =        96.87183681
  Ewald energy   TEWEN  =     95748.67562916
  -Hartree energ DENC   =   -108121.35630779
  -exchange      EXHF   =         0.00000000
  -V(xc)+E(xc)   XCENC  =      -546.63323826
  PAW double counting   =     70807.92642468   -69531.92716700
  entropy T*S    EENTRO =        -0.12479971
  eigenvalues    EBANDS =     -3346.34053136
  atomic energy  EATOM  =     13592.18256620
  Solvation  Ediel_sol  =         0.00000000
  ---------------------------------------------------
  free energy    TOTEN  =     -1300.72558727 eV

  energy without entropy =    -1300.60078756  energy(sigma->0) =    -1300.66318741


--------------------------------------------------------------------------------------------------------




--------------------------------------- Iteration      1(   8)  ---------------------------------------


    POTLOK:  cpu time      5.2613: real time      5.2697
    SETDIJ:  cpu time      3.7348: real time      3.7373
    EDDIAG:  cpu time    187.2410: real time    187.3646
     EDDAV:  cpu time   1037.2271: real time   1037.9384
       DOS:  cpu time      0.0068: real time      0.0068
    CHARGE:  cpu time    102.9431: real time    103.0394
    MIXING:  cpu time      0.1012: real time      0.1012
    --------------------------------------------
      LOOP:  cpu time   1336.5153: real time   1337.4574

 eigenvalue-minimisations  :  4400
 total energy-change (2. order) : 0.2435115E+01  (-0.5954839E+00)
 number of electron     543.9999999 magnetization 
 augmentation part      -27.6800199 magnetization 

 Broyden mixing:
  rms(total) = 0.17600E+00    rms(broyden)= 0.17600E+00
  rms(prec ) = 0.19162E+00
  weight for this iteration     100.00

 eigenvalues of (default mixing * dielectric matrix)
  average eigenvalue GAMMA=   1.5423
  2.6193  1.2128  0.7949

 Free energy of the ion-electron system (eV)
  ---------------------------------------------------
  alpha Z        PSCENC =        96.87183681
  Ewald energy   TEWEN  =     95748.67562916
  -Hartree energ DENC   =   -108259.21560270
  -exchange      EXHF   =         0.00000000
  -V(xc)+E(xc)   XCENC  =      -547.80508471
  PAW double counting   =     74060.53510701   -72784.65360582
  entropy T*S    EENTRO =        -0.08758653
  eigenvalues    EBANDS =     -3204.79373192
  atomic energy  EATOM  =     13592.18256620
  Solvation  Ediel_sol  =         0.00000000
  ---------------------------------------------------
  free energy    TOTEN  =     -1298.29047248 eV

  energy without entropy =    -1298.20288595  energy(sigma->0) =    -1298.24667922


--------------------------------------------------------------------------------------------------------




--------------------------------------- Iteration      1(   9)  ---------------------------------------


    POTLOK:  cpu time      5.2499: real time      5.2668
    SETDIJ:  cpu time      3.7336: real time      3.7359
    EDDIAG:  cpu time    187.2101: real time    187.3307
     EDDAV:  cpu time    997.6705: real time    998.3399
       DOS:  cpu time      0.0135: real time      0.0135
    CHARGE:  cpu time    102.8762: real time    102.9535
    MIXING:  cpu time      0.1040: real time      0.1040
    --------------------------------------------
      LOOP:  cpu time   1296.8577: real time   1297.7443

 eigenvalue-minimisations  :  4136
 total energy-change (2. order) :-0.1143471E+01  (-0.1869989E+00)
 number of electron     543.9999999 magnetization 
 augmentation part      -27.6163094 magnetization 

 Broyden mixing:
  rms(total) = 0.11734E+00    rms(broyden)= 0.11734E+00
  rms(prec ) = 0.13565E+00
  weight for this iteration     100.00

 eigenvalues of (default mixing * dielectric matrix)
  average eigenvalue GAMMA=   1.3668
  2.6411  1.0081  1.0081  0.8097

 Free energy of the ion-electron system (eV)
  ---------------------------------------------------
  alpha Z        PSCENC =        96.87183681
  Ewald energy   TEWEN  =     95748.67562916
  -Hartree energ DENC   =   -108283.33021634
  -exchange      EXHF   =         0.00000000
  -V(xc)+E(xc)   XCENC  =      -547.82290612
  PAW double counting   =     75311.97905579   -74035.71330699
  entropy T*S    EENTRO =        -0.09549686
  eigenvalues    EBANDS =     -3182.18110477
  atomic energy  EATOM  =     13592.18256620
  Solvation  Ediel_sol  =         0.00000000
  ---------------------------------------------------
  free energy    TOTEN  =     -1299.43394311 eV

  energy without entropy =    -1299.33844625  energy(sigma->0) =    -1299.38619468


--------------------------------------------------------------------------------------------------------




--------------------------------------- Iteration      1(  10)  ---------------------------------------


    POTLOK:  cpu time      5.2647: real time      5.2681
    SETDIJ:  cpu time      3.7318: real time      3.7340
    EDDIAG:  cpu time    187.2923: real time    187.4149
     EDDAV:  cpu time   1024.0551: real time   1024.7427
       DOS:  cpu time      0.0138: real time      0.0138
    CHARGE:  cpu time    103.0165: real time    103.0908
    MIXING:  cpu time      0.1050: real time      0.1052
    --------------------------------------------
      LOOP:  cpu time   1323.4791: real time   1324.3695

 eigenvalue-minimisations  :  4320
 total energy-change (2. order) : 0.1115495E+01  (-0.1104086E+00)
 number of electron     543.9999999 magnetization 
 augmentation part      -27.6574034 magnetization 

 Broyden mixing:
  rms(total) = 0.93451E-01    rms(broyden)= 0.93451E-01
  rms(prec ) = 0.11125E+00
  weight for this iteration     100.00

 eigenvalues of (default mixing * dielectric matrix)
  average eigenvalue GAMMA=   1.2899
  2.6180  1.1358  1.1358  0.9317  0.6283

 Free energy of the ion-electron system (eV)
  ---------------------------------------------------
  alpha Z        PSCENC =        96.87183681
  Ewald energy   TEWEN  =     95748.67562916
  -Hartree energ DENC   =   -108294.46968726
  -exchange      EXHF   =         0.00000000
  -V(xc)+E(xc)   XCENC  =      -547.77801650
  PAW double counting   =     75449.93849908   -74173.53601020
  entropy T*S    EENTRO =        -0.11561086
  eigenvalues    EBANDS =     -3170.08765423
  atomic energy  EATOM  =     13592.18256620
  Solvation  Ediel_sol  =         0.00000000
  ---------------------------------------------------
  free energy    TOTEN  =     -1298.31844779 eV

  energy without entropy =    -1298.20283693  energy(sigma->0) =    -1298.26064236


--------------------------------------------------------------------------------------------------------




[...]


    POTLOK:  cpu time      5.2786: real time      5.2829
    SETDIJ:  cpu time      3.7262: real time      3.7283
    EDDIAG:  cpu time    187.0334: real time    187.1595
     EDDAV:  cpu time   1081.6804: real time   1082.3912
       DOS:  cpu time      0.0079: real time      0.0079
    CHARGE:  cpu time    105.3112: real time    105.3866
    MIXING:  cpu time      0.6990: real time      0.6999
    --------------------------------------------
      LOOP:  cpu time   1383.7367: real time   1384.6564

 eigenvalue-minimisations  :  4724
 total energy-change (2. order) : 0.5719589E+01  (-0.1361028E+02)
 number of electron     543.9999999 magnetization 
 augmentation part      -28.6919002 magnetization 

 Broyden mixing:
  rms(total) = 0.67066E+00    rms(broyden)= 0.67066E+00
  rms(prec ) = 0.72605E+00
  weight for this iteration     100.00

 eigenvalues of (default mixing * dielectric matrix)
  average eigenvalue GAMMA=   0.2743
  2.5229  2.5229  1.3168  1.3168  0.7714  0.7714  0.5257  0.5257  0.3593  0.3593
  0.1773  0.1773  0.0482  0.0482  0.0415  0.0255  0.0246  0.0246  0.0243  0.0243
  0.0176  0.0176  0.0170  0.0116  0.0102  0.0102  0.0097  0.0097  0.0076  0.0076
  0.0066  0.0066  0.0061  0.0066  0.0081  0.0081  0.0058  0.0042  0.0042  0.0037
  0.0037  0.0022  0.0023

 Free energy of the ion-electron system (eV)
  ---------------------------------------------------
  alpha Z        PSCENC =        96.87183681
  Ewald energy   TEWEN  =     95748.67562916
  -Hartree energ DENC   =   -108362.13716078
  -exchange      EXHF   =         0.00000000
  -V(xc)+E(xc)   XCENC  =      -548.22830991
  PAW double counting   =     74630.28826242   -73353.31055272
  entropy T*S    EENTRO =        -0.66011818
  eigenvalues    EBANDS =     -2875.37179335
  atomic energy  EATOM  =     13592.18256620
  Solvation  Ediel_sol  =         0.00000000
  ---------------------------------------------------
  free energy    TOTEN  =     -1071.68964036 eV

  energy without entropy =    -1071.02952218  energy(sigma->0) =    -1071.35958127


--------------------------------------------------------------------------------------------------------




--------------------------------------- Iteration      1(  49)  ---------------------------------------


    POTLOK:  cpu time      5.2789: real time      5.2823
    SETDIJ:  cpu time      3.7253: real time      3.7276
    EDDIAG:  cpu time    186.9633: real time    187.0806
     EDDAV:  cpu time   1083.2996: real time   1084.0164
       DOS:  cpu time      0.0099: real time      0.0099
    CHARGE:  cpu time    105.3517: real time    105.4327
    MIXING:  cpu time      0.7241: real time      0.7242
    --------------------------------------------
      LOOP:  cpu time   1385.3528: real time   1386.2737

 eigenvalue-minimisations  :  4744
 total energy-change (2. order) : 0.4671458E+01  (-0.1421505E+02)
 number of electron     543.9999999 magnetization 
 augmentation part      -28.7140401 magnetization 

 Broyden mixing:
  rms(total) = 0.68627E+00    rms(broyden)= 0.68627E+00
  rms(prec ) = 0.74583E+00
  weight for this iteration     100.00

 eigenvalues of (default mixing * dielectric matrix)
  average eigenvalue GAMMA=   0.2681
  2.5229  2.5229  1.3168  1.3168  0.7713  0.7713  0.5257  0.5257  0.3594  0.3594
  0.1772  0.1772  0.0482  0.0482  0.0415  0.0255  0.0247  0.0247  0.0243  0.0243
  0.0176  0.0176  0.0169  0.0116  0.0102  0.0102  0.0097  0.0097  0.0076  0.0076
  0.0067  0.0067  0.0066  0.0061  0.0081  0.0081  0.0043  0.0043  0.0058  0.0006
  0.0036  0.0036  0.0022  0.0023

 Free energy of the ion-electron system (eV)
  ---------------------------------------------------
  alpha Z        PSCENC =        96.87183681
  Ewald energy   TEWEN  =     95748.67562916
  -Hartree energ DENC   =   -108361.97665084
  -exchange      EXHF   =         0.00000000
  -V(xc)+E(xc)   XCENC  =      -548.34759539
  PAW double counting   =     74627.32115198   -73350.34287973
  entropy T*S    EENTRO =        -0.66839261
  eigenvalues    EBANDS =     -2870.73384763
  atomic energy  EATOM  =     13592.18256620
  Solvation  Ediel_sol  =         0.00000000
  ---------------------------------------------------
  free energy    TOTEN  =     -1067.01818205 eV

  energy without entropy =    -1066.34978944  energy(sigma->0) =    -1066.68398574


--------------------------------------------------------------------------------------------------------




--------------------------------------- Iteration      1(  50)  ---------------------------------------


    POTLOK:  cpu time      5.2716: real time      5.2755
    SETDIJ:  cpu time      3.7311: real time      3.7330
    EDDIAG:  cpu time    186.9723: real time    187.0918
     EDDAV:  cpu time   1078.1782: real time   1078.9106
       DOS:  cpu time      0.0105: real time      0.0105
    CHARGE:  cpu time    105.6259: real time    105.7077
    MIXING:  cpu time      0.6693: real time      0.6702
    --------------------------------------------
      LOOP:  cpu time   1380.4588: real time   1381.3994

 eigenvalue-minimisations  :  4712
 total energy-change (2. order) : 0.4571949E+01  (-0.1374945E+02)
 number of electron     543.9999999 magnetization 
 augmentation part      -28.7102898 magnetization 

 Broyden mixing:
  rms(total) = 0.69067E+00    rms(broyden)= 0.69067E+00
  rms(prec ) = 0.74796E+00
  weight for this iteration     100.00

 eigenvalues of (default mixing * dielectric matrix)
  average eigenvalue GAMMA=   0.1375
  2.6535  0.6684  0.5108  0.5108  0.3435  0.1735  0.1735  0.0494  0.0494  0.0404
  0.0289  0.0289  0.0268  0.0268  0.0245  0.0142  0.0142  0.0137  0.0137  0.0120
  0.0106  0.0106  0.0089  0.0089  0.0055  0.0055  0.0065  0.0065  0.0067  0.0053
  0.0076  0.0076  0.0055  0.0055  0.0061  0.0039  0.0039  0.0038  0.0022  0.0023

 Free energy of the ion-electron system (eV)
  ---------------------------------------------------
  alpha Z        PSCENC =        96.87183681
  Ewald energy   TEWEN  =     95748.67562916
  -Hartree energ DENC   =   -108361.95682256
  -exchange      EXHF   =         0.00000000
  -V(xc)+E(xc)   XCENC  =      -548.37857820
  PAW double counting   =     74627.01728795   -73350.03892886
  entropy T*S    EENTRO =        -0.69038905
  eigenvalues    EBANDS =     -2866.12883446
  atomic energy  EATOM  =     13592.18256620
  Solvation  Ediel_sol  =         0.00000000
  ---------------------------------------------------
  free energy    TOTEN  =     -1062.44623301 eV

  energy without entropy =    -1061.75584397  energy(sigma->0) =    -1062.10103849


--------------------------------------------------------------------------------------------------------




--------------------------------------- Iteration      1(  51)  ---------------------------------------


    POTLOK:  cpu time      5.2697: real time      5.2742
    SETDIJ:  cpu time      3.7294: real time      3.7321
    EDDIAG:  cpu time    186.9878: real time    187.0944
     EDDAV:  cpu time   1075.6153: real time   1076.3317
       DOS:  cpu time      0.0101: real time      0.0101
    CHARGE:  cpu time    105.5897: real time    105.6693
    MIXING:  cpu time      0.6471: real time      0.6473
    --------------------------------------------
      LOOP:  cpu time   1377.8492: real time   1378.7591

 eigenvalue-minimisations  :  4692
 total energy-change (2. order) : 0.5260301E+01  (-0.1501205E+02)
 number of electron     543.9999999 magnetization 
 augmentation part      -28.7064524 magnetization 

 Broyden mixing:
  rms(total) = 0.71107E+00    rms(broyden)= 0.71107E+00
  rms(prec ) = 0.76119E+00
  weight for this iteration     100.00

 eigenvalues of (default mixing * dielectric matrix)
  average eigenvalue GAMMA=   0.1343
  2.6524  0.6721  0.5104  0.5104  0.3467  0.1712  0.1712  0.0489  0.0489  0.0402
  0.0279  0.0279  0.0242  0.0242  0.0243  0.0154  0.0135  0.0135  0.0130  0.0130
  0.0121  0.0103  0.0103  0.0091  0.0091  0.0051  0.0051  0.0064  0.0064  0.0065
  0.0048  0.0068  0.0068  0.0078  0.0078  0.0061  0.0039  0.0039  0.0039  0.0022
  0.0023

 Free energy of the ion-electron system (eV)
  ---------------------------------------------------
  alpha Z        PSCENC =        96.87183681
  Ewald energy   TEWEN  =     95748.67562916
  -Hartree energ DENC   =   -108363.33840777
  -exchange      EXHF   =         0.00000000
  -V(xc)+E(xc)   XCENC  =      -548.43997064
  PAW double counting   =     74681.88970322   -73404.92711473
  entropy T*S    EENTRO =        -0.68570745
  eigenvalues    EBANDS =     -2859.41446692
  atomic energy  EATOM  =     13592.18256620
  Solvation  Ediel_sol  =         0.00000000
  ---------------------------------------------------
  free energy    TOTEN  =     -1057.18593212 eV

  energy without entropy =    -1056.50022466  energy(sigma->0) =    -1056.84307839


--------------------------------------------------------------------------------------------------------




--------------------------------------- Iteration      1(  52)  ---------------------------------------


    POTLOK:  cpu time      5.2743: real time      5.2781
    SETDIJ:  cpu time      3.7277: real time      3.7298
    EDDIAG:  cpu time    186.9946: real time    187.1185
     EDDAV:  cpu time   1051.9106: real time   1052.6002
       DOS:  cpu time      0.0122: real time      0.0122
    CHARGE:  cpu time    105.6463: real time    105.7175
    MIXING:  cpu time      0.6713: real time      0.6719
    --------------------------------------------
      LOOP:  cpu time   1354.2368: real time   1355.1282

 eigenvalue-minimisations  :  4528
 total energy-change (2. order) : 0.4615103E+01  (-0.1516303E+02)
 number of electron     543.9999999 magnetization 
 augmentation part      -28.7235195 magnetization 

 Broyden mixing:
  rms(total) = 0.72342E+00    rms(broyden)= 0.72342E+00
  rms(prec ) = 0.77608E+00
  weight for this iteration     100.00

 eigenvalues of (default mixing * dielectric matrix)
  average eigenvalue GAMMA=   0.1311
  2.6522  0.6720  0.5097  0.5097  0.3486  0.1696  0.1696  0.0487  0.0487  0.0400
  0.0279  0.0279  0.0246  0.0237  0.0237  0.0162  0.0143  0.0143  0.0134  0.0134
  0.0113  0.0113  0.0120  0.0092  0.0092  0.0064  0.0064  0.0065  0.0052  0.0052
  0.0046  0.0066  0.0066  0.0078  0.0078  0.0059  0.0039  0.0039  0.0039  0.0002
  0.0022  0.0023

 Free energy of the ion-electron system (eV)
  ---------------------------------------------------
  alpha Z        PSCENC =        96.87183681
  Ewald energy   TEWEN  =     95748.67562916
  -Hartree energ DENC   =   -108363.33801225
  -exchange      EXHF   =         0.00000000
  -V(xc)+E(xc)   XCENC  =      -548.55242714
  PAW double counting   =     74681.88551547   -73404.92291910
  entropy T*S    EENTRO =        -0.72034786
  eigenvalues    EBANDS =     -2854.65267049
  atomic energy  EATOM  =     13592.18256620
  Solvation  Ediel_sol  =         0.00000000
  ---------------------------------------------------
  free energy    TOTEN  =     -1052.57082920 eV

  energy without entropy =    -1051.85048134  energy(sigma->0) =    -1052.21065527


--------------------------------------------------------------------------------------------------------




--------------------------------------- Iteration      1(  53)  ---------------------------------------


    POTLOK:  cpu time      5.2748: real time      5.2784
    SETDIJ:  cpu time      3.7305: real time      3.7328
    EDDIAG:  cpu time    187.0355: real time    187.1586
     EDDAV:  cpu time   1074.6672: real time   1075.3941
       DOS:  cpu time      0.0086: real time      0.0086
    CHARGE:  cpu time    105.6097: real time    105.6964
    MIXING:  cpu time      0.6986: real time      0.6994
    --------------------------------------------
      LOOP:  cpu time   1377.0249: real time   1377.9682

 eigenvalue-minimisations  :  4676
 total energy-change (2. order) : 0.4614705E+01  (-0.1578181E+02)
 number of electron     543.9999999 magnetization 
 augmentation part      -28.7467226 magnetization 

 Broyden mixing:
  rms(total) = 0.73683E+00    rms(broyden)= 0.73683E+00
  rms(prec ) = 0.78337E+00
  weight for this iteration     100.00

 eigenvalues of (default mixing * dielectric matrix)
  average eigenvalue GAMMA=   0.1282
  2.6518  0.6762  0.5082  0.5082  0.3496  0.1696  0.1696  0.0484  0.0484  0.0399
  0.0266  0.0266  0.0241  0.0228  0.0228  0.0181  0.0181  0.0170  0.0136  0.0136
  0.0120  0.0106  0.0106  0.0094  0.0094  0.0064  0.0064  0.0065  0.0053  0.0053
  0.0065  0.0065  0.0077  0.0077  0.0044  0.0008  0.0060  0.0039  0.0039  0.0039
  0.0014  0.0022  0.0023

 Free energy of the ion-electron system (eV)
  ---------------------------------------------------
  alpha Z        PSCENC =        96.87183681
  Ewald energy   TEWEN  =     95748.67562916
  -Hartree energ DENC   =   -108363.34763004
  -exchange      EXHF   =         0.00000000
  -V(xc)+E(xc)   XCENC  =      -548.61216286
  PAW double counting   =     74681.95458214   -73404.99201605
  entropy T*S    EENTRO =        -0.63285458
  eigenvalues    EBANDS =     -2850.05607472
  atomic energy  EATOM  =     13592.18256620
  Solvation  Ediel_sol  =         0.00000000
  ---------------------------------------------------
  free energy    TOTEN  =     -1047.95612393 eV

  energy without entropy =    -1047.32326935  energy(sigma->0) =    -1047.63969664


--------------------------------------------------------------------------------------------------------




--------------------------------------- Iteration      1(  54)  ---------------------------------------


    POTLOK:  cpu time      5.2776: real time      5.2804
    SETDIJ:  cpu time      3.7303: real time      3.7323
    EDDIAG:  cpu time    187.1673: real time    187.2847
     EDDAV:  cpu time   1070.2777: real time   1070.9917
       DOS:  cpu time      0.0207: real time      0.0208
    CHARGE:  cpu time    105.6611: real time    105.7377
    MIXING:  cpu time      0.7252: real time      0.7254
    --------------------------------------------
      LOOP:  cpu time   1372.8600: real time   1373.7730

 eigenvalue-minimisations  :  4652
 total energy-change (2. order) : 0.4626029E+01  (-0.1534613E+02)
 number of electron     543.9999999 magnetization 
 augmentation part      -28.7547477 magnetization 

 Broyden mixing:
  rms(total) = 0.74903E+00    rms(broyden)= 0.74903E+00
  rms(prec ) = 0.79380E+00
  weight for this iteration     100.00

 eigenvalues of (default mixing * dielectric matrix)
  average eigenvalue GAMMA=   0.1253
  2.6519  0.6766  0.5086  0.5086  0.3492  0.1695  0.1695  0.0484  0.0484  0.0397
  0.0264  0.0264  0.0241  0.0223  0.0223  0.0182  0.0182  0.0168  0.0135  0.0135
  0.0120  0.0106  0.0106  0.0093  0.0093  0.0077  0.0077  0.0065  0.0065  0.0065
  0.0063  0.0063  0.0052  0.0052  0.0045  0.0060  0.0039  0.0039  0.0009  0.0009
  0.0039  0.0024  0.0022  0.0016

 Free energy of the ion-electron system (eV)
  ---------------------------------------------------
  alpha Z        PSCENC =        96.87183681
  Ewald energy   TEWEN  =     95748.67562916
  -Hartree energ DENC   =   -108363.36985411
  -exchange      EXHF   =         0.00000000
  -V(xc)+E(xc)   XCENC  =      -548.68784879
  PAW double counting   =     74681.93066046   -73404.96813128
  entropy T*S    EENTRO =        -0.66224061
  eigenvalues    EBANDS =     -2845.30271315
  atomic energy  EATOM  =     13592.18256620
  Solvation  Ediel_sol  =         0.00000000
  ---------------------------------------------------
  free energy    TOTEN  =     -1043.33009530 eV

  energy without entropy =    -1042.66785469  energy(sigma->0) =    -1042.99897499


--------------------------------------------------------------------------------------------------------




--------------------------------------- Iteration      1(  55)  ---------------------------------------


    POTLOK:  cpu time      5.2681: real time      5.2729
    SETDIJ:  cpu time      3.7400: real time      3.7422
    EDDIAG:  cpu time    187.0927: real time    187.2166
     EDDAV:  cpu time   1086.2751: real time   1087.0106
       DOS:  cpu time      0.0115: real time      0.0115
    CHARGE:  cpu time    105.6631: real time    105.7421
    MIXING:  cpu time      0.6712: real time      0.6721
    --------------------------------------------
      LOOP:  cpu time   1388.7217: real time   1389.6679

 eigenvalue-minimisations  :  4760
 total energy-change (2. order) : 0.5162486E+01  (-0.1585453E+02)
 number of electron     543.9999999 magnetization 
 augmentation part      -28.7546768 magnetization 

 Broyden mixing:
  rms(total) = 0.76469E+00    rms(broyden)= 0.76469E+00
  rms(prec ) = 0.80771E+00
  weight for this iteration     100.00

 eigenvalues of (default mixing * dielectric matrix)
  average eigenvalue GAMMA=   0.0188
  0.1354  0.1354  0.0461  0.0461  0.0406  0.0269  0.0262  0.0262  0.0255  0.0255
  0.0167  0.0154  0.0154  0.0134  0.0134  0.0117  0.0103  0.0103  0.0098  0.0098
  0.0074  0.0074  0.0066  0.0066  0.0073  0.0062  0.0062  0.0057  0.0044  0.0044
  0.0066  0.0028  0.0011  0.0038  0.0038  0.0039  0.0013  0.0013  0.0025  0.0021

 Free energy of the ion-electron system (eV)
  ---------------------------------------------------
  alpha Z        PSCENC =        96.87183681
  Ewald energy   TEWEN  =     95748.67562916
  -Hartree energ DENC   =   -108363.37344948
  -exchange      EXHF   =         0.00000000
  -V(xc)+E(xc)   XCENC  =      -548.75065191
  PAW double counting   =     74681.70641883   -73404.74376782
  entropy T*S    EENTRO =        -0.68169363
  eigenvalues    EBANDS =     -2840.05449703
  atomic energy  EATOM  =     13592.18256620
  Solvation  Ediel_sol  =         0.00000000
  ---------------------------------------------------
  free energy    TOTEN  =     -1038.16760886 eV

  energy without entropy =    -1037.48591523  energy(sigma->0) =    -1037.82676205


--------------------------------------------------------------------------------------------------------




--------------------------------------- Iteration      1(  56)  ---------------------------------------


    POTLOK:  cpu time      5.2687: real time      5.3595
    SETDIJ:  cpu time      3.7301: real time      3.7325
    EDDIAG:  cpu time    187.1349: real time    187.2572
     EDDAV:  cpu time   1083.5157: real time   1084.2165
       DOS:  cpu time      0.0080: real time      0.0080
    CHARGE:  cpu time    105.7899: real time    105.8659
    MIXING:  cpu time      0.6477: real time      0.6486
    --------------------------------------------
      LOOP:  cpu time   1386.0952: real time   1387.0883

 eigenvalue-minimisations  :  4744
 total energy-change (2. order) : 0.4796858E+01  (-0.1673815E+02)
 number of electron     543.9999999 magnetization 
 augmentation part      -28.7656512 magnetization 

 Broyden mixing:
  rms(total) = 0.77598E+00    rms(broyden)= 0.77598E+00
  rms(prec ) = 0.81613E+00
  weight for this iteration     100.00

 eigenvalues of (default mixing * dielectric matrix)
  average eigenvalue GAMMA=   0.0185
  0.1354  0.1354  0.0461  0.0461  0.0408  0.0262  0.0262  0.0273  0.0258  0.0258
  0.0166  0.0153  0.0153  0.0139  0.0139  0.0099  0.0099  0.0118  0.0098  0.0098
  0.0071  0.0062  0.0062  0.0055  0.0055  0.0051  0.0039  0.0039  0.0066  0.0066
  0.0072  0.0072  0.0068  0.0010  0.0038  0.0038  0.0039  0.0019  0.0019  0.0024
  0.0021

 Free energy of the ion-electron system (eV)
  ---------------------------------------------------
  alpha Z        PSCENC =        96.87183681
  Ewald energy   TEWEN  =     95748.67562916
  -Hartree energ DENC   =   -108365.29341266
  -exchange      EXHF   =         0.00000000
  -V(xc)+E(xc)   XCENC  =      -548.85701168
  PAW double counting   =     74656.15510460   -73379.18979167
  entropy T*S    EENTRO =        -0.65875291
  eigenvalues    EBANDS =     -2833.25691864
  atomic energy  EATOM  =     13592.18256620
  Solvation  Ediel_sol  =         0.00000000
  ---------------------------------------------------
