 vasp.6.5.0 16Dec24 (build Jan 20 2025 08:32:48) complex                         
 executed on        HPECrayEX_GCC date 2025.07.28  21:03:35
 running  128 mpi-ranks, with    1 threads/rank, on    1 nodes
 distrk:  each k-point on  128 cores,    1 groups
 distr:  one band on NCORE=  16 cores,    8 groups


--------------------------------------------------------------------------------------------------------


 INCAR:
   SYSTEM = a-Si SPC
   NCORE = 16
   ISTART = 1
   ICHARG = 1
   ISPIN = 1
   ISYM = 1
   EDIFF = 1E-6
   NELM = 150
   EDIFFG = -0.01
   NSW = 0
   ISIF = 2
   IBRION = -1
   PREC = Accurate
   ENCUT = 1200
   KSPACING = 0.23
   KGAMMA = .TRUE.
   METAGGA = SCAN
   LASPH = .TRUE.
   LDIAG = .FALSE.
   LMIXTAU = .TRUE.
   ADDGRID = .TRUE.
   ALGO = Normal
   ISMEAR = 0
   SIGMA = 0.1
   LORBIT = 11
   NEDOS = 2000
   LWAVE = .FALSE.
   LCHARG = .FALSE.

 POTCAR:    PAW_PBE H 15Jun2001                   
 POTCAR:    PAW_PBE Si 05Jan2001                  
 POTCAR:    PAW_PBE H 15Jun2001                   
   SHA256 =  030f79b5d3ab3cf0e668861823c8fb652ff669f3e15e46930bd03bfd63a607b6 H/POTCAR              
   COPYR  = (c) Copyright 15Jun2001 Georg Kresse                                                    
   COPYR  = This file is part of the software VASP. Any use, copying, and all other rights are regul
   COPYR  = If you do not have a valid VASP license, you may not use, copy or distribute this file. 
   VRHFIN =H: ultrasoft test                                                                        
   LEXCH  = PE                                                                                      
   EATOM  =    12.4884 eV,    0.9179 Ry                                                             
                                                                                                    
   TITEL  = PAW_PBE H 15Jun2001                                                                     
   LULTRA =        F    use ultrasoft PP ?                                                          
   IUNSCR =        0    unscreen: 0-lin 1-nonlin 2-no                                               
   RPACOR =    0.000    partial core radius                                                         
   POMASS =    1.000; ZVAL   =    1.000    mass and valenz                                          
   RCORE  =    1.100    outmost cutoff radius                                                       
   RWIGS  =    0.700; RWIGS  =    0.370    wigner-seitz radius (au A)                               
   ENMAX  =  250.000; ENMIN  =  200.000 eV                                                          
   RCLOC  =    0.701    cutoff for local pot                                                        
   LCOR   =        T    correct aug charges                                                         
   LPAW   =        T    paw PP                                                                      
   EAUG   =  400.000                                                                                
   RMAX   =    1.123    core radius for proj-oper                                                   
   RAUG   =    1.200    factor for augmentation sphere                                              
   RDEP   =    1.112    radius for radial grids                                                     
   RDEPT  =    0.926    core radius for aug-charge                                                  
                                                                                                    
   Atomic configuration                                                                             
    2 entries                                                                                       
     n  l   j            E        occ.                                                              
     1  0  0.50        -6.4927   1.0000                                                             
     2  1  0.50        -3.4015   0.0000                                                             
   Description                                                                                      
     l       E           TYP  RCUT    TYP  RCUT                                                     
     0     -6.4927494     23  1.100                                                                 
     0      6.8029130     23  1.100                                                                 
     1     -4.0817478     23  1.100                                                                 
  local pseudopotential read in
  atomic valenz-charges read in
  non local Contribution for L=           0  read in
    real space projection operators read in
  non local Contribution for L=           0  read in
    real space projection operators read in
  non local Contribution for L=           1  read in
    real space projection operators read in
    PAW grid and wavefunctions read in

   number of l-projection  operators is LMAX  =           3
   number of lm-projection operators is LMMAX =           5

 POTCAR:    PAW_PBE Si 05Jan2001                  
   SHA256 =  79d9987ad8750f624c4d6acb2a16d13abf6a777132adc04dc6c8399be72b42bb Si/POTCAR             
   COPYR  = (c) Copyright 05Jan2001 Georg Kresse                                                    
   COPYR  = This file is part of the software VASP. Any use, copying, and all other rights are regul
   COPYR  = If you do not have a valid VASP license, you may not use, copy or distribute this file. 
   VRHFIN =Si: s2p2                                                                                 
   LEXCH  = PE                                                                                      
   EATOM  =   103.0669 eV,    7.5752 Ry                                                             
                                                                                                    
   TITEL  = PAW_PBE Si 05Jan2001                                                                    
   LULTRA =        F    use ultrasoft PP ?                                                          
   IUNSCR =        1    unscreen: 0-lin 1-nonlin 2-no                                               
   RPACOR =    1.500    partial core radius                                                         
   POMASS =   28.085; ZVAL   =    4.000    mass and valenz                                          
   RCORE  =    1.900    outmost cutoff radius                                                       
   RWIGS  =    2.480; RWIGS  =    1.312    wigner-seitz radius (au A)                               
   ENMAX  =  245.345; ENMIN  =  184.009 eV                                                          
   ICORE  =        2    local potential                                                             
   LCOR   =        T    correct aug charges                                                         
   LPAW   =        T    paw PP                                                                      
   EAUG   =  322.069                                                                                
   DEXC   =    0.000                                                                                
   RMAX   =    1.950    core radius for proj-oper                                                   
   RAUG   =    1.300    factor for augmentation sphere                                              
   RDEP   =    1.993    radius for radial grids                                                     
   RDEPT  =    1.837    core radius for aug-charge                                                  
                                                                                                    
   Atomic configuration                                                                             
    6 entries                                                                                       
     n  l   j            E        occ.                                                              
     1  0  0.50     -1785.8828   2.0000                                                             
     2  0  0.50      -139.4969   2.0000                                                             
     2  1  1.50       -95.5546   6.0000                                                             
     3  0  0.50       -10.8127   2.0000                                                             
     3  1  0.50        -4.0811   2.0000                                                             
     3  2  1.50        -4.0817   0.0000                                                             
   Description                                                                                      
     l       E           TYP  RCUT    TYP  RCUT                                                     
     0    -10.8127223     23  1.900                                                                 
     0     -7.6451159     23  1.900                                                                 
     1     -4.0811372     23  1.900                                                                 
     1      2.4879257     23  1.900                                                                 
     2     -4.0817478      7  1.900                                                                 
  local pseudopotential read in
  partial core-charges read in
  partial kinetic energy density read in
  atomic valenz-charges read in
  non local Contribution for L=           0  read in
    real space projection operators read in
  non local Contribution for L=           0  read in
    real space projection operators read in
  non local Contribution for L=           1  read in
    real space projection operators read in
  non local Contribution for L=           1  read in
    real space projection operators read in
    PAW grid and wavefunctions read in

   number of l-projection  operators is LMAX  =           4
   number of lm-projection operators is LMMAX =           8

 -----------------------------------------------------------------------------
|                                                                             |
|               ----> ADVICE to this user running VASP <----                  |
|                                                                             |
|     You have a (more or less) 'large supercell' and for larger cells it     |
|     might be more efficient to use real-space projection operators.         |
|     Therefore, try LREAL= Auto in the INCAR file.                           |
|     Mind: For very accurate calculation, you might also keep the            |
|     reciprocal projection scheme (i.e. LREAL=.FALSE.).                      |
|                                                                             |
 -----------------------------------------------------------------------------

 -----------------------------------------------------------------------------
|                                                                             |
|               ----> ADVICE to this user running VASP <----                  |
|                                                                             |
|     You enforced a specific xc type in the INCAR file but a different       |
|     type was found in the POTCAR file.                                      |
|     I HOPE YOU KNOW WHAT YOU ARE DOING!                                     |
|                                                                             |
 -----------------------------------------------------------------------------

  PAW_PBE H 15Jun2001                   :
 energy of atom  1       EATOM=  -12.4884
 kinetic energy error for atom=    0.0000 (will be added to EATOM!!)
  PAW_PBE Si 05Jan2001                  :
 energy of atom  2       EATOM= -103.0669
 kinetic energy error for atom=    0.0001 (will be added to EATOM!!)


 POSCAR:  H Si
  positions in cartesian coordinates
  No initial velocities read in


 exchange-correlation table for SCAN
   RHO(1)=    0.500       N(1)  =     2000
   RHO(2)=  100.500       N(2)  =     4000



--------------------------------------------------------------------------------------------------------


 ion  position               nearest neighbor table
   1  0.023  0.691  0.602-  80 1.48
   2  0.511  0.813  0.345-  38 1.48
   3  0.241  0.083  0.627-  52 1.48
   4  0.056  0.964  0.629-  54 1.49
   5  0.672  0.281  0.569-  32 1.50
   6  0.903  0.544  0.573-  28 1.48
   7  0.985  0.065  0.559-  22 0.75
   8  0.088  0.400  0.605-  10 0.77
   9  0.194  0.588  0.600-  39 1.48
  10  0.104  0.414  0.577-   8 0.77
  11  0.149  0.674  0.522-  39 1.49
  12  0.938  0.266  0.599-  21 0.74
  13  0.395  0.929  0.352-  38 1.48
  14  0.794  0.955  0.615-  63 1.48
  15  0.904  0.802  0.588-  80 1.48
  16  0.134  0.259  0.575-  64 1.49
  17  0.986  0.292  0.520-  42 1.49
  18  0.828  0.145  0.537-  67 1.49
  19  0.930  0.384  0.574-  28 1.48
  20  0.171  0.849  0.631-  54 1.48
  21  0.955  0.219  0.606-  12 0.74
  22  0.991  0.110  0.573-   7 0.75
  23  0.478  0.814  0.632-  53 1.47
  24  0.367  0.281  0.438-  68 2.30  79 2.31  55 2.34
  25  0.109  0.031  0.452-  30 2.28  36 2.33  69 2.36  62 2.39  66 3.02  45 3.07
  26  0.573  0.685  0.467-  61 2.32  56 2.33  65 2.37  47 2.41  59 3.07
  27  0.155  0.459  0.501-  39 2.31  33 2.33  55 2.39
  28  0.905  0.461  0.539-  19 1.48   6 1.48  41 2.32  33 2.34
  29  0.562  0.458  0.435-  61 2.29  79 2.35  58 2.44  51 2.45
  30  0.119  0.186  0.459-  42 2.26  25 2.28  64 2.33
  31  0.775  0.782  0.408-  47 2.35  40 2.35  48 2.37  46 3.02
  32  0.580  0.276  0.543-   5 1.50  49 2.32  51 2.35  72 2.35
  33  0.007  0.478  0.468-  74 2.28  75 2.29  27 2.33  28 2.34
  34  0.633  0.077  0.455-  72 2.33  37 2.33  44 2.34  43 2.43
  35  0.489  0.949  0.530-  73 2.30  53 2.31  44 2.34  43 2.37
  36  0.017  0.940  0.398-  25 2.33  66 2.33  48 2.34
  37  0.783  0.055  0.426-  46 2.30  67 2.32  34 2.33
  38  0.455  0.867  0.382-  13 1.48   2 1.48  44 2.33  60 2.35
  39  0.201  0.593  0.541-   9 1.48  11 1.49  77 2.30  27 2.31
  40  0.790  0.639  0.451-  75 2.32  31 2.35  58 2.37  65 2.40
  41  0.759  0.432  0.508-  28 2.32  78 2.34  58 2.37  76 2.38
  42  0.977  0.248  0.467-  17 1.49  30 2.26  74 2.30  67 2.33
  43  0.619  0.042  0.548-  63 2.35  35 2.37  49 2.37  34 2.43
  44  0.546  0.944  0.444-  38 2.33  47 2.33  34 2.34  35 2.34
  45  0.257  0.882  0.461-  60 2.31  66 2.34  69 2.34  62 2.35  25 3.07
  46  0.800  0.938  0.485-  48 2.26  37 2.30  63 2.31  47 2.73  31 3.02
  47  0.653  0.830  0.462-  44 2.33  31 2.35  26 2.41  59 2.44  46 2.73
  48  0.908  0.853  0.443-  46 2.26  57 2.31  36 2.34  31 2.37  66 3.08
  49  0.522  0.151  0.589-  32 2.32  73 2.33  43 2.37
  50  0.385  0.448  0.550-  77 2.30  51 2.30  55 2.35
  51  0.537  0.429  0.529-  50 2.30  78 2.35  32 2.35  29 2.45
  52  0.255  0.086  0.569-   3 1.48  73 2.30  64 2.35  69 2.36
  53  0.507  0.815  0.577-  23 1.47  56 2.29  35 2.31  59 2.34
  54  0.101  0.893  0.596-  20 1.48   4 1.49  80 2.34  69 2.34
  55  0.282  0.354  0.503-  24 2.34  50 2.35  64 2.38  27 2.39
  56  0.442  0.717  0.517-  53 2.29  77 2.31  26 2.33  60 2.34
  57  0.009  0.752  0.483-  75 2.28  48 2.31  80 2.33  66 2.33
  58  0.724  0.497  0.425-  70 2.35  41 2.37  40 2.37  29 2.44  76 3.10
  59  0.662  0.796  0.556-  53 2.34  63 2.35  65 2.38  47 2.44  26 3.07
  60  0.371  0.777  0.442-  45 2.31  56 2.34  38 2.35  71 2.38
  61  0.493  0.591  0.409-  29 2.29  26 2.32  71 2.37
  62  0.259  0.021  0.415-  68 2.34  45 2.35  25 2.39
  63  0.736  0.937  0.568-  14 1.48  46 2.31  59 2.35  43 2.35
  64  0.199  0.224  0.535-  16 1.49  30 2.33  52 2.35  55 2.38
  65  0.691  0.644  0.526-  78 2.37  26 2.37  59 2.38  40 2.40
  66  0.116  0.827  0.430-  57 2.33  36 2.33  45 2.34  25 3.02  48 3.08
  67  0.841  0.168  0.480-  18 1.49  37 2.32  42 2.33  76 2.34
  68  0.353  0.127  0.457-  24 2.30  62 2.34  73 2.35
  69  0.179  0.963  0.527-  54 2.34  45 2.34  52 2.36  25 2.36
  70  0.799  0.374  0.383-  74 2.30  58 2.35  76 2.36
  71  0.335  0.622  0.421-  61 2.37  60 2.38  77 2.39
  72  0.600  0.233  0.455-  79 2.32  34 2.33  76 2.35  32 2.35
  73  0.405  0.082  0.541-  52 2.30  35 2.30  49 2.33  68 2.35
  74  0.948  0.370  0.412-  33 2.28  70 2.30  42 2.30
  75  0.948  0.620  0.450-  57 2.28  33 2.29  40 2.32
  76  0.749  0.294  0.458-  67 2.34  72 2.35  70 2.36  41 2.38  58 3.10
  77  0.350  0.587  0.513-  50 2.30  39 2.30  56 2.31  71 2.39
  78  0.662  0.503  0.569-  41 2.34  51 2.35  65 2.37
  79  0.507  0.319  0.400-  24 2.31  72 2.32  29 2.35
  80  0.999  0.776  0.573-  15 1.48   1 1.48  57 2.33  54 2.34

  LATTYP: Found a simple tetragonal cell.
 ALAT       =    14.5722492107
 C/A-ratio  =     1.7442957249
  
  Lattice vectors:
  
 A1 = (  14.5722492107,   0.0000000000,   0.0000000000)
 A2 = (   0.0000000000,  14.5722492107,   0.0000000000)
 A3 = (   0.0000000000,   0.0000000000,  25.4183120000)


Analysis of symmetry for initial positions (statically):
=====================================================================
 Subroutine PRICEL returns:
 Original cell was already a primitive cell.
 

 Routine SETGRP: Setting up the symmetry group for a 
 simple tetragonal supercell.


 Subroutine GETGRP returns: Found  1 space group operations
 (whereof  1 operations were pure point group operations)
 out of a pool of 16 trial point group operations.


The static configuration has the point symmetry C_1 .


Analysis of symmetry for dynamics (positions and initial velocities):
=====================================================================
 Subroutine PRICEL returns:
 Original cell was already a primitive cell.
 

 Routine SETGRP: Setting up the symmetry group for a 
 simple tetragonal supercell.


 Subroutine GETGRP returns: Found  1 space group operations
 (whereof  1 operations were pure point group operations)
 out of a pool of 16 trial point group operations.


The dynamic configuration has the point symmetry C_1 .


 Subroutine INISYM returns: Found  1 space group operations
 (whereof  1 operations are pure point group operations),
 and found     1 'primitive' translations


----------------------------------------------------------------------------------------

                                     Primitive cell                                     

  volume of cell :    5397.5899

  direct lattice vectors                    reciprocal lattice vectors
    14.572249211  0.000000000  0.000000000     0.068623586  0.000000000  0.000000000
     0.000000000 14.572249211  0.000000000     0.000000000  0.068623586  0.000000000
     0.000000000  0.000000000 25.418312000     0.000000000  0.000000000  0.039341716

  length of vectors
    14.572249211 14.572249211 25.418312000     0.068623586  0.068623586  0.039341716

  position of ions in fractional coordinates (direct lattice)
     0.023084800  0.691455791  0.602444360
     0.511317646  0.812838040  0.345038653
     0.241405109  0.082568560  0.626785901
     0.055910853  0.963943120  0.629229890
     0.671534359  0.280575619  0.569360281
     0.902650084  0.543655287  0.572836234
     0.985044817  0.065029139  0.559172210
     0.088155104  0.400088974  0.605092325
     0.194461342  0.587980129  0.599532017
     0.104294404  0.413943228  0.577491762
     0.149039243  0.674248980  0.521544427
     0.937996349  0.265606889  0.598899194
     0.394670747  0.928702511  0.351954316
     0.794437309  0.954947196  0.614976309
     0.904375705  0.801526408  0.588158871
     0.133984844  0.258935450  0.575367768
     0.985878738  0.291882228  0.519607732
     0.827962207  0.144915683  0.537233559
     0.930458585  0.383738394  0.573954136
     0.170935629  0.848947777  0.630603582
     0.955182002  0.219232343  0.606205250
     0.991439440  0.109902444  0.572828225
     0.478483600  0.814390388  0.632108013
     0.367459186  0.280540204  0.437663501
     0.109241642  0.030835193  0.452397236
     0.572652355  0.685304598  0.466547265
     0.155402028  0.458822973  0.500715946
     0.905449965  0.460968830  0.538899933
     0.561913591  0.457714207  0.434851530
     0.118725214  0.186317647  0.458615483
     0.775034081  0.781588017  0.408156442
     0.579572758  0.275540183  0.543138357
     0.006968075  0.477550374  0.468254819
     0.633185015  0.076859772  0.454999637
     0.489039079  0.949475641  0.529835151
     0.016964660  0.940420463  0.398446046
     0.783010783  0.055152282  0.425636902
     0.455115269  0.866774240  0.382408850
     0.200767727  0.593317280  0.541466664
     0.789900884  0.638863183  0.450663693
     0.758719227  0.432465596  0.507793232
     0.976968019  0.248185419  0.466789745
     0.618715022  0.042090820  0.547992740
     0.545523748  0.943759233  0.443643805
     0.257043012  0.881914926  0.460954152
     0.800474813  0.937805537  0.485089257
     0.652968649  0.829553338  0.461917176
     0.907512507  0.852657762  0.443237130
     0.522047068  0.151110310  0.589390812
     0.384864065  0.448019635  0.549957405
     0.536962159  0.429061655  0.528692767
     0.254582542  0.085513933  0.569059440
     0.506908955  0.814935806  0.576586956
     0.101178192  0.892674849  0.596466477
     0.281764447  0.354190918  0.503180719
     0.442406525  0.716686437  0.516530492
     0.008660222  0.751889787  0.482619521
     0.723553935  0.497360607  0.424762503
     0.662458089  0.795968948  0.555754425
     0.370899281  0.777123147  0.441941913
     0.492979304  0.591049667  0.408710463
     0.259216034  0.021014934  0.414509816
     0.736400227  0.937351244  0.568360110
     0.199111307  0.224480182  0.534591056
     0.690984113  0.644030699  0.526136449
     0.115969065  0.827225483  0.430144037
     0.840627988  0.168415495  0.480465357
     0.353000576  0.127332062  0.457498522
     0.178743924  0.962702749  0.526772823
     0.799098905  0.374494937  0.383135815
     0.335198651  0.622115809  0.421428220
     0.599956330  0.233097917  0.454510958
     0.404591393  0.081693200  0.541224715
     0.948420240  0.370469356  0.411922196
     0.948198308  0.619555320  0.449627190
     0.748967061  0.294147559  0.458265832
     0.350425115  0.587443011  0.512879544
     0.661578620  0.503087144  0.569149158
     0.506585684  0.319190955  0.399727234
     0.999186881  0.775978026  0.573059530

  ion indices of the primitive-cell ions
   primitive index   ion index
                 1           1
                 2           2
                 3           3
                 4           4
                 5           5
                 6           6
                 7           7
                 8           8
                 9           9
                10          10
                11          11
                12          12
                13          13
                14          14
                15          15
                16          16
                17          17
                18          18
                19          19
                20          20
                21          21
                22          22
                23          23
                24          24
                25          25
                26          26
                27          27
                28          28
                29          29
                30          30
                31          31
                32          32
                33          33
                34          34
                35          35
                36          36
                37          37
                38          38
                39          39
                40          40
                41          41
                42          42
                43          43
                44          44
                45          45
                46          46
                47          47
                48          48
                49          49
                50          50
                51          51
                52          52
                53          53
                54          54
                55          55
                56          56
                57          57
                58          58
                59          59
                60          60
                61          61
                62          62
                63          63
                64          64
                65          65
                66          66
                67          67
                68          68
                69          69
                70          70
                71          71
                72          72
                73          73
                74          74
                75          75
                76          76
                77          77
                78          78
                79          79
                80          80

----------------------------------------------------------------------------------------


 -----------------------------------------------------------------------------
|                                                                             |
|           W    W    AA    RRRRR   N    N  II  N    N   GGGG   !!!           |
|           W    W   A  A   R    R  NN   N  II  NN   N  G    G  !!!           |
|           W    W  A    A  R    R  N N  N  II  N N  N  G       !!!           |
|           W WW W  AAAAAA  RRRRR   N  N N  II  N  N N  G  GGG   !            |
|           WW  WW  A    A  R   R   N   NN  II  N   NN  G    G                |
|           W    W  A    A  R    R  N    N  II  N    N   GGGG   !!!           |
|                                                                             |
|     The requested file  could not be found or opened for reading            |
|     k-point information. Automatic k-point generation is used as a          |
|     fallback, which may lead to unwanted results.                           |
|                                                                             |
 -----------------------------------------------------------------------------



Automatic generation of k-mesh.
 Grid dimensions derived from KSPACING:
 generate k-points for:    2    2    2

 Generating k-lattice:

  Cartesian coordinates                     Fractional coordinates (reciprocal lattice)
     0.034311793  0.000000000  0.000000000     0.500000000  0.000000000  0.000000000
     0.000000000  0.034311793  0.000000000     0.000000000  0.500000000  0.000000000
     0.000000000  0.000000000  0.019670858     0.000000000  0.000000000  0.500000000

  Length of vectors
     0.034311793  0.034311793  0.019670858

  Shift w.r.t. Gamma in fractional coordinates (k-lattice)
     0.000000000  0.000000000  0.000000000

 
 Subroutine IBZKPT returns following result:
 ===========================================
 
 Found      8 irreducible k-points:
 
 Following reciprocal coordinates:
            Coordinates               Weight
  0.000000  0.000000  0.000000      1.000000
  0.500000  0.000000  0.000000      1.000000
  0.000000  0.500000  0.000000      1.000000
  0.500000  0.500000  0.000000      1.000000
  0.000000  0.000000  0.500000      1.000000
  0.500000  0.000000  0.500000      1.000000
  0.000000  0.500000  0.500000      1.000000
  0.500000  0.500000  0.500000      1.000000
 
 Following cartesian coordinates:
            Coordinates               Weight
  0.000000  0.000000  0.000000      1.000000
  0.034312  0.000000  0.000000      1.000000
  0.000000  0.034312  0.000000      1.000000
  0.034312  0.034312  0.000000      1.000000
  0.000000  0.000000  0.019671      1.000000
  0.034312  0.000000  0.019671      1.000000
  0.000000  0.034312  0.019671      1.000000
  0.034312  0.034312  0.019671      1.000000
 


--------------------------------------------------------------------------------------------------------




 Dimension of arrays:
   k-points           NKPTS =      8   k-points in BZ     NKDIM =      8   number of bands    NBANDS=    168
   number of dos      NEDOS =   2000   number of ions     NIONS =     80
   non local maximal  LDIM  =      4   non local SUM 2l+1 LMDIM =      8
   total plane-waves  NPLWV = ******
   max r-space proj   IRMAX =      1   max aug-charges    IRDMAX= 402964
   dimension x,y,z NGX =   168 NGY =  168 NGZ =  288
   dimension x,y,z NGXF=   336 NGYF=  336 NGZF=  576
   support grid    NGXF=   672 NGYF=  672 NGZF= 1152
   ions per type =              23  57
   NGX,Y,Z   is equivalent  to a cutoff of  19.17, 19.17, 18.84 a.u.
   NGXF,Y,Z  is equivalent  to a cutoff of  38.33, 38.33, 37.67 a.u.

 SYSTEM =  a-Si SPC                                
 POSCAR =   H Si                                   

 Startparameter for this run:
   NWRITE =      2    write-flag & timer
   PREC   = accura    normal or accurate (medium, high low for compatibility)
   ISTART =      1    job   : 0-new  1-cont  2-samecut
   ICHARG =      1    charge: 1-file 2-atom 10-const
   ISPIN  =      1    spin polarized calculation?
   LNONCOLLINEAR =      F non collinear calculations
   LSORBIT =      F    spin-orbit coupling
   INIWAV =      1    electr: 0-lowe 1-rand  2-diag
   LASPH  =      T    aspherical Exc in radial PAW
 Electronic Relaxation 1
   ENCUT  = 1200.0 eV  88.20 Ry    9.39 a.u.  41.16 41.16 71.79*2*pi/ulx,y,z
   ENINI  = 1200.0     initial cutoff
   ENAUG  =  400.0 eV  augmentation charge cutoff
   NELM   =    150;   NELMIN=  2; NELMDL=  0     # of ELM steps 
   EDIFF  = 0.1E-05   stopping-criterion for ELM
   LREAL  =      F    real-space projection
   NLSPLINE    = F    spline interpolate recip. space projectors
   LCOMPAT=      F    compatible to vasp.4.4
   GGA_COMPAT  = T    GGA compatible to vasp.4.4-vasp.4.6
   LMAXPAW     = -100 max onsite density
   LMAXMIX     =    2 max onsite mixed and CHGCAR
   VOSKOWN=      0    Vosko Wilk Nusair interpolation
   ROPT   =    0.00000   0.00000
 Ionic relaxation
   EDIFFG = -.1E-01   stopping-criterion for IOM
   NSW    =      0    number of steps for IOM
   NBLOCK =      1;   KBLOCK =      1    inner block; outer block 
   IBRION =     -1    ionic relax: 0-MD 1-quasi-New 2-CG
   NFREE  =      0    steps in history (QN), initial steepest desc. (CG)
   ISIF   =      2    stress and relaxation
   IWAVPR =     10    prediction:  0-non 1-charg 2-wave 3-comb
   ISYM   =      1    0-nonsym 1-usesym 2-fastsym
   LCORR  =      T    Harris-Foulkes like correction to forces

   POTIM  = 0.5000    time-step for ionic-motion
   TEIN   =    0.0    initial temperature
   TEBEG  =    0.0;   TEEND  =   0.0 temperature during run
   SMASS  =  -3.00    Nose mass-parameter (am)
   estimated Nose-frequenzy (Omega)   =  0.10E-29 period in steps = 0.13E+47 mass=  -0.485E-26a.u.
   SCALEE = 1.0000    scale energy and forces
   NPACO  =    256;   APACO  = 10.0  distance and # of slots for P.C.
   PSTRESS=    0.0 pullay stress

  Mass of Ions in am
   POMASS =   1.00 28.09
  Ionic Valenz
   ZVAL   =   1.00  4.00
  Atomic Wigner-Seitz radii
   RWIGS  =  -1.00 -1.00
  virtual crystal weights 
   VCA    =   1.00  1.00
   NELECT =     251.0000    total number of electrons
   NUPDOWN=      -1.0000    fix difference up-down

 DOS related values:
   EMIN   =  10.00;   EMAX   =-10.00  energy-range for DOS
   EFERMI =   0.00;   METHOD = LEGACY      
   ISMEAR =     0;   SIGMA  =   0.10  broadening in eV -4-tet -1-fermi 0-gaus
   EFERMI_NEDOS =   21; number of points for ismear=-14 and -15

 Electronic relaxation 2 (details)
   IALGO  =     38    algorithm
   LDIAG  =      F    sub-space diagonalisation (order eigenvalues)
   LSUBROT=      F    optimize rotation matrix (better conditioning)
   TURBO    =      0    0=normal 1=particle mesh
   IRESTART =      0    0=no restart 2=restart with 2 vectors
   NREBOOT  =      0    no. of reboots
   NMIN     =      0    reboot dimension
   EREF     =   0.00    reference energy to select bands
   IMIX   =      4    mixing-type and parameters
     AMIX     =   0.40;   BMIX     =  1.00
     AMIX_MAG =   1.60;   BMIX_MAG =  1.00
     AMIN     =   0.10
     WC   =   100.;   INIMIX=   1;  MIXPRE=   1;  MAXMIX= -45

 Intra band minimization:
   WEIMIN = 0.0000     energy-eigenvalue tresh-hold
   EBREAK =  0.15E-08  absolut break condition
   DEPER  =   0.30     relativ break condition  

   TIME   =   0.40     timestep for ELM

  volume/ion in A,a.u.               =      67.47       455.31
  Fermi-wavevector in a.u.,A,eV,Ry     =   0.588707  1.112496  4.715457  0.346576
  Thomas-Fermi vector in A             =   1.636077

 Write flags
   LWAVE        =      F    write WAVECAR
   LDOWNSAMPLE  =      F    k-point downsampling of WAVECAR
   LCHARG       =      F    write CHGCAR
   LVTOT        =      F    write LOCPOT, total local potential
   LVHAR        =      F    write LOCPOT, Hartree potential only
   WRT_POTENTIAL= false  ! write potential to hdf5 file
   LELF         =      F    write electronic localiz. function (ELF)
   LORBIT       =     11    0 simple, 1 ext, 2 COOP (PROOUT), +10 PAW based schemes


 Python interface
   PLUGINS active      =      F    recompile with -DPLUGINS to activate

 Dipole corrections
   LMONO      =      F    monopole corrections only (constant potential shift)
   LDIPOL     =      F    correct potential (dipole corrections)
   IDIPOL     =      0    1-x, 2-y, 3-z, 4-all directions 
   EPSILON    =  1.0000000 bulk dielectric constant
   LVACPOTAV  =      F  vacuum potentials using an averaging scheme for the charge density
   VACPOTFLAT =  0.1000000 required flatness to determine vacuum potential

Coulomb truncation method
  LTRUNCATE          =      F  Coulomb kernel truncation to be used
  IDIMENSIONALITY    =      3  Dimensionality of cutoff (0 molecules / 2 surfaces)
  ISURFACE           =     -1  Direction of surface normal
  LCOARSEN           =      F  Coarsen the charge grid before padding, preferred


 Exchange correlation treatment:
   METAGGA = SCAN    functional components
   XC_C    = 1    coefficients multiplying the functional components
   LIBXC   =     F    Libxc                    
   VOSKOWN =     0    Vosko Wilk Nusair interpolation
   LHFCALC =     F    Hartree Fock is set to
   LHFONE  =     F    Hartree Fock one center treatment
   AEXX    =    0.0000 exact exchange contribution

 Parameters of functionals:
   SCAN:
     P1 =  0.000000E+00
     P2 =  0.000000E+00
     P3 =  0.000000E+00

 Accuracy and mixing parameters for tau-dependent meta-GGA functionals:
   LMAXTAU = 6
   LMIXTAU = T

 Van der Waals corrections
   IVDW    =     0    specifies the selected vdW correction

 Linear response parameters
   LEPSILON=     F    determine dielectric tensor
   LRPA    =     F    only Hartree local field effects (RPA)
   LNABLA  =     F    use nabla operator in PAW spheres
   LVEL    =     F    velocity operator in full k-point grid
   CSHIFT  =0.1000    complex shift for real part using Kramers Kronig
   OMEGAMAX=  -1.0    maximum frequency
   DEG_THRESHOLD= 0.2000000E-02 threshold for treating states as degnerate
   RTIME   =   -0.100 relaxation time in fs
  (WPLASMAI=    0.000 imaginary part of plasma frequency in eV, 0.658/RTIME)
   DFIELD  = 0.0000000 0.0000000 0.0000000 field for delta impulse in time

  Optional k-point grid parameters
   LKPOINTS_OPT  =     F    use optional k-point grid
   KPOINTS_OPT_MODE=     1    mode for optional k-point grid

 Orbital magnetization related:
   ORBITALMAG=     F  switch on orbital magnetization
   LCHIMAG   =     F  perturbation theory with respect to B field
   DQ        =  0.001000  dq finite difference perturbation B field
   LLRAUG    =     F  two centre corrections for induced B field
   LBONE     =     F  B-component reconstruction in AE one-centre
   LVGVCALC  =     T  calculate vGv susceptibility
   LVGVAPPL  =     F  apply vGv susceptibility instead of pGv for G=0

 Random number generation:
   RANDOM_GENERATOR = DEFAULT
   PCG_SEED         = not used


--------------------------------------------------------------------------------------------------------


 Static calculation
 charge density and potential will be updated during run
 non-spin polarized calculation
 Variant of blocked Davidson
 perform Loewdin sub-space diagonalisation
    ordering is kept fixed
    before iterative eigenvector-optimisation
 modified Broyden-mixing scheme, WC =      100.0
 initial mixing is a Kerker type mixing with AMIX =  0.4000 and BMIX =      1.0000
 Hartree-type preconditioning will be used
 using additional bands           42
 reciprocal scheme for non local part
 use partial core corrections
 calculate Harris-corrections to forces   (improved forces if not selfconsistent)
 use gradient corrections 
 use of overlap-Matrix (Vanderbilt PP)
 Gauss-broadening in eV      SIGMA  =   0.10


--------------------------------------------------------------------------------------------------------


  energy-cutoff  :     1200.00
  volume of cell :     5397.59
      direct lattice vectors                 reciprocal lattice vectors
    14.572249211  0.000000000  0.000000000     0.068623586  0.000000000  0.000000000
     0.000000000 14.572249211  0.000000000     0.000000000  0.068623586  0.000000000
     0.000000000  0.000000000 25.418312000     0.000000000  0.000000000  0.039341716

  length of vectors
    14.572249211 14.572249211 25.418312000     0.068623586  0.068623586  0.039341716



 old parameters found on file WAVECAR:
  energy-cutoff  :     1200.00
  volume of cell :     5397.59
      direct lattice vectors                 reciprocal lattice vectors
    14.572249211  0.000000000  0.000000000     0.068623586  0.000000000  0.000000000
     0.000000000 14.572249211  0.000000000     0.000000000  0.068623586  0.000000000
     0.000000000  0.000000000 25.418312000     0.000000000  0.000000000  0.039341716

  length of vectors


 k-points in units of 2pi/SCALE and weight: read from INCAR                         
   0.00000000  0.00000000  0.00000000       0.125
   0.03431179  0.00000000  0.00000000       0.125
   0.00000000  0.03431179  0.00000000       0.125
   0.03431179  0.03431179  0.00000000       0.125
   0.00000000  0.00000000  0.01967086       0.125
   0.03431179  0.00000000  0.01967086       0.125
   0.00000000  0.03431179  0.01967086       0.125
   0.03431179  0.03431179  0.01967086       0.125

 k-points in reciprocal lattice and weights: read from INCAR                         
   0.00000000  0.00000000  0.00000000       0.125
   0.50000000  0.00000000  0.00000000       0.125
   0.00000000  0.50000000  0.00000000       0.125
   0.50000000  0.50000000  0.00000000       0.125
   0.00000000  0.00000000  0.50000000       0.125
   0.50000000  0.00000000  0.50000000       0.125
   0.00000000  0.50000000  0.50000000       0.125
   0.50000000  0.50000000  0.50000000       0.125

 position of ions in fractional coordinates (direct lattice) 
   0.02308480  0.69145579  0.60244436
   0.51131765  0.81283804  0.34503865
   0.24140511  0.08256856  0.62678590
   0.05591085  0.96394312  0.62922989
   0.67153436  0.28057562  0.56936028
   0.90265008  0.54365529  0.57283623
   0.98504482  0.06502914  0.55917221
   0.08815510  0.40008897  0.60509233
   0.19446134  0.58798013  0.59953202
   0.10429440  0.41394323  0.57749176
   0.14903924  0.67424898  0.52154443
   0.93799635  0.26560689  0.59889919
   0.39467075  0.92870251  0.35195432
   0.79443731  0.95494720  0.61497631
   0.90437570  0.80152641  0.58815887
   0.13398484  0.25893545  0.57536777
   0.98587874  0.29188223  0.51960773
   0.82796221  0.14491568  0.53723356
   0.93045858  0.38373839  0.57395414
   0.17093563  0.84894778  0.63060358
   0.95518200  0.21923234  0.60620525
   0.99143944  0.10990244  0.57282823
   0.47848360  0.81439039  0.63210801
   0.36745919  0.28054020  0.43766350
   0.10924164  0.03083519  0.45239724
   0.57265236  0.68530460  0.46654726
   0.15540203  0.45882297  0.50071595
   0.90544997  0.46096883  0.53889993
   0.56191359  0.45771421  0.43485153
   0.11872521  0.18631765  0.45861548
   0.77503408  0.78158802  0.40815644
   0.57957276  0.27554018  0.54313836
   0.00696808  0.47755037  0.46825482
   0.63318502  0.07685977  0.45499964
   0.48903908  0.94947564  0.52983515
   0.01696466  0.94042046  0.39844605
   0.78301078  0.05515228  0.42563690
   0.45511527  0.86677424  0.38240885
   0.20076773  0.59331728  0.54146666
   0.78990088  0.63886318  0.45066369
   0.75871923  0.43246560  0.50779323
   0.97696802  0.24818542  0.46678974
   0.61871502  0.04209082  0.54799274
   0.54552375  0.94375923  0.44364381
   0.25704301  0.88191493  0.46095415
   0.80047481  0.93780554  0.48508926
   0.65296865  0.82955334  0.46191718
   0.90751251  0.85265776  0.44323713
   0.52204707  0.15111031  0.58939081
   0.38486407  0.44801963  0.54995741
   0.53696216  0.42906166  0.52869277
   0.25458254  0.08551393  0.56905944
   0.50690896  0.81493581  0.57658696
   0.10117819  0.89267485  0.59646648
   0.28176445  0.35419092  0.50318072
   0.44240653  0.71668644  0.51653049
   0.00866022  0.75188979  0.48261952
   0.72355394  0.49736061  0.42476250
   0.66245809  0.79596895  0.55575443
   0.37089928  0.77712315  0.44194191
   0.49297930  0.59104967  0.40871046
   0.25921603  0.02101493  0.41450982
   0.73640023  0.93735124  0.56836011
   0.19911131  0.22448018  0.53459106
   0.69098411  0.64403070  0.52613645
   0.11596906  0.82722548  0.43014404
   0.84062799  0.16841550  0.48046536
   0.35300058  0.12733206  0.45749852
   0.17874392  0.96270275  0.52677282
   0.79909891  0.37449494  0.38313581
   0.33519865  0.62211581  0.42142822
   0.59995633  0.23309792  0.45451096
   0.40459139  0.08169320  0.54122472
   0.94842024  0.37046936  0.41192220
   0.94819831  0.61955532  0.44962719
   0.74896706  0.29414756  0.45826583
   0.35042511  0.58744301  0.51287954
   0.66157862  0.50308714  0.56914916
   0.50658568  0.31919095  0.39972723
   0.99918688  0.77597803  0.57305953

 position of ions in cartesian coordinates  (Angst):
   0.33639746 10.07606610 15.31311871
   7.45104816 11.84487849  8.77030013
   3.51781541  1.20320963 15.93183958
   0.81474689 14.04681937 15.99396166
   9.78576603  4.08861784 14.47217727
  13.15364197  7.92228033 14.56053012
  14.35431855  0.94762082 14.21321370
   1.28461815  5.83019624 15.38042551
   2.83373914  8.56819297 15.23909185
   1.51980404  6.03208388 14.67886578
   2.17183699  9.82532416 13.25677896
  13.66871655  3.87048978 15.22300656
   5.75124048 13.53328443  8.94608462
  11.57673845 13.91572853 15.63165970
  13.17878815 11.68004257 14.95000569
   1.95246054  3.77327190 14.62487743
  14.36647066  4.25338057 13.20755144
  12.06527162  2.11174745 13.65557021
  13.55887438  5.59193151 14.58894530
   2.49091658 12.37107857 16.02887859
  13.91915017  3.19470834 15.40871417
  14.44750259  1.60152580 14.56032655
   6.97258226 11.86749969 16.06711868
   5.35470684  4.08810177 11.12466742
   1.59189643  0.44933811 11.49917410
   8.34483283  9.98642939 11.85884394
   2.26455708  6.68608271 12.72735414
  13.19444254  6.71735267 13.69792663
   8.18834489  6.66992549 11.05319187
   1.73009340  2.71506719 11.65723144
  11.29398977 11.38949536 10.37464780
   8.44567867  4.01524021 13.80566023
   0.10154053  6.95898306 11.90224709
   9.22692984  1.12001975 11.56532274
   7.12639934 13.83599566 13.46751517
   0.24721326 13.70404135 10.12782592
  11.41022826  0.80369280 10.81897158
   6.63205312 12.63085023  9.72018746
   2.92563735  8.64596727 13.76316861
  11.51063254  9.30967352 11.45511036
  11.05624566  6.30199644 12.90724681
  14.23662144  3.61661978 11.86500737
   9.01606949  0.61335792 13.92905044
   7.94950801 13.75269474 11.27667666
   3.74569483 12.85148409 11.71667645
  11.66471846 13.66593600 12.33015009
   9.51522188 12.08845797 11.74115491
  13.22449842 12.42514140 11.26633965
   7.60739998  2.20201709 14.98131956
   5.60833507  6.52865377 13.97898891
   7.82474640  6.25239337 13.43847770
   3.70984025  1.24613034 14.46453039
   7.38680362 11.87544766 14.65586714
   1.47439383 13.00828036 15.16117101
   4.10594174  5.16135833 12.79000450
   6.44685814 10.44373336 13.12933320
   0.12619892 10.95672535 12.26737355
  10.54380826  7.24766272 10.79674582
   9.65350437 11.59905788 14.12633938
   5.40483676 11.32443216 11.23341744
   7.18381727  8.61292305 10.38873007
   3.77736064  0.30623486 10.53613983
  10.73100763 13.65931592 14.44675461
   2.90149959  3.27118116 13.58840225
  10.06919269  9.38497585 13.37350041
   1.68993011 12.05453589 10.93353534
  12.24984054  2.45419257 12.21261835
   5.14401237  1.85551454 11.62884018
   2.60470101 14.02874437 13.38967597
  11.64466839  5.45723355  9.73866568
   4.88459828  9.06562661 10.71199399
   8.74271315  3.39676093 11.55290134
   5.89580661  1.19045367 13.75701868
  13.82061609  5.39857178 10.47036691
  13.81738205  9.02831453 11.42876421
  10.91413466  4.28639154 11.64834390
   5.10648210  8.56036596 13.03653226
   9.64068852  7.33111124 14.46681087
   7.38209283  4.65133014 10.16039155
  14.56040024 11.30774517 14.56620592



--------------------------------------------------------------------------------------------------------


 k-point     1 :   0.0000 0.0000 0.0000  plane waves:  509511
 k-point     2 :   0.5000 0.0000 0.0000  plane waves:  509506
 k-point     3 :   0.0000 0.5000 0.0000  plane waves:  509506
 k-point     4 :   0.5000 0.5000 0.0000  plane waves:  509596
 k-point     5 :   0.0000 0.0000 0.5000  plane waves:  509448
 k-point     6 :   0.5000 0.0000 0.5000  plane waves:  509608
 k-point     7 :   0.0000 0.5000 0.5000  plane waves:  509608
 k-point     8 :   0.5000 0.5000 0.5000  plane waves:  509456

 maximum and minimum number of plane-waves per node :     31926    31757

 maximum number of plane-waves:    509608
 maximum index in each direction: 
   IXMAX=   41   IYMAX=   41   IZMAX=   71
   IXMIN=  -41   IYMIN=  -41   IZMIN=  -72


 parallel 3D FFT for wavefunctions:
    minimum data exchange during FFTs selected (reduces bandwidth)
 parallel 3D FFT for charge:
    minimum data exchange during FFTs selected (reduces bandwidth)


 total amount of memory used by VASP MPI-rank0   362994. kBytes
=======================================================================

   base                                    :      30000. kBytes
   nonl-proj                               :      73506. kBytes
   fftplans                                :      98003. kBytes
   grid                                    :      75605. kBytes
   one-center                              :         15. kBytes
   wavefun                                 :      85865. kBytes

     INWAV:  cpu time     26.8114: real time     27.0304
 Broyden mixing: mesh for mixing (old mesh)
   NGX = 83   NGY = 83   NGZ =143
  (NGX  =336   NGY  =336   NGZ  =576)
  gives a total of 985127 points

 initial charge density was supplied:
 number of electron     250.9999999 magnetization 
 keeping initial charge density in first step


--------------------------------------------------------------------------------------------------------


 Maximum index for augmentation-charges        11271 (set IRDMAX)


--------------------------------------------------------------------------------------------------------


 First call to EWALD:  gamma=   0.101
 Maximum number of real-space cells   3x   3x   2
 Maximum number of reciprocal cells   2x   2x   4

    FEWALD:  cpu time      0.0160: real time      0.0161


--------------------------------------- Ionic step        1  -------------------------------------------




--------------------------------------- Iteration      1(   1)  ---------------------------------------


    POTLOK:  cpu time      1.9279: real time      1.9289
    SETDIJ:  cpu time      1.4539: real time      1.4550
    EDDIAG:  cpu time     50.2564: real time     50.2827
     EDDAV:  cpu time    226.1573: real time    226.2885
       DOS:  cpu time      0.0100: real time      0.0102
    CHARGE:  cpu time     28.5741: real time     28.6009
    MIXING:  cpu time      0.0461: real time      0.0466
    --------------------------------------------
      LOOP:  cpu time    308.4257: real time    308.6128

 eigenvalue-minimisations  :  2760
 total energy-change (2. order) :-0.6568746E+03  (-0.7258454E+00)
 number of electron     250.9999999 magnetization 
 augmentation part      -12.4339549 magnetization 

 Broyden mixing:
  rms(total) = 0.95127E+00    rms(broyden)= 0.24943E+02
  rms(prec ) = 0.98541E+00
  weight for this iteration     100.00
  WARNING: grid for Broyden might be to small

 Free energy of the ion-electron system (eV)
  ---------------------------------------------------
  alpha Z        PSCENC =        24.91271107
  Ewald energy   TEWEN  =     28499.89332377
  -Hartree energ DENC   =    -33751.05431948
  -exchange      EXHF   =         0.00000000
  -V(xc)+E(xc)   XCENC  =      -206.90735535
  PAW double counting   =     23210.89618926   -22643.46929039
  entropy T*S    EENTRO =        -0.16260445
  eigenvalues    EBANDS =     -1953.02524688
  atomic energy  EATOM  =      6162.04196728
  Solvation  Ediel_sol  =         0.00000000
  ---------------------------------------------------
  free energy    TOTEN  =      -656.87462516 eV

  energy without entropy =     -656.71202071  energy(sigma->0) =     -656.79332293


--------------------------------------------------------------------------------------------------------




--------------------------------------- Iteration      1(   2)  ---------------------------------------


    POTLOK:  cpu time      1.8910: real time      1.9087
    SETDIJ:  cpu time      1.4471: real time      1.4478
    EDDIAG:  cpu time     50.7928: real time     50.8207
     EDDAV:  cpu time    227.8438: real time    227.9828
       DOS:  cpu time      0.0024: real time      0.0024
    CHARGE:  cpu time     28.5069: real time     28.5325
    MIXING:  cpu time      0.0390: real time      0.0390
    --------------------------------------------
      LOOP:  cpu time    310.5231: real time    310.7341

 eigenvalue-minimisations  :  2752
 total energy-change (2. order) : 0.4402083E+02  (-0.7087340E+00)
 number of electron     250.9999999 magnetization 
 augmentation part      -12.3984121 magnetization 

 Broyden mixing:
  rms(total) = 0.65484E+00    rms(broyden)= 0.14354E+02
  rms(prec ) = 0.67350E+00
  weight for this iteration     100.00
  WARNING: grid for Broyden might be to small

 eigenvalues of (default mixing * dielectric matrix)
  average eigenvalue GAMMA=   0.6348
  0.6348

 Free energy of the ion-electron system (eV)
  ---------------------------------------------------
  alpha Z        PSCENC =        24.91271107
  Ewald energy   TEWEN  =     28499.89332377
  -Hartree energ DENC   =    -33740.70261932
  -exchange      EXHF   =         0.00000000
  -V(xc)+E(xc)   XCENC  =      -202.40195485
  PAW double counting   =     27581.98505573   -27014.37987212
  entropy T*S    EENTRO =        -0.15612291
  eigenvalues    EBANDS =     -1924.04628576
  atomic energy  EATOM  =      6162.04196728
  Solvation  Ediel_sol  =         0.00000000
  ---------------------------------------------------
  free energy    TOTEN  =      -612.85379710 eV

  energy without entropy =     -612.69767419  energy(sigma->0) =     -612.77573565


--------------------------------------------------------------------------------------------------------




--------------------------------------- Iteration      1(   3)  ---------------------------------------


    POTLOK:  cpu time      1.8951: real time      1.9133
    SETDIJ:  cpu time      1.4574: real time      1.4580
    EDDIAG:  cpu time     50.8330: real time     50.8621
     EDDAV:  cpu time    224.5933: real time    224.7292
       DOS:  cpu time      0.0025: real time      0.0025
    CHARGE:  cpu time     28.4367: real time     28.4623
    MIXING:  cpu time      0.0369: real time      0.0369
    --------------------------------------------
      LOOP:  cpu time    307.2549: real time    307.4643

 eigenvalue-minimisations  :  2688
 total energy-change (2. order) :-0.1750963E+01  (-0.5585470E+00)
 number of electron     250.9999999 magnetization 
 augmentation part      -12.3568817 magnetization 

 Broyden mixing:
  rms(total) = 0.31615E+00    rms(broyden)= 0.18166E+02
  rms(prec ) = 0.37860E+00
  weight for this iteration     100.00
  WARNING: grid for Broyden might be to small

 eigenvalues of (default mixing * dielectric matrix)
  average eigenvalue GAMMA=   0.6383
  0.6745  0.6020

 Free energy of the ion-electron system (eV)
  ---------------------------------------------------
  alpha Z        PSCENC =        24.91271107
  Ewald energy   TEWEN  =     28499.89332377
  -Hartree energ DENC   =    -33742.11855215
  -exchange      EXHF   =         0.00000000
  -V(xc)+E(xc)   XCENC  =      -203.78766389
  PAW double counting   =     32363.37569233   -31795.85336037
  entropy T*S    EENTRO =        -0.15225693
  eigenvalues    EBANDS =     -1922.91662114
  atomic energy  EATOM  =      6162.04196728
  Solvation  Ediel_sol  =         0.00000000
  ---------------------------------------------------
  free energy    TOTEN  =      -614.60476004 eV

  energy without entropy =     -614.45250310  energy(sigma->0) =     -614.52863157


--------------------------------------------------------------------------------------------------------




--------------------------------------- Iteration      1(   4)  ---------------------------------------


    POTLOK:  cpu time      1.9140: real time      1.9154
    SETDIJ:  cpu time      1.4536: real time      1.4544
    EDDIAG:  cpu time     50.8363: real time     50.8639
     EDDAV:  cpu time    235.0446: real time    235.1836
       DOS:  cpu time      0.0031: real time      0.0031
    CHARGE:  cpu time     28.4258: real time     28.4494
    MIXING:  cpu time      0.0371: real time      0.0371
    --------------------------------------------
      LOOP:  cpu time    317.7145: real time    317.9069

 eigenvalue-minimisations  :  2912
 total energy-change (2. order) : 0.2122970E+00  (-0.8884970E-01)
 number of electron     250.9999999 magnetization 
 augmentation part      -12.3587329 magnetization 

 Broyden mixing:
  rms(total) = 0.97265E-01    rms(broyden)= 0.14226E+01
  rms(prec ) = 0.12967E+00
  weight for this iteration     100.00
  WARNING: grid for Broyden might be to small

 eigenvalues of (default mixing * dielectric matrix)
  average eigenvalue GAMMA=   0.8878
  1.5767  0.6330  0.4536

 Free energy of the ion-electron system (eV)
  ---------------------------------------------------
  alpha Z        PSCENC =        24.91271107
  Ewald energy   TEWEN  =     28499.89332377
  -Hartree energ DENC   =    -33745.17384627
  -exchange      EXHF   =         0.00000000
  -V(xc)+E(xc)   XCENC  =      -203.92471027
  PAW double counting   =     36698.10303809   -36130.60993178
  entropy T*S    EENTRO =        -0.15156400
  eigenvalues    EBANDS =     -1919.48345095
  atomic energy  EATOM  =      6162.04196728
  Solvation  Ediel_sol  =         0.00000000
  ---------------------------------------------------
  free energy    TOTEN  =      -614.39246306 eV

  energy without entropy =     -614.24089906  energy(sigma->0) =     -614.31668106


--------------------------------------------------------------------------------------------------------




--------------------------------------- Iteration      1(   5)  ---------------------------------------


    POTLOK:  cpu time      1.8882: real time      1.9091
    SETDIJ:  cpu time      1.4527: real time      1.4534
    EDDIAG:  cpu time     50.8288: real time     50.8557
     EDDAV:  cpu time    233.9353: real time    234.0675
       DOS:  cpu time      0.0039: real time      0.0039
    CHARGE:  cpu time     28.4443: real time     28.4704
    MIXING:  cpu time      0.0377: real time      0.0377
    --------------------------------------------
      LOOP:  cpu time    316.5909: real time    316.7977

 eigenvalue-minimisations  :  2880
 total energy-change (2. order) : 0.4761095E-02  (-0.1936916E-01)
 number of electron     250.9999999 magnetization 
 augmentation part      -12.3573453 magnetization 

 Broyden mixing:
  rms(total) = 0.46475E-01    rms(broyden)= 0.13430E+01
  rms(prec ) = 0.59322E-01
  weight for this iteration     100.00
  WARNING: grid for Broyden might be to small

 eigenvalues of (default mixing * dielectric matrix)
  average eigenvalue GAMMA=   1.0104
  2.2922  0.6979  0.6085  0.4430

 Free energy of the ion-electron system (eV)
  ---------------------------------------------------
  alpha Z        PSCENC =        24.91271107
  Ewald energy   TEWEN  =     28499.89332377
  -Hartree energ DENC   =    -33745.41576119
  -exchange      EXHF   =         0.00000000
  -V(xc)+E(xc)   XCENC  =      -204.43728884
  PAW double counting   =     36690.25210074   -36122.75392574
  entropy T*S    EENTRO =        -0.15829685
  eigenvalues    EBANDS =     -1918.72253221
  atomic energy  EATOM  =      6162.04196728
  Solvation  Ediel_sol  =         0.00000000
  ---------------------------------------------------
  free energy    TOTEN  =      -614.38770196 eV

  energy without entropy =     -614.22940511  energy(sigma->0) =     -614.30855354


--------------------------------------------------------------------------------------------------------




--------------------------------------- Iteration      1(   6)  ---------------------------------------


    POTLOK:  cpu time      1.8862: real time      1.9060
    SETDIJ:  cpu time      1.4565: real time      1.4571
    EDDIAG:  cpu time     50.8739: real time     50.8996
     EDDAV:  cpu time    231.3382: real time    231.4720
       DOS:  cpu time      0.0036: real time      0.0036
    CHARGE:  cpu time     28.4144: real time     28.4391
    MIXING:  cpu time      0.0379: real time      0.0379
    --------------------------------------------
      LOOP:  cpu time    314.0107: real time    314.2153

 eigenvalue-minimisations  :  2824
 total energy-change (2. order) : 0.1065830E-02  (-0.4734129E-02)
 number of electron     250.9999999 magnetization 
 augmentation part      -12.3575693 magnetization 

 Broyden mixing:
  rms(total) = 0.21955E-01    rms(broyden)= 0.18092E+00
  rms(prec ) = 0.24315E-01
  weight for this iteration     100.00
  WARNING: grid for Broyden might be to small

 eigenvalues of (default mixing * dielectric matrix)
  average eigenvalue GAMMA=   1.0018
  2.5585  0.8291  0.6234  0.5478  0.4501

 Free energy of the ion-electron system (eV)
  ---------------------------------------------------
  alpha Z        PSCENC =        24.91271107
  Ewald energy   TEWEN  =     28499.89332377
  -Hartree energ DENC   =    -33745.87289529
  -exchange      EXHF   =         0.00000000
  -V(xc)+E(xc)   XCENC  =      -204.65561719
  PAW double counting   =     36443.78767238   -35876.27882019
  entropy T*S    EENTRO =        -0.16158094
  eigenvalues    EBANDS =     -1918.05339702
  atomic energy  EATOM  =      6162.04196728
  Solvation  Ediel_sol  =         0.00000000
  ---------------------------------------------------
  free energy    TOTEN  =      -614.38663613 eV

  energy without entropy =     -614.22505519  energy(sigma->0) =     -614.30584566


--------------------------------------------------------------------------------------------------------




--------------------------------------- Iteration      1(   7)  ---------------------------------------


    POTLOK:  cpu time      1.8951: real time      1.9123
    SETDIJ:  cpu time      1.4478: real time      1.4487
    EDDIAG:  cpu time     50.9012: real time     50.9295
     EDDAV:  cpu time    239.8898: real time    240.0331
       DOS:  cpu time      0.0025: real time      0.0026
    CHARGE:  cpu time     28.4864: real time     28.5139
    MIXING:  cpu time      0.0384: real time      0.0384
    --------------------------------------------
      LOOP:  cpu time    322.6614: real time    322.8785

 eigenvalue-minimisations  :  3008
 total energy-change (2. order) :-0.3632537E-03  (-0.7173801E-03)
 number of electron     250.9999999 magnetization 
 augmentation part      -12.3561764 magnetization 

 Broyden mixing:
  rms(total) = 0.14571E-01    rms(broyden)= 0.10204E+00
  rms(prec ) = 0.16659E-01
  weight for this iteration     100.00
  WARNING: grid for Broyden might be to small

 eigenvalues of (default mixing * dielectric matrix)
  average eigenvalue GAMMA=   0.9607
  2.5777  0.9686  0.6082  0.5720  0.5720  0.4656

 Free energy of the ion-electron system (eV)
  ---------------------------------------------------
  alpha Z        PSCENC =        24.91271107
  Ewald energy   TEWEN  =     28499.89332377
  -Hartree energ DENC   =    -33746.20293370
  -exchange      EXHF   =         0.00000000
  -V(xc)+E(xc)   XCENC  =      -204.60588102
  PAW double counting   =     36420.28059433   -35852.76525092
  entropy T*S    EENTRO =        -0.15988201
  eigenvalues    EBANDS =     -1917.78164819
  atomic energy  EATOM  =      6162.04196728
  Solvation  Ediel_sol  =         0.00000000
  ---------------------------------------------------
  free energy    TOTEN  =      -614.38699938 eV

  energy without entropy =     -614.22711738  energy(sigma->0) =     -614.30705838


--------------------------------------------------------------------------------------------------------




--------------------------------------- Iteration      1(   8)  ---------------------------------------


    POTLOK:  cpu time      1.8913: real time      1.9135
    SETDIJ:  cpu time      1.5006: real time      1.5013
    EDDIAG:  cpu time     50.9077: real time     50.9363
     EDDAV:  cpu time    239.9832: real time    240.1278
       DOS:  cpu time      0.0029: real time      0.0029
    CHARGE:  cpu time     28.4677: real time     28.4956
    MIXING:  cpu time      0.0398: real time      0.0398
    --------------------------------------------
      LOOP:  cpu time    322.7931: real time    323.0173

 eigenvalue-minimisations  :  3008
 total energy-change (2. order) :-0.4917661E-03  (-0.2892315E-03)
 number of electron     250.9999999 magnetization 
 augmentation part      -12.3551330 magnetization 

 Broyden mixing:
  rms(total) = 0.79087E-02    rms(broyden)= 0.54935E-01
  rms(prec ) = 0.97325E-02
  weight for this iteration     100.00
  WARNING: grid for Broyden might be to small

 eigenvalues of (default mixing * dielectric matrix)
  average eigenvalue GAMMA=   0.9801
  2.5746  1.2542  0.8135  0.6382  0.6382  0.4711  0.4711

 Free energy of the ion-electron system (eV)
  ---------------------------------------------------
  alpha Z        PSCENC =        24.91271107
  Ewald energy   TEWEN  =     28499.89332377
  -Hartree energ DENC   =    -33746.48790943
  -exchange      EXHF   =         0.00000000
  -V(xc)+E(xc)   XCENC  =      -204.52276029
  PAW double counting   =     36425.17761116   -35857.65499469
  entropy T*S    EENTRO =        -0.16013887
  eigenvalues    EBANDS =     -1917.58730115
  atomic energy  EATOM  =      6162.04196728
  Solvation  Ediel_sol  =         0.00000000
  ---------------------------------------------------
  free energy    TOTEN  =      -614.38749115 eV

  energy without entropy =     -614.22735228  energy(sigma->0) =     -614.30742171


--------------------------------------------------------------------------------------------------------




--------------------------------------- Iteration      1(   9)  ---------------------------------------


    POTLOK:  cpu time      1.8925: real time      1.9109
    SETDIJ:  cpu time      1.4532: real time      1.4539
    EDDIAG:  cpu time     50.8919: real time     50.9219
     EDDAV:  cpu time    231.9080: real time    232.0475
       DOS:  cpu time      0.0029: real time      0.0030
    CHARGE:  cpu time     28.5155: real time     28.5409
    MIXING:  cpu time      0.0407: real time      0.0407
    --------------------------------------------
      LOOP:  cpu time    314.7049: real time    314.9189

 eigenvalue-minimisations  :  2832
 total energy-change (2. order) :-0.9813407E-04  (-0.1106611E-03)
 number of electron     250.9999999 magnetization 
 augmentation part      -12.3547124 magnetization 

 Broyden mixing:
  rms(total) = 0.30399E-02    rms(broyden)= 0.43746E-01
  rms(prec ) = 0.35409E-02
  weight for this iteration     100.00
  WARNING: grid for Broyden might be to small

 eigenvalues of (default mixing * dielectric matrix)
  average eigenvalue GAMMA=   1.0700
  2.5283  2.1932  0.9156  0.7047  0.7047  0.6281  0.4428  0.4428

 Free energy of the ion-electron system (eV)
  ---------------------------------------------------
  alpha Z        PSCENC =        24.91271107
  Ewald energy   TEWEN  =     28499.89332377
  -Hartree energ DENC   =    -33746.59738492
  -exchange      EXHF   =         0.00000000
  -V(xc)+E(xc)   XCENC  =      -204.49264928
  PAW double counting   =     36442.29647189   -35874.76933089
  entropy T*S    EENTRO =        -0.16037135
  eigenvalues    EBANDS =     -1917.51232685
  atomic energy  EATOM  =      6162.04196728
  Solvation  Ediel_sol  =         0.00000000
  ---------------------------------------------------
  free energy    TOTEN  =      -614.38758928 eV

  energy without entropy =     -614.22721793  energy(sigma->0) =     -614.30740361


--------------------------------------------------------------------------------------------------------




--------------------------------------- Iteration      1(  10)  ---------------------------------------


    POTLOK:  cpu time      1.8887: real time      1.9098
    SETDIJ:  cpu time      1.4486: real time      1.4492
    EDDIAG:  cpu time     50.9353: real time     50.9645
     EDDAV:  cpu time    235.1989: real time    235.3381
       DOS:  cpu time      0.0044: real time      0.0044
    CHARGE:  cpu time     28.4653: real time     28.4907
    MIXING:  cpu time      0.0405: real time      0.0405
    --------------------------------------------
      LOOP:  cpu time    317.9814: real time    318.1970

 eigenvalue-minimisations  :  2912
 total energy-change (2. order) :-0.4025385E-04  (-0.3742596E-04)
 number of electron     250.9999999 magnetization 
 augmentation part      -12.3547588 magnetization 

 Broyden mixing:
  rms(total) = 0.16686E-02    rms(broyden)= 0.26404E-01
  rms(prec ) = 0.19473E-02
  weight for this iteration     100.00
  WARNING: grid for Broyden might be to small

 eigenvalues of (default mixing * dielectric matrix)
  average eigenvalue GAMMA=   1.1702
  3.1131  2.5899  1.1247  0.7869  0.7869  0.6464  0.6152  0.4344  0.4344

 Free energy of the ion-electron system (eV)
  ---------------------------------------------------
  alpha Z        PSCENC =        24.91271107
  Ewald energy   TEWEN  =     28499.89332377
  -Hartree energ DENC   =    -33746.60787617
  -exchange      EXHF   =         0.00000000
  -V(xc)+E(xc)   XCENC  =      -204.48968899
  PAW double counting   =     36446.09422171   -35878.56455812
  entropy T*S    EENTRO =        -0.16023059
  eigenvalues    EBANDS =     -1917.50749950
  atomic energy  EATOM  =      6162.04196728
  Solvation  Ediel_sol  =         0.00000000
  ---------------------------------------------------
  free energy    TOTEN  =      -614.38762954 eV

  energy without entropy =     -614.22739895  energy(sigma->0) =     -614.30751424


--------------------------------------------------------------------------------------------------------




--------------------------------------- Iteration      1(  11)  ---------------------------------------


    POTLOK:  cpu time      1.8896: real time      1.9107
    SETDIJ:  cpu time      1.4494: real time      1.4500
    EDDIAG:  cpu time     50.9454: real time     50.9743
     EDDAV:  cpu time    235.9356: real time    236.0770
       DOS:  cpu time      0.0067: real time      0.0070
    CHARGE:  cpu time     28.4407: real time     28.4681
    MIXING:  cpu time      0.0416: real time      0.0416
    --------------------------------------------
      LOOP:  cpu time    318.7091: real time    318.9288

 eigenvalue-minimisations  :  2920
 total energy-change (2. order) :-0.4925573E-04  (-0.1552497E-04)
 number of electron     250.9999999 magnetization 
 augmentation part      -12.3548269 magnetization 

 Broyden mixing:
  rms(total) = 0.88080E-03    rms(broyden)= 0.17548E-01
  rms(prec ) = 0.10984E-02
  weight for this iteration     100.00
  WARNING: grid for Broyden might be to small

 eigenvalues of (default mixing * dielectric matrix)
  average eigenvalue GAMMA=   1.2568
  3.9147  2.5814  1.4567  1.0741  0.7098  0.7098  0.6414  0.6132  0.4331  0.4331

 Free energy of the ion-electron system (eV)
  ---------------------------------------------------
  alpha Z        PSCENC =        24.91271107
  Ewald energy   TEWEN  =     28499.89332377
  -Hartree energ DENC   =    -33746.59190426
  -exchange      EXHF   =         0.00000000
  -V(xc)+E(xc)   XCENC  =      -204.49144360
  PAW double counting   =     36445.67064323   -35878.13914857
  entropy T*S    EENTRO =        -0.16020552
  eigenvalues    EBANDS =     -1917.52362221
  atomic energy  EATOM  =      6162.04196728
  Solvation  Ediel_sol  =         0.00000000
  ---------------------------------------------------
  free energy    TOTEN  =      -614.38767879 eV

  energy without entropy =     -614.22747327  energy(sigma->0) =     -614.30757603


--------------------------------------------------------------------------------------------------------




--------------------------------------- Iteration      1(  12)  ---------------------------------------


    POTLOK:  cpu time      1.8938: real time      1.9115
    SETDIJ:  cpu time      1.4579: real time      1.4586
    EDDIAG:  cpu time     50.8026: real time     50.8316
     EDDAV:  cpu time    232.2137: real time    232.3543
       DOS:  cpu time      0.0132: real time      0.0138
    CHARGE:  cpu time     28.5544: real time     28.5820
    MIXING:  cpu time      0.0570: real time      0.0575
    --------------------------------------------
      LOOP:  cpu time    314.9926: real time    315.2093

 eigenvalue-minimisations  :  2832
 total energy-change (2. order) :-0.7481020E-04  (-0.1014043E-04)
 number of electron     250.9999999 magnetization 
 augmentation part      -12.3548721 magnetization 

 Broyden mixing:
  rms(total) = 0.41966E-03    rms(broyden)= 0.13018E-01
  rms(prec ) = 0.63696E-03
  weight for this iteration     100.00
  WARNING: grid for Broyden might be to small

 eigenvalues of (default mixing * dielectric matrix)
  average eigenvalue GAMMA=   1.4463
  5.8000  2.5778  2.1304  0.9600  0.9600  0.8125  0.4215  0.4453  0.6295  0.6094
  0.5629

 Free energy of the ion-electron system (eV)
  ---------------------------------------------------
  alpha Z        PSCENC =        24.91271107
  Ewald energy   TEWEN  =     28499.89332377
  -Hartree energ DENC   =    -33746.57749705
  -exchange      EXHF   =         0.00000000
  -V(xc)+E(xc)   XCENC  =      -204.49336698
  PAW double counting   =     36442.13388843   -35874.60134901
  entropy T*S    EENTRO =        -0.16025854
  eigenvalues    EBANDS =     -1917.53717257
  atomic energy  EATOM  =      6162.04196728
  Solvation  Ediel_sol  =         0.00000000
  ---------------------------------------------------
  free energy    TOTEN  =      -614.38775360 eV

  energy without entropy =     -614.22749507  energy(sigma->0) =     -614.30762433


--------------------------------------------------------------------------------------------------------




--------------------------------------- Iteration      1(  13)  ---------------------------------------


    POTLOK:  cpu time      1.9120: real time      1.9271
    SETDIJ:  cpu time      1.4612: real time      1.4631
    EDDIAG:  cpu time     50.9346: real time     50.9654
     EDDAV:  cpu time    231.2027: real time    231.3333
       DOS:  cpu time      0.0076: real time      0.0078
    CHARGE:  cpu time     28.4556: real time     28.4954
    MIXING:  cpu time      0.0548: real time      0.0556
    --------------------------------------------
      LOOP:  cpu time    314.0284: real time    314.2477

 eigenvalue-minimisations  :  2816
 total energy-change (2. order) :-0.6966077E-04  (-0.6333873E-05)
 number of electron     250.9999999 magnetization 
 augmentation part      -12.3548819 magnetization 

 Broyden mixing:
  rms(total) = 0.26166E-03    rms(broyden)= 0.10419E-01
  rms(prec ) = 0.43643E-03
  weight for this iteration     100.00
  WARNING: grid for Broyden might be to small

 eigenvalues of (default mixing * dielectric matrix)
  average eigenvalue GAMMA=   1.6331
  8.0930  2.5655  2.5655  1.0917  1.0917  0.7486  0.7486  0.4242  0.4431  0.6313
  0.6275  0.5671

 Free energy of the ion-electron system (eV)
  ---------------------------------------------------
  alpha Z        PSCENC =        24.91271107
  Ewald energy   TEWEN  =     28499.89332377
  -Hartree energ DENC   =    -33746.56472903
  -exchange      EXHF   =         0.00000000
  -V(xc)+E(xc)   XCENC  =      -204.49546548
  PAW double counting   =     36441.67677913   -35874.14404621
  entropy T*S    EENTRO =        -0.16023995
  eigenvalues    EBANDS =     -1917.54812383
  atomic energy  EATOM  =      6162.04196728
  Solvation  Ediel_sol  =         0.00000000
  ---------------------------------------------------
  free energy    TOTEN  =      -614.38782326 eV

  energy without entropy =     -614.22758331  energy(sigma->0) =     -614.30770329


--------------------------------------------------------------------------------------------------------




--------------------------------------- Iteration      1(  14)  ---------------------------------------


    POTLOK:  cpu time      1.8940: real time      1.9150
    SETDIJ:  cpu time      1.4525: real time      1.4544
    EDDIAG:  cpu time     50.8895: real time     50.9218
     EDDAV:  cpu time    231.0454: real time    231.1873
       DOS:  cpu time      0.0025: real time      0.0026
    CHARGE:  cpu time     28.4594: real time     28.4847
    MIXING:  cpu time      0.0447: real time      0.0447
    --------------------------------------------
      LOOP:  cpu time    313.7881: real time    314.0105

 eigenvalue-minimisations  :  2816
 total energy-change (2. order) :-0.1023660E-03  (-0.9625193E-05)
 number of electron     250.9999999 magnetization 
 augmentation part      -12.3548959 magnetization 

 Broyden mixing:
  rms(total) = 0.15361E-03    rms(broyden)= 0.82172E-02
  rms(prec ) = 0.28696E-03
  weight for this iteration     100.00
  WARNING: grid for Broyden might be to small

 eigenvalues of (default mixing * dielectric matrix)
  average eigenvalue GAMMA=   1.6759
  9.0328  2.6273  2.6273  1.2848  1.0361  1.0361  0.8004  0.4256  0.4416  0.6421
  0.6421  0.6192  0.5709

 Free energy of the ion-electron system (eV)
  ---------------------------------------------------
  alpha Z        PSCENC =        24.91271107
  Ewald energy   TEWEN  =     28499.89332377
  -Hartree energ DENC   =    -33746.55365458
  -exchange      EXHF   =         0.00000000
  -V(xc)+E(xc)   XCENC  =      -204.49782472
  PAW double counting   =     36441.64517535   -35874.11261416
  entropy T*S    EENTRO =        -0.16023858
  eigenvalues    EBANDS =     -1917.55677106
  atomic energy  EATOM  =      6162.04196728
  Solvation  Ediel_sol  =         0.00000000
  ---------------------------------------------------
  free energy    TOTEN  =      -614.38792563 eV

  energy without entropy =     -614.22768705  energy(sigma->0) =     -614.30780634


--------------------------------------------------------------------------------------------------------




--------------------------------------- Iteration      1(  15)  ---------------------------------------


    POTLOK:  cpu time      1.9002: real time      1.9112
    SETDIJ:  cpu time      1.4424: real time      1.4436
    EDDIAG:  cpu time     50.9399: real time     50.9688
     EDDAV:  cpu time    230.9910: real time    231.1176
       DOS:  cpu time      0.0029: real time      0.0029
    CHARGE:  cpu time     28.4789: real time     28.5072
    MIXING:  cpu time      0.0446: real time      0.0446
    --------------------------------------------
      LOOP:  cpu time    313.8001: real time    313.9961

 eigenvalue-minimisations  :  2816
 total energy-change (2. order) :-0.9033941E-04  (-0.7920583E-05)
 number of electron     250.9999999 magnetization 
 augmentation part      -12.3548927 magnetization 

 Broyden mixing:
  rms(total) = 0.11507E-03    rms(broyden)= 0.62729E-02
  rms(prec ) = 0.19619E-03
  weight for this iteration     100.00
  WARNING: grid for Broyden might be to small

 eigenvalues of (default mixing * dielectric matrix)
  average eigenvalue GAMMA=   1.7082
  9.6868  2.7303  2.7303  1.8294  1.1141  0.9011  0.9011  0.4257  0.4413  0.7293
  0.6171  0.6171  0.6178  0.5733

 Free energy of the ion-electron system (eV)
  ---------------------------------------------------
  alpha Z        PSCENC =        24.91271107
  Ewald energy   TEWEN  =     28499.89332377
  -Hartree energ DENC   =    -33746.54602579
  -exchange      EXHF   =         0.00000000
  -V(xc)+E(xc)   XCENC  =      -204.49844831
  PAW double counting   =     36441.79688001   -35874.26443527
  entropy T*S    EENTRO =        -0.16023802
  eigenvalues    EBANDS =     -1917.56375072
  atomic energy  EATOM  =      6162.04196728
  Solvation  Ediel_sol  =         0.00000000
  ---------------------------------------------------
  free energy    TOTEN  =      -614.38801597 eV

  energy without entropy =     -614.22777795  energy(sigma->0) =     -614.30789696


--------------------------------------------------------------------------------------------------------




--------------------------------------- Iteration      1(  16)  ---------------------------------------


    POTLOK:  cpu time      1.9096: real time      1.9116
    SETDIJ:  cpu time      1.4509: real time      1.4522
    EDDIAG:  cpu time     50.9128: real time     50.9439
     EDDAV:  cpu time    232.2612: real time    232.3971
       DOS:  cpu time      0.0041: real time      0.0041
    CHARGE:  cpu time     28.4604: real time     28.4884
    MIXING:  cpu time      0.0452: real time      0.0453
    --------------------------------------------
      LOOP:  cpu time    315.0443: real time    315.2427

 eigenvalue-minimisations  :  2848
 total energy-change (2. order) :-0.7260871E-04  (-0.5894392E-05)
 number of electron     250.9999999 magnetization 
 augmentation part      -12.3549004 magnetization 

 Broyden mixing:
  rms(total) = 0.76433E-04    rms(broyden)= 0.46213E-02
  rms(prec ) = 0.13060E-03
  weight for this iteration     100.00
  WARNING: grid for Broyden might be to small

 eigenvalues of (default mixing * dielectric matrix)
  average eigenvalue GAMMA=   1.7096
  9.9029  2.8589  2.8042  1.9703  1.2782  0.9929  0.9929  0.8603  0.4256  0.4415
  0.6543  0.6543  0.6222  0.6222  0.5641

 Free energy of the ion-electron system (eV)
  ---------------------------------------------------
  alpha Z        PSCENC =        24.91271107
  Ewald energy   TEWEN  =     28499.89332377
  -Hartree energ DENC   =    -33746.53900810
  -exchange      EXHF   =         0.00000000
  -V(xc)+E(xc)   XCENC  =      -204.49919420
  PAW double counting   =     36441.78709869   -35874.25473834
  entropy T*S    EENTRO =        -0.16023998
  eigenvalues    EBANDS =     -1917.57000877
  atomic energy  EATOM  =      6162.04196728
  Solvation  Ediel_sol  =         0.00000000
  ---------------------------------------------------
  free energy    TOTEN  =      -614.38808858 eV

  energy without entropy =     -614.22784860  energy(sigma->0) =     -614.30796859


--------------------------------------------------------------------------------------------------------




--------------------------------------- Iteration      1(  17)  ---------------------------------------


    POTLOK:  cpu time      1.9000: real time      1.9121
    SETDIJ:  cpu time      1.4509: real time      1.4517
[...]
   0.618E-01 0.174E+02 0.756E+02   -.109E+01 -.178E+02 -.741E+02   0.114E+01 0.431E+00 -.148E+01   -.107E-04 0.634E-05 -.401E-05
   -.539E+00 0.437E+01 0.733E+01   0.149E+00 -.273E+01 -.545E+01   0.428E+00 -.143E+01 -.215E+01   0.136E-04 -.181E-04 0.117E-05
   -.201E+02 -.543E+01 -.142E+03   0.182E+02 0.490E+01 0.146E+03   0.155E+01 0.583E+00 -.305E+01   0.486E-05 -.196E-04 0.345E-05
   0.206E+02 0.533E+01 0.151E+03   -.227E+02 -.434E+01 -.151E+03   0.189E+01 -.758E+00 -.258E+00   -.154E-04 -.753E-06 -.895E-05
   -.326E+01 -.309E+02 0.121E+03   0.579E+00 0.296E+02 -.119E+03   0.278E+01 0.110E+01 -.208E+01   0.420E-05 0.227E-05 -.717E-05
   -.140E+02 0.185E+01 0.245E+03   0.137E+02 -.190E+01 -.247E+03   0.435E+00 0.379E+00 0.883E+00   -.712E-05 0.274E-04 0.153E-05
   0.146E+02 -.744E+01 -.156E+03   -.126E+02 0.698E+01 0.156E+03   -.177E+01 0.572E+00 0.931E-01   -.688E-05 0.578E-05 0.353E-05
   -.489E+02 -.107E+02 0.743E+02   0.464E+02 0.104E+02 -.741E+02   0.310E+01 0.257E+00 -.719E+00   0.324E-04 -.389E-04 0.528E-05
   0.460E+01 -.186E+02 0.124E+03   -.240E+01 0.187E+02 -.123E+03   -.192E+01 -.117E-01 -.114E+01   0.713E-05 -.114E-04 -.875E-05
   0.440E+02 0.896E+01 -.110E+03   -.416E+02 -.705E+01 0.110E+03   -.218E+01 -.183E+01 -.160E+00   -.178E-05 0.275E-05 -.974E-05
   0.152E+02 -.266E+02 0.250E+03   -.158E+02 0.258E+02 -.249E+03   0.400E+00 0.622E+00 -.156E+01   -.189E-05 0.174E-04 -.141E-06
   -.325E+02 -.994E+01 0.210E+03   0.319E+02 0.938E+01 -.210E+03   0.538E+00 0.390E+00 -.717E+00   0.894E-05 -.264E-05 -.117E-05
   0.839E+01 -.682E+01 0.250E+03   -.827E+01 0.723E+01 -.251E+03   -.662E-02 -.378E+00 0.132E+01   -.724E-06 0.956E-05 -.755E-06
   0.142E+02 -.750E+01 -.126E+03   -.128E+02 0.809E+01 0.126E+03   -.110E+01 -.387E+00 -.245E+00   0.458E-05 -.237E-04 -.119E-04
   -.282E+02 0.187E+01 0.105E+03   0.283E+02 -.668E+00 -.105E+03   -.311E+00 -.116E+01 0.341E+00   -.209E-04 0.731E-05 -.212E-05
   -.194E+02 0.133E+02 -.813E+02   0.191E+02 -.124E+02 0.810E+02   0.283E+00 -.129E+01 0.379E+00   0.560E-05 -.141E-04 0.617E-05
   -.181E+02 0.171E+02 0.741E+02   0.186E+02 -.162E+02 -.714E+02   -.816E+00 -.941E+00 -.263E+01   0.147E-04 -.123E-04 -.850E-05
   -.320E+02 -.278E+02 -.171E+03   0.296E+02 0.274E+02 0.169E+03   0.229E+01 0.444E+00 0.171E+01   0.804E-05 -.724E-05 -.136E-04
   0.123E+02 -.264E+02 0.153E+03   -.116E+02 0.250E+02 -.152E+03   -.866E+00 0.133E+01 -.118E+01   0.297E-05 0.777E-05 -.603E-05
   -.312E+01 0.314E+02 0.579E+02   0.302E+01 -.304E+02 -.600E+02   0.347E+00 -.117E+01 0.192E+01   -.165E-05 0.126E-04 -.540E-05
   -.403E+02 -.122E+02 -.378E+01   0.421E+02 0.151E+02 0.250E+01   -.170E+01 -.285E+01 0.974E+00   0.336E-06 0.166E-04 -.792E-05
   -.139E+02 -.369E+01 0.960E+02   0.126E+02 0.385E+01 -.954E+02   0.900E+00 -.923E-01 -.481E+00   -.132E-05 0.186E-04 -.248E-05
   -.161E+02 -.415E+01 0.123E+03   0.157E+02 0.406E+01 -.121E+03   0.589E+00 0.117E+00 -.229E+01   -.269E-05 0.344E-04 -.297E-05
   0.706E+01 -.269E+02 -.268E+03   -.724E+01 0.270E+02 0.267E+03   0.150E+00 0.186E-01 0.811E+00   -.373E-05 0.135E-05 -.560E-05
   0.172E+02 0.101E+02 -.185E+03   -.166E+02 -.891E+01 0.186E+03   -.563E+00 -.116E+01 -.453E-01   -.107E-04 -.596E-05 -.103E-04
   0.250E+02 -.550E+01 -.121E+03   -.251E+02 0.504E+01 0.121E+03   -.375E-01 0.411E+00 -.342E+00   -.116E-04 -.393E-05 0.469E-05
   0.101E+02 -.917E+01 -.198E+03   -.956E+01 0.864E+01 0.199E+03   -.332E+00 0.396E+00 -.831E+00   -.455E-05 0.878E-05 -.188E-04
   0.286E+02 0.171E+02 -.236E+03   -.291E+02 -.174E+02 0.235E+03   0.486E+00 0.287E+00 0.123E+01   0.634E-06 0.195E-05 -.123E-04
   0.338E+01 0.484E+01 -.215E+03   -.306E+01 -.486E+01 0.218E+03   -.479E+00 -.805E-01 -.231E+01   -.258E-06 0.107E-04 -.799E-05
   0.140E+02 -.116E+02 -.169E+02   -.122E+02 0.112E+02 0.184E+02   -.189E+01 0.586E+00 -.115E+01   -.189E-04 -.295E-05 -.926E-05
   0.385E+02 0.134E+02 -.111E+03   -.374E+02 -.138E+02 0.109E+03   -.929E+00 0.318E+00 0.156E+01   -.351E-05 0.422E-06 -.163E-06
   -.264E+02 0.279E+02 0.110E+02   0.234E+02 -.269E+02 -.122E+02   0.269E+01 -.125E+01 0.106E+01   0.121E-04 0.302E-04 0.313E-05
   -.382E+01 -.203E+02 0.195E+03   0.553E+01 0.183E+02 -.193E+03   -.161E+01 0.198E+01 -.281E+01   -.862E-05 -.877E-05 -.118E-04
   -.339E+02 0.246E+02 -.206E+03   0.325E+02 -.236E+02 0.205E+03   0.133E+01 -.879E+00 0.109E+01   -.261E-05 0.111E-04 -.234E-05
   0.409E+02 0.756E+01 0.123E+03   -.411E+02 -.849E+01 -.123E+03   0.620E-01 0.663E+00 -.451E+00   -.363E-05 0.656E-05 -.415E-05
   0.189E+02 0.150E+02 0.238E+03   -.195E+02 -.157E+02 -.234E+03   0.136E+00 0.792E+00 -.329E+01   -.839E-05 -.395E-05 -.764E-05
   -.398E+01 -.233E+02 0.229E+03   0.296E+01 0.227E+02 -.229E+03   0.143E+01 0.778E+00 -.238E+00   -.563E-05 0.113E-04 0.506E-05
   -.387E+02 -.113E+02 -.214E+03   0.388E+02 0.116E+02 0.214E+03   -.124E+00 -.483E+00 0.448E+00   0.134E-05 0.630E-05 -.172E-04
   0.224E+01 -.235E+02 -.115E+03   -.534E+01 0.233E+02 0.116E+03   0.269E+01 0.115E+00 -.802E+00   -.304E-05 0.166E-05 -.203E-04
   -.295E+02 0.102E+02 -.137E+03   0.281E+02 -.113E+02 0.135E+03   0.154E+01 0.105E+01 0.221E+01   -.864E-05 0.556E-05 0.766E-05
   -.156E+02 0.546E+02 0.171E+03   0.142E+02 -.508E+02 -.170E+03   0.127E+01 -.300E+01 -.667E+00   0.863E-05 0.189E-04 -.562E-05
   -.313E+02 0.126E+02 0.137E+02   0.298E+02 -.120E+02 -.132E+02   0.127E+01 -.830E+00 -.463E+00   0.127E-04 -.106E-04 -.119E-04
   -.494E+01 -.158E+02 0.114E+03   0.253E+01 0.163E+02 -.112E+03   0.184E+01 -.821E+00 -.215E+01   -.121E-04 0.938E-05 -.848E-05
   0.897E+01 0.149E+02 -.106E+03   -.940E+01 -.137E+02 0.106E+03   0.573E+00 -.773E+00 0.559E-02   0.236E-06 0.139E-04 -.114E-04
   -.132E+02 0.113E+02 0.288E+03   0.117E+02 -.123E+02 -.285E+03   0.161E+01 0.111E+01 -.270E+01   0.114E-04 -.167E-04 -.808E-05
   0.724E+02 0.373E+02 0.203E+03   -.736E+02 -.375E+02 -.202E+03   0.969E+00 0.783E-02 -.149E+01   0.155E-05 -.455E-05 0.699E-06
   0.155E+02 0.136E+02 0.112E+03   -.140E+02 -.131E+02 -.111E+03   -.168E+01 -.732E+00 -.119E+01   -.776E-05 -.127E-04 -.121E-04
   0.153E+02 -.146E+02 -.132E+03   -.150E+02 0.144E+02 0.132E+03   -.175E+00 0.615E-01 -.589E+00   -.154E-04 -.545E-06 -.146E-04
   -.553E+02 -.710E+00 0.227E+03   0.524E+02 0.975E-01 -.223E+03   0.198E+01 0.499E+00 -.353E+01   0.135E-04 -.270E-04 -.597E-05
   -.396E+02 0.541E+01 0.127E+03   0.391E+02 -.541E+01 -.126E+03   0.524E+00 -.211E-01 -.932E+00   0.637E-05 -.524E-05 0.154E-04
   -.138E+02 0.192E+02 0.756E+02   0.138E+02 -.202E+02 -.748E+02   0.130E+00 0.954E+00 -.405E+00   0.178E-04 -.135E-04 -.378E-05
   0.208E+02 0.852E+01 -.698E+02   -.217E+02 -.978E+01 0.706E+02   0.938E+00 0.101E+01 -.639E+00   -.967E-05 -.819E-05 -.228E-05
   -.183E+01 -.412E+01 -.251E+03   0.253E+01 0.282E+01 0.251E+03   -.655E+00 0.119E+01 0.421E+00   -.812E-05 -.617E-05 0.508E-05
   0.286E+02 0.608E+01 0.254E+03   -.270E+02 -.642E+01 -.254E+03   -.153E+01 0.328E+00 -.751E+00   -.187E-04 -.645E-05 -.585E-05
   0.520E+01 0.152E+02 -.185E+03   -.582E+01 -.157E+02 0.188E+03   0.719E+00 0.479E+00 -.248E+01   0.147E-05 0.118E-04 0.417E-05
 -----------------------------------------------------------------------------------------------
   -.177E+02 0.892E+01 0.637E+02   0.266E-13 0.117E-12 0.142E-12   0.177E+02 -.891E+01 -.637E+02   -.265E-04 0.357E-04 -.322E-03


 POSITION                                       TOTAL-FORCE (eV/Angst)
 -----------------------------------------------------------------------------------
      0.33640     10.07607     15.31312         0.024948     -0.049030     -0.032513
      7.45105     11.84488      8.77030         0.062293     -0.067566     -0.033488
      3.51782      1.20321     15.93184         0.019177      0.003020      0.173604
      0.81475     14.04682     15.99396        -0.017293     -0.040669     -0.063908
      9.78577      4.08862     14.47218         0.078526      0.016050     -0.113978
     13.15364      7.92228     14.56053         0.039177      0.138614     -0.033432
     14.35432      0.94762     14.21321         0.038336      0.056964      0.053694
      1.28462      5.83020     15.38043         0.065417      0.092986     -0.159357
      2.83374      8.56819     15.23909        -0.148343      0.065699      0.062757
      1.51980      6.03208     14.67887        -0.126709     -0.079787      0.508433
      2.17184      9.82532     13.25678        -0.089672     -0.014858      0.044526
     13.66872      3.87049     15.22301         0.009646     -0.118079      0.136761
      5.75124     13.53328      8.94608        -0.136449     -0.013828     -0.069223
     11.57674     13.91573     15.63166         0.140098      0.045717      0.095128
     13.17879     11.68004     14.95001        -0.113008     -0.016609     -0.121825
      1.95246      3.77327     14.62488         0.020731     -0.027107     -0.081600
     14.36647      4.25338     13.20755         0.008834      0.146333     -0.140763
     12.06527      2.11175     13.65557         0.141615      0.118975      0.022637
     13.55887      5.59193     14.58895         0.133999      0.097267     -0.039275
      2.49092     12.37108     16.02888         0.187247     -0.012480     -0.004634
     13.91915      3.19471     15.40871        -0.061748      0.071745      0.151367
     14.44750      1.60153     14.56033         0.023785     -0.180588     -0.091413
      6.97258     11.86750     16.06712        -0.038373      0.054492      0.231564
      5.35471      4.08810     11.12467         0.226494      0.098041     -0.268340
      1.59190      0.44934     11.49917         0.084667      0.000191     -0.250944
      8.34483      9.98643     11.85884         0.156222      0.021193     -0.061748
      2.26456      6.68608     12.72735         0.062281      0.202582     -0.334644
     13.19444      6.71735     13.69793        -0.316505      0.081526      0.110322
      8.18834      6.66993     11.05319        -0.037813      0.208512     -0.286640
      1.73009      2.71507     11.65723         0.182538     -0.172303      0.141364
     11.29399     11.38950     10.37465         0.151022      0.318769     -0.033468
      8.44568      4.01524     13.80566         0.261262      0.154222      0.276748
      0.10154      6.95898     11.90225         0.745613      0.013302     -0.551920
      9.22693      1.12002     11.56532         0.178268      0.112724      0.212785
      7.12640     13.83600     13.46752         0.149501      0.026493      0.034330
      0.24721     13.70404     10.12783         0.024446     -0.258602     -0.137038
     11.41023      0.80369     10.81897        -0.157531     -0.133874     -0.459094
      6.63205     12.63085      9.72019         0.114140      0.026575      0.050834
      2.92564      8.64597     13.76317         0.168474      0.178938      0.092782
     11.51063      9.30967     11.45511        -0.156650     -0.038932      0.121394
     11.05625      6.30200     12.90725         0.030118     -0.457802      0.024261
     14.23662      3.61662     11.86501        -0.302174     -0.023630     -0.012874
      9.01607      0.61336     13.92905        -0.101232     -0.066488     -0.065455
      7.94951     13.75269     11.27668        -0.183433     -0.047681      0.034783
      3.74569     12.85148     11.71668         0.198072     -0.134538     -0.093101
     11.66472     13.66594     12.33015         0.002004     -0.117031     -0.312115
      9.51522     12.08846     11.74115        -0.365039      0.045810      0.169174
     13.22450     12.42514     11.26634         0.233967      0.027555      0.021815
      7.60740      2.20202     14.98132         0.011107      0.046925     -0.466399
      5.60834      6.52865     13.97899         0.009101      0.005579     -0.007706
      7.82475      6.25239     13.43848        -0.101159     -0.063532      0.203676
      3.70984      1.24613     14.46453         0.180832     -0.092980     -0.332420
      7.38680     11.87545     14.65587         0.004438      0.006339     -0.102312
      1.47439     13.00828     15.16117        -0.162618     -0.102486      0.141475
      4.10594      5.16136     12.79000        -0.200245      0.151632      0.260484
      6.44686     10.44373     13.12933         0.059147     -0.052949      0.061314
      0.12620     10.95673     12.26737        -0.216680     -0.367584     -0.227305
     10.54381      7.24766     10.79675         0.045335     -0.039924     -0.143252
      9.65350     11.59906     14.12634        -0.044096      0.080022     -0.120947
      5.40484     11.32443     11.23342        -0.114785     -0.225939     -0.095774
      7.18382      8.61292     10.38873        -0.430437      0.143331      0.507668
      3.77736      0.30623     10.53614         0.457330      0.153401      0.280483
     10.73101     13.65932     14.44675        -0.056635     -0.134359      0.221412
      2.90150      3.27118     13.58840        -0.329750     -0.101466      0.177880
     10.06919      9.38498     13.37350         0.068863      0.034414     -0.020675
      1.68993     12.05454     10.93354        -0.131907      0.768276      0.189209
     12.24984      2.45419     12.21262        -0.142528     -0.214193      0.015630
      5.14401      1.85551     11.62884        -0.490755     -0.395133     -0.149397
      2.60470     14.02874     13.38968         0.177027      0.349272      0.119924
     11.64467      5.45723      9.73867         0.333069      0.287957      0.218294
      4.88460      9.06563     10.71199         0.168061     -0.061790     -0.438433
      8.74271      3.39676     11.55290        -0.225255     -0.203085     -0.063888
      5.89581      1.19045     13.75702         0.058718     -0.181783      0.208297
     13.82062      5.39857     10.47037        -0.910713     -0.087341      0.091741
     13.81738      9.02831     11.42876         0.026074     -0.001806      0.285251
     10.91413      4.28639     11.64834         0.108961      0.077290      0.367018
      5.10648      8.56037     13.03653         0.152368     -0.155682      0.040347
      9.64069      7.33111     14.46681         0.012319     -0.051752     -0.354161
      7.38209      4.65133     10.16039        -0.036590      0.021988      0.072540
     14.56040     11.30775     14.56621         0.110460      0.054546      0.141755
 -----------------------------------------------------------------------------------
    total drift:                               -0.002371      0.001108     -0.003846


--------------------------------------------------------------------------------------------------------



  FREE ENERGIE OF THE ION-ELECTRON SYSTEM (eV)
  ---------------------------------------------------
  free  energy   TOTEN  =      -614.38816753 eV

  energy  without entropy=     -614.22793473  energy(sigma->0) =     -614.30805113



--------------------------------------------------------------------------------------------------------


    POTLOK:  cpu time      3.3203: real time      3.3228


--------------------------------------------------------------------------------------------------------


     LOOP+:  cpu time   7590.0324: real time   7595.6903
    4ORBIT:  cpu time      0.0000: real time      0.0000



 total charge

# of ion       s       p       d       tot
------------------------------------------
    1        0.573   0.015   0.000   0.588
    2        0.573   0.015   0.000   0.588
    3        0.568   0.016   0.000   0.583
    4        0.570   0.015   0.000   0.585
    5        0.567   0.015   0.000   0.582
    6        0.573   0.015   0.000   0.588
    7        0.613   0.032   0.000   0.645
    8        0.588   0.029   0.000   0.617
    9        0.571   0.015   0.000   0.587
   10        0.604   0.031   0.000   0.635
   11        0.573   0.016   0.000   0.590
   12        0.611   0.033   0.000   0.644
   13        0.572   0.016   0.000   0.588
   14        0.570   0.016   0.000   0.586
   15        0.572   0.015   0.000   0.588
   16        0.568   0.016   0.000   0.583
   17        0.568   0.017   0.000   0.585
   18        0.564   0.015   0.000   0.579
   19        0.576   0.016   0.000   0.592
   20        0.573   0.015   0.000   0.588
   21        0.618   0.032   0.000   0.649
   22        0.609   0.033   0.000   0.641
   23        0.570   0.016   0.000   0.586
   24        0.792   0.864   0.000   1.656
   25        0.758   0.916   0.000   1.674
   26        0.773   0.918   0.000   1.691
   27        0.784   0.867   0.000   1.651
   28        0.741   0.994   0.000   1.735
   29        0.764   0.904   0.000   1.667
   30        0.788   0.911   0.000   1.700
   31        0.820   0.832   0.000   1.651
   32        0.757   0.965   0.000   1.722
   33        0.748   0.972   0.000   1.720
   34        0.761   0.923   0.000   1.684
   35        0.759   0.966   0.000   1.725
   36        0.804   0.855   0.000   1.659
   37        0.806   0.885   0.000   1.691
   38        0.738   1.007   0.000   1.744
   39        0.739   1.021   0.000   1.759
   40        0.756   0.912   0.000   1.668
   41        0.766   0.932   0.000   1.697
   42        0.749   1.005   0.000   1.754
   43        0.764   0.925   0.000   1.689
   44        0.752   0.956   0.000   1.708
   45        0.757   0.950   0.000   1.707
   46        0.786   0.890   0.000   1.675
   47        0.752   0.929   0.000   1.681
   48        0.758   0.954   0.000   1.712
   49        0.813   0.844   0.000   1.656
   50        0.791   0.898   0.000   1.688
   51        0.765   0.916   0.000   1.681
   52        0.743   0.991   0.000   1.734
   53        0.742   1.003   0.000   1.745
   54        0.733   1.023   0.000   1.755
   55        0.752   0.900   0.000   1.652
   56        0.764   0.956   0.000   1.720
   57        0.747   0.986   0.000   1.732
   58        0.767   0.896   0.000   1.663
   59        0.757   0.925   0.000   1.682
   60        0.755   0.955   0.000   1.709
   61        0.794   0.867   0.000   1.662
   62        0.810   0.842   0.000   1.652
   63        0.743   0.966   0.000   1.709
   64        0.740   0.978   0.000   1.718
   65        0.769   0.894   0.000   1.664
   66        0.806   0.848   0.000   1.654
   67        0.745   0.978   0.000   1.723
   68        0.790   0.856   0.000   1.646
   69        0.752   0.935   0.000   1.686
   70        0.799   0.859   0.000   1.658
   71        0.814   0.827   0.000   1.641
   72        0.759   0.942   0.000   1.702
   73        0.758   0.956   0.000   1.714
   74        0.783   0.912   0.000   1.695
   75        0.790   0.897   0.000   1.687
   76        0.767   0.911   0.000   1.678
   77        0.757   0.951   0.000   1.709
   78        0.812   0.842   0.000   1.654
   79        0.795   0.870   0.000   1.664
   80        0.734   1.011   0.000   1.745
--------------------------------------------------
tot         57.159  53.140   0.000 110.299


 total amount of memory used by VASP MPI-rank0   362994. kBytes
=======================================================================

   base                                    :      30000. kBytes
   nonl-proj                               :      73506. kBytes
   fftplans                                :      98003. kBytes
   grid                                    :      75605. kBytes
   one-center                              :         15. kBytes
   wavefun                                 :      85865. kBytes

  
  
 General timing and accounting informations for this job:
 ========================================================
  
                  Total CPU time used (sec):     7734.648
                            User time (sec):     6823.958
                          System time (sec):      910.690
                         Elapsed time (sec):     7740.693
  
                   Maximum memory used (kb):      617844.
                   Average memory used (kb):          N/A
  
                          Minor page faults:     13172147
                          Major page faults:         1181
                 Voluntary context switches:         3467
