 vasp.6.5.0 16Dec24 (build Jan 20 2025 08:32:48) complex                         
 executed on        HPECrayEX_GCC date 2025.07.21  23:25:58
 running  128 mpi-ranks, with    1 threads/rank, on    1 nodes
 distrk:  each k-point on  128 cores,    1 groups
 distr:  one band on NCORE=  16 cores,    8 groups


--------------------------------------------------------------------------------------------------------


 INCAR:
   SYSTEM = a-Si SPC
   NCORE = 16
   ISTART = 1
   ICHARG = 1
   ISPIN = 1
   ISYM = 1
   EDIFF = 1E-6
   NELM = 150
   EDIFFG = -0.01
   NSW = 0
   ISIF = 2
   IBRION = -1
   PREC = Accurate
   ENCUT = 1200
   KSPACING = 0.23
   KGAMMA = .TRUE.
   METAGGA = SCAN
   LASPH = .TRUE.
   LDIAG = .FALSE.
   LMIXTAU = .TRUE.
   ADDGRID = .TRUE.
   ALGO = Normal
   ISMEAR = 0
   SIGMA = 0.1
   LORBIT = 11
   NEDOS = 2000
   LWAVE = .FALSE.
   LCHARG = .FALSE.

 POTCAR:    PAW_PBE H 15Jun2001                   
 POTCAR:    PAW_PBE Si 05Jan2001                  
 POTCAR:    PAW_PBE H 15Jun2001                   
   SHA256 =  030f79b5d3ab3cf0e668861823c8fb652ff669f3e15e46930bd03bfd63a607b6 H/POTCAR              
   COPYR  = (c) Copyright 15Jun2001 Georg Kresse                                                    
   COPYR  = This file is part of the software VASP. Any use, copying, and all other rights are regul
   COPYR  = If you do not have a valid VASP license, you may not use, copy or distribute this file. 
   VRHFIN =H: ultrasoft test                                                                        
   LEXCH  = PE                                                                                      
   EATOM  =    12.4884 eV,    0.9179 Ry                                                             
                                                                                                    
   TITEL  = PAW_PBE H 15Jun2001                                                                     
   LULTRA =        F    use ultrasoft PP ?                                                          
   IUNSCR =        0    unscreen: 0-lin 1-nonlin 2-no                                               
   RPACOR =    0.000    partial core radius                                                         
   POMASS =    1.000; ZVAL   =    1.000    mass and valenz                                          
   RCORE  =    1.100    outmost cutoff radius                                                       
   RWIGS  =    0.700; RWIGS  =    0.370    wigner-seitz radius (au A)                               
   ENMAX  =  250.000; ENMIN  =  200.000 eV                                                          
   RCLOC  =    0.701    cutoff for local pot                                                        
   LCOR   =        T    correct aug charges                                                         
   LPAW   =        T    paw PP                                                                      
   EAUG   =  400.000                                                                                
   RMAX   =    1.123    core radius for proj-oper                                                   
   RAUG   =    1.200    factor for augmentation sphere                                              
   RDEP   =    1.112    radius for radial grids                                                     
   RDEPT  =    0.926    core radius for aug-charge                                                  
                                                                                                    
   Atomic configuration                                                                             
    2 entries                                                                                       
     n  l   j            E        occ.                                                              
     1  0  0.50        -6.4927   1.0000                                                             
     2  1  0.50        -3.4015   0.0000                                                             
   Description                                                                                      
     l       E           TYP  RCUT    TYP  RCUT                                                     
     0     -6.4927494     23  1.100                                                                 
     0      6.8029130     23  1.100                                                                 
     1     -4.0817478     23  1.100                                                                 
  local pseudopotential read in
  atomic valenz-charges read in
  non local Contribution for L=           0  read in
    real space projection operators read in
  non local Contribution for L=           0  read in
    real space projection operators read in
  non local Contribution for L=           1  read in
    real space projection operators read in
    PAW grid and wavefunctions read in

   number of l-projection  operators is LMAX  =           3
   number of lm-projection operators is LMMAX =           5

 POTCAR:    PAW_PBE Si 05Jan2001                  
   SHA256 =  79d9987ad8750f624c4d6acb2a16d13abf6a777132adc04dc6c8399be72b42bb Si/POTCAR             
   COPYR  = (c) Copyright 05Jan2001 Georg Kresse                                                    
   COPYR  = This file is part of the software VASP. Any use, copying, and all other rights are regul
   COPYR  = If you do not have a valid VASP license, you may not use, copy or distribute this file. 
   VRHFIN =Si: s2p2                                                                                 
   LEXCH  = PE                                                                                      
   EATOM  =   103.0669 eV,    7.5752 Ry                                                             
                                                                                                    
   TITEL  = PAW_PBE Si 05Jan2001                                                                    
   LULTRA =        F    use ultrasoft PP ?                                                          
   IUNSCR =        1    unscreen: 0-lin 1-nonlin 2-no                                               
   RPACOR =    1.500    partial core radius                                                         
   POMASS =   28.085; ZVAL   =    4.000    mass and valenz                                          
   RCORE  =    1.900    outmost cutoff radius                                                       
   RWIGS  =    2.480; RWIGS  =    1.312    wigner-seitz radius (au A)                               
   ENMAX  =  245.345; ENMIN  =  184.009 eV                                                          
   ICORE  =        2    local potential                                                             
   LCOR   =        T    correct aug charges                                                         
   LPAW   =        T    paw PP                                                                      
   EAUG   =  322.069                                                                                
   DEXC   =    0.000                                                                                
   RMAX   =    1.950    core radius for proj-oper                                                   
   RAUG   =    1.300    factor for augmentation sphere                                              
   RDEP   =    1.993    radius for radial grids                                                     
   RDEPT  =    1.837    core radius for aug-charge                                                  
                                                                                                    
   Atomic configuration                                                                             
    6 entries                                                                                       
     n  l   j            E        occ.                                                              
     1  0  0.50     -1785.8828   2.0000                                                             
     2  0  0.50      -139.4969   2.0000                                                             
     2  1  1.50       -95.5546   6.0000                                                             
     3  0  0.50       -10.8127   2.0000                                                             
     3  1  0.50        -4.0811   2.0000                                                             
     3  2  1.50        -4.0817   0.0000                                                             
   Description                                                                                      
     l       E           TYP  RCUT    TYP  RCUT                                                     
     0    -10.8127223     23  1.900                                                                 
     0     -7.6451159     23  1.900                                                                 
     1     -4.0811372     23  1.900                                                                 
     1      2.4879257     23  1.900                                                                 
     2     -4.0817478      7  1.900                                                                 
  local pseudopotential read in
  partial core-charges read in
  partial kinetic energy density read in
  atomic valenz-charges read in
  non local Contribution for L=           0  read in
    real space projection operators read in
  non local Contribution for L=           0  read in
    real space projection operators read in
  non local Contribution for L=           1  read in
    real space projection operators read in
  non local Contribution for L=           1  read in
    real space projection operators read in
    PAW grid and wavefunctions read in

   number of l-projection  operators is LMAX  =           4
   number of lm-projection operators is LMMAX =           8

 -----------------------------------------------------------------------------
|                                                                             |
|               ----> ADVICE to this user running VASP <----                  |
|                                                                             |
|     You have a (more or less) 'large supercell' and for larger cells it     |
|     might be more efficient to use real-space projection operators.         |
|     Therefore, try LREAL= Auto in the INCAR file.                           |
|     Mind: For very accurate calculation, you might also keep the            |
|     reciprocal projection scheme (i.e. LREAL=.FALSE.).                      |
|                                                                             |
 -----------------------------------------------------------------------------

 -----------------------------------------------------------------------------
|                                                                             |
|               ----> ADVICE to this user running VASP <----                  |
|                                                                             |
|     You enforced a specific xc type in the INCAR file but a different       |
|     type was found in the POTCAR file.                                      |
|     I HOPE YOU KNOW WHAT YOU ARE DOING!                                     |
|                                                                             |
 -----------------------------------------------------------------------------

  PAW_PBE H 15Jun2001                   :
 energy of atom  1       EATOM=  -12.4884
 kinetic energy error for atom=    0.0000 (will be added to EATOM!!)
  PAW_PBE Si 05Jan2001                  :
 energy of atom  2       EATOM= -103.0669
 kinetic energy error for atom=    0.0001 (will be added to EATOM!!)


 POSCAR:  H Si
  positions in cartesian coordinates
  No initial velocities read in


 exchange-correlation table for SCAN
   RHO(1)=    0.500       N(1)  =     2000
   RHO(2)=  100.500       N(2)  =     4000



--------------------------------------------------------------------------------------------------------


 ion  position               nearest neighbor table
   1  0.047  0.702  0.596-  80 1.49
   2  0.496  0.781  0.400-  38 1.57
   3  0.307  0.981  0.592-
   4  0.003  0.995  0.607-  54 1.45
   5  0.660  0.228  0.590-  32 1.50
   6  0.884  0.569  0.544-  28 1.53
   7  0.942  0.974  0.520-  22 0.80
   8  0.138  0.434  0.586-  10 0.74
   9  0.157  0.569  0.599-
  10  0.108  0.447  0.564-   8 0.74
  11  0.144  0.640  0.530-  39 1.49
  12  0.010  0.134  0.531-  21 0.74
  13  0.397  0.931  0.393-  38 1.55
  14  0.865  0.923  0.581-  63 1.43
  15  0.911  0.764  0.561-  80 1.43
  16  0.141  0.282  0.568-  64 1.47
  17  0.982  0.289  0.533-  42 1.55
  18  0.828  0.146  0.543-  67 1.45
  19  0.972  0.489  0.604-  28 1.50
  20  0.183  0.801  0.570-
  21  0.033  0.114  0.554-  12 0.74
  22  0.918  0.022  0.520-   7 0.80
  23  0.507  0.917  0.547-  35 1.53
  24  0.359  0.286  0.408-  55 2.34  79 2.36  68 2.38
  25  0.113  0.053  0.437-  36 2.29  62 2.30  30 2.32  69 2.35  45 3.08
  26  0.569  0.736  0.501-  47 2.37  61 2.50  65 2.50  53 2.51  59 2.93  38 3.13
  27  0.172  0.460  0.468-  39 2.23  55 2.30  33 2.34
  28  0.927  0.474  0.551-  19 1.50   6 1.53  33 2.25  41 2.32
  29  0.551  0.479  0.459-  51 2.22  61 2.29  58 2.33  79 2.40
  30  0.112  0.209  0.453-  64 2.26  42 2.31  25 2.32
  31  0.717  0.740  0.395-  40 2.25  47 2.39
  32  0.576  0.287  0.588-   5 1.50  49 2.35  51 2.49  72 2.95  76 3.11
  33  0.013  0.471  0.478-  28 2.25  74 2.26  27 2.34  75 2.41
  34  0.616  0.077  0.499-  43 2.31  37 2.34  35 2.39  72 2.48  44 3.06
  35  0.482  0.980  0.502-  23 1.53  73 2.22  34 2.39  38 2.48  44 3.07
  36  0.994  0.984  0.393-  25 2.29  48 2.40
  37  0.743  0.060  0.443-  67 2.33  34 2.34  46 2.37  44 2.90
  38  0.463  0.872  0.427-  13 1.55   2 1.57  44 2.42  35 2.48  60 2.51  47 2.78  26 3.13
  39  0.221  0.579  0.515-  11 1.49  27 2.23  77 2.35  71 2.36
  40  0.786  0.643  0.451-  65 2.20  31 2.25  75 2.37  58 2.43
  41  0.814  0.365  0.567-  28 2.32  76 2.40
  42  0.965  0.253  0.477-  17 1.55  30 2.31  74 2.32  67 2.35
  43  0.683  0.050  0.580-  63 2.30  34 2.31
  44  0.585  0.970  0.397-  38 2.42  47 2.42  37 2.90  34 3.06  35 3.07
  45  0.244  0.899  0.474-  69 2.18  60 2.29  62 2.31  66 2.37  25 3.08
  46  0.788  0.911  0.470-  48 2.26  47 2.28  37 2.37  63 2.42
  47  0.648  0.850  0.452-  46 2.28  26 2.37  31 2.39  44 2.42  38 2.78
  48  0.920  0.857  0.436-  46 2.26  57 2.29  36 2.40
  49  0.469  0.168  0.585-  32 2.35  73 2.39
  50  0.388  0.428  0.552-  51 2.20  77 2.32  55 2.50
  51  0.538  0.433  0.542-  50 2.20  29 2.22  78 2.37  32 2.49
  52  0.247  0.108  0.557-  73 2.31  64 2.39  69 2.40
  53  0.535  0.779  0.594-  56 2.35  59 2.37  26 2.51
  54  0.052  0.925  0.578-   4 1.45  69 2.33  80 2.34
  55  0.293  0.360  0.480-  27 2.30  24 2.34  64 2.36  50 2.50
  56  0.385  0.729  0.577-  77 2.34  53 2.35  60 2.38
  57  0.019  0.747  0.466-  48 2.29  66 2.32  75 2.33  80 2.41
  58  0.695  0.512  0.424-  70 2.31  29 2.33  40 2.43
  59  0.696  0.794  0.583-  63 2.21  53 2.37  65 2.48  26 2.93
  60  0.360  0.801  0.495-  45 2.29  56 2.38  71 2.40  38 2.51
  61  0.480  0.618  0.450-  29 2.29  71 2.32  26 2.50
  62  0.259  0.012  0.410-  25 2.30  45 2.31  68 2.37
  63  0.771  0.922  0.565-  14 1.43  59 2.21  43 2.30  46 2.42
  64  0.198  0.253  0.523-  16 1.47  30 2.26  55 2.36  52 2.39
  65  0.714  0.657  0.527-  40 2.20  78 2.40  59 2.48  26 2.50
  66  0.149  0.800  0.423-  57 2.32  45 2.37
  67  0.826  0.173  0.488-  18 1.45  37 2.33  76 2.34  42 2.35
  68  0.369  0.127  0.430-  73 2.21  62 2.37  24 2.38
  69  0.154  0.990  0.518-  45 2.18  54 2.33  25 2.35  52 2.40
  70  0.769  0.372  0.427-  76 2.28  58 2.31  74 2.32
  71  0.326  0.652  0.459-  61 2.32  39 2.36  60 2.40
  72  0.580  0.238  0.476-  76 2.32  34 2.48  32 2.95
  73  0.386  0.096  0.514-  68 2.21  35 2.22  52 2.31  49 2.39
  74  0.928  0.380  0.426-  33 2.26  42 2.32  70 2.32
  75  0.945  0.610  0.445-  57 2.33  40 2.37  33 2.41
  76  0.723  0.294  0.500-  70 2.28  72 2.32  67 2.34  41 2.40  32 3.11
  77  0.341  0.574  0.577-  50 2.32  56 2.34  39 2.35
  78  0.642  0.540  0.579-  51 2.37  65 2.40
  79  0.491  0.377  0.394-  24 2.36  29 2.40
  80  0.009  0.774  0.560-  15 1.43   1 1.49  54 2.34  57 2.41

  LATTYP: Found a simple tetragonal cell.
 ALAT       =    14.5722492107
 C/A-ratio  =     1.7442957249
  
  Lattice vectors:
  
 A1 = (  14.5722492107,   0.0000000000,   0.0000000000)
 A2 = (   0.0000000000,  14.5722492107,   0.0000000000)
 A3 = (   0.0000000000,   0.0000000000,  25.4183120000)


Analysis of symmetry for initial positions (statically):
=====================================================================
 Subroutine PRICEL returns:
 Original cell was already a primitive cell.
 

 Routine SETGRP: Setting up the symmetry group for a 
 simple tetragonal supercell.


 Subroutine GETGRP returns: Found  1 space group operations
 (whereof  1 operations were pure point group operations)
 out of a pool of 16 trial point group operations.


The static configuration has the point symmetry C_1 .


Analysis of symmetry for dynamics (positions and initial velocities):
=====================================================================
 Subroutine PRICEL returns:
 Original cell was already a primitive cell.
 

 Routine SETGRP: Setting up the symmetry group for a 
 simple tetragonal supercell.


 Subroutine GETGRP returns: Found  1 space group operations
 (whereof  1 operations were pure point group operations)
 out of a pool of 16 trial point group operations.


The dynamic configuration has the point symmetry C_1 .


 Subroutine INISYM returns: Found  1 space group operations
 (whereof  1 operations are pure point group operations),
 and found     1 'primitive' translations


----------------------------------------------------------------------------------------

                                     Primitive cell                                     

  volume of cell :    5397.5899

  direct lattice vectors                    reciprocal lattice vectors
    14.572249211  0.000000000  0.000000000     0.068623586  0.000000000  0.000000000
     0.000000000 14.572249211  0.000000000     0.000000000  0.068623586  0.000000000
     0.000000000  0.000000000 25.418312000     0.000000000  0.000000000  0.039341716

  length of vectors
    14.572249211 14.572249211 25.418312000     0.068623586  0.068623586  0.039341716

  position of ions in fractional coordinates (direct lattice)
     0.047063153  0.702259469  0.595575820
     0.496062063  0.781039346  0.399748024
     0.306635574  0.980665359  0.591929236
     0.002686668  0.995124348  0.606582845
     0.660379867  0.228334003  0.589831929
     0.883693369  0.569000014  0.543918180
     0.941851858  0.973521643  0.519791086
     0.137816062  0.434417495  0.586177477
     0.156530400  0.569309506  0.599173619
     0.108056758  0.447426468  0.563908099
     0.143575640  0.640498242  0.529962493
     0.010244952  0.134282633  0.530721001
     0.396916078  0.930769149  0.393421326
     0.864911094  0.922911749  0.581462766
     0.910930070  0.764370677  0.560632114
     0.141282239  0.281551594  0.567989409
     0.982305462  0.288507967  0.533049638
     0.828389621  0.146469496  0.542717471
     0.972121722  0.488742671  0.603695163
     0.182899013  0.800597069  0.570251164
     0.033038071  0.114483356  0.554158042
     0.917792429  0.022494194  0.519733254
     0.506536767  0.916776800  0.547378284
     0.359273296  0.285581171  0.407744425
     0.113400476  0.053170584  0.436692728
     0.568658268  0.735713468  0.500711534
     0.172275396  0.459607155  0.467774650
     0.927015439  0.474033205  0.551496968
     0.551451590  0.479116154  0.459378735
     0.112292205  0.209474869  0.453111206
     0.717109614  0.739906369  0.394993302
     0.576403126  0.287459399  0.588393989
     0.013405823  0.471347964  0.478145126
     0.615513080  0.076566080  0.498874670
     0.482484886  0.980404589  0.501551873
     0.994499874  0.984185749  0.393417155
     0.742973843  0.060399187  0.443376098
     0.463303907  0.871800902  0.427229471
     0.221117547  0.578612806  0.515483955
     0.785959658  0.642878794  0.451410857
     0.814260025  0.364631425  0.566865416
     0.965101529  0.252625380  0.476584047
     0.682788899  0.050347204  0.579850149
     0.585450460  0.970255161  0.396505519
     0.243693334  0.899202300  0.473539392
     0.787949742  0.910991832  0.470256325
     0.647681073  0.850136435  0.452039931
     0.919933485  0.856909583  0.435534508
     0.468822616  0.167559583  0.584532600
     0.388347050  0.428152848  0.552106371
     0.538034993  0.433276285  0.542399983
     0.246633169  0.108159693  0.557325443
     0.535290736  0.779069850  0.594182336
     0.052115496  0.924894970  0.577836640
     0.293299952  0.360164716  0.479974909
     0.385193110  0.728528578  0.577303953
     0.019275199  0.747207918  0.466128986
     0.695163791  0.512058907  0.423639422
     0.696330392  0.794496432  0.583322449
     0.360111190  0.800754903  0.494710349
     0.480483822  0.618492030  0.450041372
     0.259137759  0.012352795  0.410414311
     0.771082064  0.922287274  0.564755913
     0.198025710  0.252694690  0.523180375
     0.714021552  0.656768208  0.526952065
     0.149154051  0.800253951  0.423117279
     0.826372088  0.172847716  0.487768897
     0.368850403  0.127245285  0.429818943
     0.154394834  0.990210900  0.518381079
     0.769126292  0.371635149  0.426622547
     0.326056049  0.652420218  0.459110817
     0.579859696  0.238361968  0.476003757
     0.385926697  0.096426432  0.514307638
     0.928051655  0.379551565  0.426069088
     0.945145791  0.610434249  0.444951341
     0.723038691  0.293715125  0.499755924
     0.341496356  0.574232562  0.576982531
     0.642475974  0.539638040  0.579475616
     0.490774615  0.376512227  0.393956294
     0.008748135  0.773627999  0.559702470

  ion indices of the primitive-cell ions
   primitive index   ion index
                 1           1
                 2           2
                 3           3
                 4           4
                 5           5
                 6           6
                 7           7
                 8           8
                 9           9
                10          10
                11          11
                12          12
                13          13
                14          14
                15          15
                16          16
                17          17
                18          18
                19          19
                20          20
                21          21
                22          22
                23          23
                24          24
                25          25
                26          26
                27          27
                28          28
                29          29
                30          30
                31          31
                32          32
                33          33
                34          34
                35          35
                36          36
                37          37
                38          38
                39          39
                40          40
                41          41
                42          42
                43          43
                44          44
                45          45
                46          46
                47          47
                48          48
                49          49
                50          50
                51          51
                52          52
                53          53
                54          54
                55          55
                56          56
                57          57
                58          58
                59          59
                60          60
                61          61
                62          62
                63          63
                64          64
                65          65
                66          66
                67          67
                68          68
                69          69
                70          70
                71          71
                72          72
                73          73
                74          74
                75          75
                76          76
                77          77
                78          78
                79          79
                80          80

----------------------------------------------------------------------------------------


 -----------------------------------------------------------------------------
|                                                                             |
|           W    W    AA    RRRRR   N    N  II  N    N   GGGG   !!!           |
|           W    W   A  A   R    R  NN   N  II  NN   N  G    G  !!!           |
|           W    W  A    A  R    R  N N  N  II  N N  N  G       !!!           |
|           W WW W  AAAAAA  RRRRR   N  N N  II  N  N N  G  GGG   !            |
|           WW  WW  A    A  R   R   N   NN  II  N   NN  G    G                |
|           W    W  A    A  R    R  N    N  II  N    N   GGGG   !!!           |
|                                                                             |
|     The requested file  could not be found or opened for reading            |
|     k-point information. Automatic k-point generation is used as a          |
|     fallback, which may lead to unwanted results.                           |
|                                                                             |
 -----------------------------------------------------------------------------



Automatic generation of k-mesh.
 Grid dimensions derived from KSPACING:
 generate k-points for:    2    2    2

 Generating k-lattice:

  Cartesian coordinates                     Fractional coordinates (reciprocal lattice)
     0.034311793  0.000000000  0.000000000     0.500000000  0.000000000  0.000000000
     0.000000000  0.034311793  0.000000000     0.000000000  0.500000000  0.000000000
     0.000000000  0.000000000  0.019670858     0.000000000  0.000000000  0.500000000

  Length of vectors
     0.034311793  0.034311793  0.019670858

  Shift w.r.t. Gamma in fractional coordinates (k-lattice)
     0.000000000  0.000000000  0.000000000

 
 Subroutine IBZKPT returns following result:
 ===========================================
 
 Found      8 irreducible k-points:
 
 Following reciprocal coordinates:
            Coordinates               Weight
  0.000000  0.000000  0.000000      1.000000
  0.500000  0.000000  0.000000      1.000000
  0.000000  0.500000  0.000000      1.000000
  0.500000  0.500000  0.000000      1.000000
  0.000000  0.000000  0.500000      1.000000
  0.500000  0.000000  0.500000      1.000000
  0.000000  0.500000  0.500000      1.000000
  0.500000  0.500000  0.500000      1.000000
 
 Following cartesian coordinates:
            Coordinates               Weight
  0.000000  0.000000  0.000000      1.000000
  0.034312  0.000000  0.000000      1.000000
  0.000000  0.034312  0.000000      1.000000
  0.034312  0.034312  0.000000      1.000000
  0.000000  0.000000  0.019671      1.000000
  0.034312  0.000000  0.019671      1.000000
  0.000000  0.034312  0.019671      1.000000
  0.034312  0.034312  0.019671      1.000000
 


--------------------------------------------------------------------------------------------------------




 Dimension of arrays:
   k-points           NKPTS =      8   k-points in BZ     NKDIM =      8   number of bands    NBANDS=    168
   number of dos      NEDOS =   2000   number of ions     NIONS =     80
   non local maximal  LDIM  =      4   non local SUM 2l+1 LMDIM =      8
   total plane-waves  NPLWV = ******
   max r-space proj   IRMAX =      1   max aug-charges    IRDMAX= 402964
   dimension x,y,z NGX =   168 NGY =  168 NGZ =  288
   dimension x,y,z NGXF=   336 NGYF=  336 NGZF=  576
   support grid    NGXF=   672 NGYF=  672 NGZF= 1152
   ions per type =              23  57
   NGX,Y,Z   is equivalent  to a cutoff of  19.17, 19.17, 18.84 a.u.
   NGXF,Y,Z  is equivalent  to a cutoff of  38.33, 38.33, 37.67 a.u.

 SYSTEM =  a-Si SPC                                
 POSCAR =   H Si                                   

 Startparameter for this run:
   NWRITE =      2    write-flag & timer
   PREC   = accura    normal or accurate (medium, high low for compatibility)
   ISTART =      1    job   : 0-new  1-cont  2-samecut
   ICHARG =      1    charge: 1-file 2-atom 10-const
   ISPIN  =      1    spin polarized calculation?
   LNONCOLLINEAR =      F non collinear calculations
   LSORBIT =      F    spin-orbit coupling
   INIWAV =      1    electr: 0-lowe 1-rand  2-diag
   LASPH  =      T    aspherical Exc in radial PAW
 Electronic Relaxation 1
   ENCUT  = 1200.0 eV  88.20 Ry    9.39 a.u.  41.16 41.16 71.79*2*pi/ulx,y,z
   ENINI  = 1200.0     initial cutoff
   ENAUG  =  400.0 eV  augmentation charge cutoff
   NELM   =    150;   NELMIN=  2; NELMDL=  0     # of ELM steps 
   EDIFF  = 0.1E-05   stopping-criterion for ELM
   LREAL  =      F    real-space projection
   NLSPLINE    = F    spline interpolate recip. space projectors
   LCOMPAT=      F    compatible to vasp.4.4
   GGA_COMPAT  = T    GGA compatible to vasp.4.4-vasp.4.6
   LMAXPAW     = -100 max onsite density
   LMAXMIX     =    2 max onsite mixed and CHGCAR
   VOSKOWN=      0    Vosko Wilk Nusair interpolation
   ROPT   =    0.00000   0.00000
 Ionic relaxation
   EDIFFG = -.1E-01   stopping-criterion for IOM
   NSW    =      0    number of steps for IOM
   NBLOCK =      1;   KBLOCK =      1    inner block; outer block 
   IBRION =     -1    ionic relax: 0-MD 1-quasi-New 2-CG
   NFREE  =      0    steps in history (QN), initial steepest desc. (CG)
   ISIF   =      2    stress and relaxation
   IWAVPR =     10    prediction:  0-non 1-charg 2-wave 3-comb
   ISYM   =      1    0-nonsym 1-usesym 2-fastsym
   LCORR  =      T    Harris-Foulkes like correction to forces

   POTIM  = 0.5000    time-step for ionic-motion
   TEIN   =    0.0    initial temperature
   TEBEG  =    0.0;   TEEND  =   0.0 temperature during run
   SMASS  =  -3.00    Nose mass-parameter (am)
   estimated Nose-frequenzy (Omega)   =  0.10E-29 period in steps = 0.13E+47 mass=  -0.485E-26a.u.
   SCALEE = 1.0000    scale energy and forces
   NPACO  =    256;   APACO  = 10.0  distance and # of slots for P.C.
   PSTRESS=    0.0 pullay stress

  Mass of Ions in am
   POMASS =   1.00 28.09
  Ionic Valenz
   ZVAL   =   1.00  4.00
  Atomic Wigner-Seitz radii
   RWIGS  =  -1.00 -1.00
  virtual crystal weights 
   VCA    =   1.00  1.00
   NELECT =     251.0000    total number of electrons
   NUPDOWN=      -1.0000    fix difference up-down

 DOS related values:
   EMIN   =  10.00;   EMAX   =-10.00  energy-range for DOS
   EFERMI =   0.00;   METHOD = LEGACY      
   ISMEAR =     0;   SIGMA  =   0.10  broadening in eV -4-tet -1-fermi 0-gaus
   EFERMI_NEDOS =   21; number of points for ismear=-14 and -15

 Electronic relaxation 2 (details)
   IALGO  =     38    algorithm
   LDIAG  =      F    sub-space diagonalisation (order eigenvalues)
   LSUBROT=      F    optimize rotation matrix (better conditioning)
   TURBO    =      0    0=normal 1=particle mesh
   IRESTART =      0    0=no restart 2=restart with 2 vectors
   NREBOOT  =      0    no. of reboots
   NMIN     =      0    reboot dimension
   EREF     =   0.00    reference energy to select bands
   IMIX   =      4    mixing-type and parameters
     AMIX     =   0.40;   BMIX     =  1.00
     AMIX_MAG =   1.60;   BMIX_MAG =  1.00
     AMIN     =   0.10
     WC   =   100.;   INIMIX=   1;  MIXPRE=   1;  MAXMIX= -45

 Intra band minimization:
   WEIMIN = 0.0000     energy-eigenvalue tresh-hold
   EBREAK =  0.15E-08  absolut break condition
   DEPER  =   0.30     relativ break condition  

   TIME   =   0.40     timestep for ELM

  volume/ion in A,a.u.               =      67.47       455.31
  Fermi-wavevector in a.u.,A,eV,Ry     =   0.588707  1.112496  4.715457  0.346576
  Thomas-Fermi vector in A             =   1.636077

 Write flags
   LWAVE        =      F    write WAVECAR
   LDOWNSAMPLE  =      F    k-point downsampling of WAVECAR
   LCHARG       =      F    write CHGCAR
   LVTOT        =      F    write LOCPOT, total local potential
   LVHAR        =      F    write LOCPOT, Hartree potential only
   WRT_POTENTIAL= false  ! write potential to hdf5 file
   LELF         =      F    write electronic localiz. function (ELF)
   LORBIT       =     11    0 simple, 1 ext, 2 COOP (PROOUT), +10 PAW based schemes


 Python interface
   PLUGINS active      =      F    recompile with -DPLUGINS to activate

 Dipole corrections
   LMONO      =      F    monopole corrections only (constant potential shift)
   LDIPOL     =      F    correct potential (dipole corrections)
   IDIPOL     =      0    1-x, 2-y, 3-z, 4-all directions 
   EPSILON    =  1.0000000 bulk dielectric constant
   LVACPOTAV  =      F  vacuum potentials using an averaging scheme for the charge density
   VACPOTFLAT =  0.1000000 required flatness to determine vacuum potential

Coulomb truncation method
  LTRUNCATE          =      F  Coulomb kernel truncation to be used
  IDIMENSIONALITY    =      3  Dimensionality of cutoff (0 molecules / 2 surfaces)
  ISURFACE           =     -1  Direction of surface normal
  LCOARSEN           =      F  Coarsen the charge grid before padding, preferred


 Exchange correlation treatment:
   METAGGA = SCAN    functional components
   XC_C    = 1    coefficients multiplying the functional components
   LIBXC   =     F    Libxc                    
   VOSKOWN =     0    Vosko Wilk Nusair interpolation
   LHFCALC =     F    Hartree Fock is set to
   LHFONE  =     F    Hartree Fock one center treatment
   AEXX    =    0.0000 exact exchange contribution

 Parameters of functionals:
   SCAN:
     P1 =  0.000000E+00
     P2 =  0.000000E+00
     P3 =  0.000000E+00

 Accuracy and mixing parameters for tau-dependent meta-GGA functionals:
   LMAXTAU = 6
   LMIXTAU = T

 Van der Waals corrections
   IVDW    =     0    specifies the selected vdW correction

 Linear response parameters
   LEPSILON=     F    determine dielectric tensor
   LRPA    =     F    only Hartree local field effects (RPA)
   LNABLA  =     F    use nabla operator in PAW spheres
   LVEL    =     F    velocity operator in full k-point grid
   CSHIFT  =0.1000    complex shift for real part using Kramers Kronig
   OMEGAMAX=  -1.0    maximum frequency
   DEG_THRESHOLD= 0.2000000E-02 threshold for treating states as degnerate
   RTIME   =   -0.100 relaxation time in fs
  (WPLASMAI=    0.000 imaginary part of plasma frequency in eV, 0.658/RTIME)
   DFIELD  = 0.0000000 0.0000000 0.0000000 field for delta impulse in time

  Optional k-point grid parameters
   LKPOINTS_OPT  =     F    use optional k-point grid
   KPOINTS_OPT_MODE=     1    mode for optional k-point grid

 Orbital magnetization related:
   ORBITALMAG=     F  switch on orbital magnetization
   LCHIMAG   =     F  perturbation theory with respect to B field
   DQ        =  0.001000  dq finite difference perturbation B field
   LLRAUG    =     F  two centre corrections for induced B field
   LBONE     =     F  B-component reconstruction in AE one-centre
   LVGVCALC  =     T  calculate vGv susceptibility
   LVGVAPPL  =     F  apply vGv susceptibility instead of pGv for G=0

 Random number generation:
   RANDOM_GENERATOR = DEFAULT
   PCG_SEED         = not used


--------------------------------------------------------------------------------------------------------


 Static calculation
 charge density and potential will be updated during run
 non-spin polarized calculation
 Variant of blocked Davidson
 perform Loewdin sub-space diagonalisation
    ordering is kept fixed
    before iterative eigenvector-optimisation
 modified Broyden-mixing scheme, WC =      100.0
 initial mixing is a Kerker type mixing with AMIX =  0.4000 and BMIX =      1.0000
 Hartree-type preconditioning will be used
 using additional bands           42
 reciprocal scheme for non local part
 use partial core corrections
 calculate Harris-corrections to forces   (improved forces if not selfconsistent)
 use gradient corrections 
 use of overlap-Matrix (Vanderbilt PP)
 Gauss-broadening in eV      SIGMA  =   0.10


--------------------------------------------------------------------------------------------------------


  energy-cutoff  :     1200.00
  volume of cell :     5397.59
      direct lattice vectors                 reciprocal lattice vectors
    14.572249211  0.000000000  0.000000000     0.068623586  0.000000000  0.000000000
     0.000000000 14.572249211  0.000000000     0.000000000  0.068623586  0.000000000
     0.000000000  0.000000000 25.418312000     0.000000000  0.000000000  0.039341716

  length of vectors
    14.572249211 14.572249211 25.418312000     0.068623586  0.068623586  0.039341716



 old parameters found on file WAVECAR:
  energy-cutoff  :     1200.00
  volume of cell :     5397.59
      direct lattice vectors                 reciprocal lattice vectors
    14.572249211  0.000000000  0.000000000     0.068623586  0.000000000  0.000000000
     0.000000000 14.572249211  0.000000000     0.000000000  0.068623586  0.000000000
     0.000000000  0.000000000 25.418312000     0.000000000  0.000000000  0.039341716

  length of vectors


 k-points in units of 2pi/SCALE and weight: read from INCAR                         
   0.00000000  0.00000000  0.00000000       0.125
   0.03431179  0.00000000  0.00000000       0.125
   0.00000000  0.03431179  0.00000000       0.125
   0.03431179  0.03431179  0.00000000       0.125
   0.00000000  0.00000000  0.01967086       0.125
   0.03431179  0.00000000  0.01967086       0.125
   0.00000000  0.03431179  0.01967086       0.125
   0.03431179  0.03431179  0.01967086       0.125

 k-points in reciprocal lattice and weights: read from INCAR                         
   0.00000000  0.00000000  0.00000000       0.125
   0.50000000  0.00000000  0.00000000       0.125
   0.00000000  0.50000000  0.00000000       0.125
   0.50000000  0.50000000  0.00000000       0.125
   0.00000000  0.00000000  0.50000000       0.125
   0.50000000  0.00000000  0.50000000       0.125
   0.00000000  0.50000000  0.50000000       0.125
   0.50000000  0.50000000  0.50000000       0.125

 position of ions in fractional coordinates (direct lattice) 
   0.04706315  0.70225947  0.59557582
   0.49606206  0.78103935  0.39974802
   0.30663557  0.98066536  0.59192924
   0.00268667  0.99512435  0.60658284
   0.66037987  0.22833400  0.58983193
   0.88369337  0.56900001  0.54391818
   0.94185186  0.97352164  0.51979109
   0.13781606  0.43441750  0.58617748
   0.15653040  0.56930951  0.59917362
   0.10805676  0.44742647  0.56390810
   0.14357564  0.64049824  0.52996249
   0.01024495  0.13428263  0.53072100
   0.39691608  0.93076915  0.39342133
   0.86491109  0.92291175  0.58146277
   0.91093007  0.76437068  0.56063211
   0.14128224  0.28155159  0.56798941
   0.98230546  0.28850797  0.53304964
   0.82838962  0.14646950  0.54271747
   0.97212172  0.48874267  0.60369516
   0.18289901  0.80059707  0.57025116
   0.03303807  0.11448336  0.55415804
   0.91779243  0.02249419  0.51973325
   0.50653677  0.91677680  0.54737828
   0.35927330  0.28558117  0.40774442
   0.11340048  0.05317058  0.43669273
   0.56865827  0.73571347  0.50071153
   0.17227540  0.45960715  0.46777465
   0.92701544  0.47403321  0.55149697
   0.55145159  0.47911615  0.45937873
   0.11229221  0.20947487  0.45311121
   0.71710961  0.73990637  0.39499330
   0.57640313  0.28745940  0.58839399
   0.01340582  0.47134796  0.47814513
   0.61551308  0.07656608  0.49887467
   0.48248489  0.98040459  0.50155187
   0.99449987  0.98418575  0.39341716
   0.74297384  0.06039919  0.44337610
   0.46330391  0.87180090  0.42722947
   0.22111755  0.57861281  0.51548396
   0.78595966  0.64287879  0.45141086
   0.81426002  0.36463143  0.56686542
   0.96510153  0.25262538  0.47658405
   0.68278890  0.05034720  0.57985015
   0.58545046  0.97025516  0.39650552
   0.24369333  0.89920230  0.47353939
   0.78794974  0.91099183  0.47025633
   0.64768107  0.85013644  0.45203993
   0.91993348  0.85690958  0.43553451
   0.46882262  0.16755958  0.58453260
   0.38834705  0.42815285  0.55210637
   0.53803499  0.43327628  0.54239998
   0.24663317  0.10815969  0.55732544
   0.53529074  0.77906985  0.59418234
   0.05211550  0.92489497  0.57783664
   0.29329995  0.36016472  0.47997491
   0.38519311  0.72852858  0.57730395
   0.01927520  0.74720792  0.46612899
   0.69516379  0.51205891  0.42363942
   0.69633039  0.79449643  0.58332245
   0.36011119  0.80075490  0.49471035
   0.48048382  0.61849203  0.45004137
   0.25913776  0.01235279  0.41041431
   0.77108206  0.92228727  0.56475591
   0.19802571  0.25269469  0.52318037
   0.71402155  0.65676821  0.52695207
   0.14915405  0.80025395  0.42311728
   0.82637209  0.17284772  0.48776890
   0.36885040  0.12724528  0.42981894
   0.15439483  0.99021090  0.51838108
   0.76912629  0.37163515  0.42662255
   0.32605605  0.65242022  0.45911082
   0.57985970  0.23836197  0.47600376
   0.38592670  0.09642643  0.51430764
   0.92805166  0.37955157  0.42606909
   0.94514579  0.61043425  0.44495134
   0.72303869  0.29371513  0.49975592
   0.34149636  0.57423256  0.57698253
   0.64247597  0.53963804  0.57947562
   0.49077462  0.37651223  0.39395629
   0.00874813  0.77362800  0.55970247

 position of ions in cartesian coordinates  (Angst):
   0.68581600 10.23350000 15.13853200
   7.22874000 11.38150000 10.16092000
   4.46837000 14.29050000 15.04584200
   0.03915079 14.50120000 15.41831200
   9.62322000  3.32734000 14.99253200
  12.87740000  8.29161000 13.82548200
  13.72490000 14.18640000 13.21221200
   2.00829000  6.33044000 14.89964200
   2.28100000  8.29612000 15.22998200
   1.57463000  6.52001000 14.33359200
   2.09222000  9.33350000 13.47075200
   0.14929200  1.95680000 13.49003200
   5.78396000 13.56340000 10.00010600
  12.60370000 13.44890000 14.77980200
  13.27430000 11.13860000 14.25032200
   2.05880000  4.10284000 14.43733200
  14.31440000  4.20421000 13.54922200
  12.07150000  2.13439000 13.79496200
  14.16600000  7.12208000 15.34491200
   2.66525000 11.66650000 14.49482200
   0.48143900  1.66828000 14.08576200
  13.37430000  0.32779100 13.21074200
   7.38138000 13.35950000 13.91343200
   5.23542000  4.16156000 10.36417500
   1.65250000  0.77481500 11.09999200
   8.28663000 10.72100000 12.72724200
   2.51044000  6.69751000 11.89004200
  13.50870000  6.90773000 14.01812200
   8.03589000  6.98180000 11.67663200
   1.63635000  3.05252000 11.51732200
  10.44990000 10.78210000 10.04006300
   8.39949000  4.18893000 14.95598200
   0.19535300  6.86860000 12.15364200
   8.96941000  1.11574000 12.68055200
   7.03089000 14.28670000 12.74860200
  14.49210000 14.34180000 10.00000000
  10.82680000  0.88015200 11.26987200
   6.75138000 12.70410000 10.85945200
   3.22218000  8.43169000 13.10273200
  11.45320000  9.36819000 11.47410200
  11.86560000  5.31350000 14.40876200
  14.06370000  3.68132000 12.11396200
   9.94977000  0.73367200 14.73881200
   8.53133000 14.13880000 10.07850100
   3.55116000 13.10340000 12.03657200
  11.48220000 13.27520000 11.95312200
   9.43817000 12.38840000 11.49009200
  13.40550000 12.48710000 11.07055200
   6.83180000  2.44172000 14.85783200
   5.65909000  6.23915000 14.03361200
   7.84038000  6.31381000 13.78689200
   3.59400000  1.57613000 14.16627200
   7.80039000 11.35280000 15.10311200
   0.75944000 13.47780000 14.68763200
   4.27404000  5.24841000 12.20015200
   5.61313000 10.61630000 14.67409200
   0.28088300 10.88850000 11.84821200
  10.13010000  7.46185000 10.76819900
  10.14710000 11.57760000 14.82707200
   5.24763000 11.66880000 12.57470200
   7.00173000  9.01282000 11.43929200
   3.77622000  0.18000800 10.43203900
  11.23640000 13.43980000 14.35514200
   2.88568000  3.68233000 13.29836200
  10.40490000  9.57059000 13.39423200
   2.17351000 11.66150000 10.75492700
  12.04210000  2.51878000 12.39826200
   5.37498000  1.85425000 10.92527200
   2.24988000 14.42960000 13.17637200
  11.20790000  5.41556000 10.84402500
   4.75137000  9.50723000 11.66982200
   8.44986000  3.47347000 12.09921200
   5.62382000  1.40515000 13.07283200
  13.52380000  5.53092000 10.82995700
  13.77290000  8.89540000 11.30991200
  10.53630000  4.28009000 12.70295200
   4.97637000  8.36786000 14.66592200
   9.36232000  7.86374000 14.72929200
   7.15169000  5.48663000 10.01370400
   0.12748000 11.27350000 14.22669200



--------------------------------------------------------------------------------------------------------


 k-point     1 :   0.0000 0.0000 0.0000  plane waves:  509511
 k-point     2 :   0.5000 0.0000 0.0000  plane waves:  509506
 k-point     3 :   0.0000 0.5000 0.0000  plane waves:  509506
 k-point     4 :   0.5000 0.5000 0.0000  plane waves:  509596
 k-point     5 :   0.0000 0.0000 0.5000  plane waves:  509448
 k-point     6 :   0.5000 0.0000 0.5000  plane waves:  509608
 k-point     7 :   0.0000 0.5000 0.5000  plane waves:  509608
 k-point     8 :   0.5000 0.5000 0.5000  plane waves:  509456

 maximum and minimum number of plane-waves per node :     31926    31757

 maximum number of plane-waves:    509608
 maximum index in each direction: 
   IXMAX=   41   IYMAX=   41   IZMAX=   71
   IXMIN=  -41   IYMIN=  -41   IZMIN=  -72


 parallel 3D FFT for wavefunctions:
    minimum data exchange during FFTs selected (reduces bandwidth)
 parallel 3D FFT for charge:
    minimum data exchange during FFTs selected (reduces bandwidth)


 total amount of memory used by VASP MPI-rank0   362994. kBytes
=======================================================================

   base                                    :      30000. kBytes
   nonl-proj                               :      73506. kBytes
   fftplans                                :      98003. kBytes
   grid                                    :      75605. kBytes
   one-center                              :         15. kBytes
   wavefun                                 :      85865. kBytes

     INWAV:  cpu time     26.7669: real time     26.9586
 Broyden mixing: mesh for mixing (old mesh)
   NGX = 83   NGY = 83   NGZ =143
  (NGX  =336   NGY  =336   NGZ  =576)
  gives a total of 985127 points

 initial charge density was supplied:
 number of electron     250.9999999 magnetization 
 keeping initial charge density in first step


--------------------------------------------------------------------------------------------------------


 Maximum index for augmentation-charges        10929 (set IRDMAX)


--------------------------------------------------------------------------------------------------------


 First call to EWALD:  gamma=   0.101
 Maximum number of real-space cells   3x   3x   2
 Maximum number of reciprocal cells   2x   2x   4

    FEWALD:  cpu time      0.0119: real time      0.0124


--------------------------------------- Ionic step        1  -------------------------------------------




--------------------------------------- Iteration      1(   1)  ---------------------------------------


    POTLOK:  cpu time      1.9558: real time      1.9568
    SETDIJ:  cpu time      1.4656: real time      1.4664
    EDDIAG:  cpu time     50.3396: real time     50.3658
     EDDAV:  cpu time    222.9550: real time    223.0776
       DOS:  cpu time      0.0095: real time      0.0096
    CHARGE:  cpu time     28.5184: real time     28.5441
    MIXING:  cpu time      0.0451: real time      0.0455
    --------------------------------------------
      LOOP:  cpu time    305.2891: real time    305.4658

 eigenvalue-minimisations  :  2688
 total energy-change (2. order) :-0.6305219E+03  (-0.7151952E+00)
 number of electron     250.9999999 magnetization 
 augmentation part      -12.7335345 magnetization 

 Broyden mixing:
  rms(total) = 0.88278E+00    rms(broyden)= 0.23818E+02
  rms(prec ) = 0.91719E+00
  weight for this iteration     100.00
  WARNING: grid for Broyden might be to small

 Free energy of the ion-electron system (eV)
  ---------------------------------------------------
  alpha Z        PSCENC =        24.91271107
  Ewald energy   TEWEN  =     28643.15317927
  -Hartree energ DENC   =    -33866.78887736
  -exchange      EXHF   =         0.00000000
  -V(xc)+E(xc)   XCENC  =      -218.04326353
  PAW double counting   =     20428.65356209   -19860.18750903
  entropy T*S    EENTRO =        -0.16424612
  eigenvalues    EBANDS =     -1944.09941545
  atomic energy  EATOM  =      6162.04196728
  Solvation  Ediel_sol  =         0.00000000
  ---------------------------------------------------
  free energy    TOTEN  =      -630.52189178 eV

  energy without entropy =     -630.35764566  energy(sigma->0) =     -630.43976872


--------------------------------------------------------------------------------------------------------




--------------------------------------- Iteration      1(   2)  ---------------------------------------


    POTLOK:  cpu time      1.9265: real time      1.9415
    SETDIJ:  cpu time      1.4522: real time      1.4530
    EDDIAG:  cpu time     50.6886: real time     50.7160
     EDDAV:  cpu time    224.1896: real time    224.3165
       DOS:  cpu time      0.0044: real time      0.0044
    CHARGE:  cpu time     28.4643: real time     28.4920
    MIXING:  cpu time      0.0392: real time      0.0392
    --------------------------------------------
      LOOP:  cpu time    306.7647: real time    306.9626

 eigenvalue-minimisations  :  2688
 total energy-change (2. order) : 0.4512644E+02  (-0.7306270E+00)
 number of electron     250.9999999 magnetization 
 augmentation part      -12.7050491 magnetization 

 Broyden mixing:
  rms(total) = 0.60515E+00    rms(broyden)= 0.13734E+02
  rms(prec ) = 0.62352E+00
  weight for this iteration     100.00
  WARNING: grid for Broyden might be to small

 eigenvalues of (default mixing * dielectric matrix)
  average eigenvalue GAMMA=   0.6344
  0.6344

 Free energy of the ion-electron system (eV)
  ---------------------------------------------------
  alpha Z        PSCENC =        24.91271107
  Ewald energy   TEWEN  =     28643.15317927
  -Hartree energ DENC   =    -33856.97030098
  -exchange      EXHF   =         0.00000000
  -V(xc)+E(xc)   XCENC  =      -212.74211758
  PAW double counting   =     24225.28818718   -23656.67050416
  entropy T*S    EENTRO =        -0.15365556
  eigenvalues    EBANDS =     -1914.25491370
  atomic energy  EATOM  =      6162.04196728
  Solvation  Ediel_sol  =         0.00000000
  ---------------------------------------------------
  free energy    TOTEN  =      -585.39544719 eV

  energy without entropy =     -585.24179162  energy(sigma->0) =     -585.31861941


--------------------------------------------------------------------------------------------------------




--------------------------------------- Iteration      1(   3)  ---------------------------------------


    POTLOK:  cpu time      1.9245: real time      1.9405
    SETDIJ:  cpu time      1.5045: real time      1.5052
    EDDIAG:  cpu time     50.6928: real time     50.7206
     EDDAV:  cpu time    224.1568: real time    224.2878
       DOS:  cpu time      0.0035: real time      0.0035
    CHARGE:  cpu time     28.4145: real time     28.4419
    MIXING:  cpu time      0.0371: real time      0.0371
    --------------------------------------------
      LOOP:  cpu time    306.7337: real time    306.9366

 eigenvalue-minimisations  :  2688
 total energy-change (2. order) :-0.1639893E+01  (-0.5465282E+00)
 number of electron     250.9999999 magnetization 
 augmentation part      -12.6561179 magnetization 

 Broyden mixing:
  rms(total) = 0.30576E+00    rms(broyden)= 0.16214E+02
  rms(prec ) = 0.35428E+00
  weight for this iteration     100.00
  WARNING: grid for Broyden might be to small

 eigenvalues of (default mixing * dielectric matrix)
  average eigenvalue GAMMA=   0.7576
  0.8897  0.6254

 Free energy of the ion-electron system (eV)
  ---------------------------------------------------
  alpha Z        PSCENC =        24.91271107
  Ewald energy   TEWEN  =     28643.15317927
  -Hartree energ DENC   =    -33857.49645861
  -exchange      EXHF   =         0.00000000
  -V(xc)+E(xc)   XCENC  =      -214.11154116
  PAW double counting   =     28194.59968942   -27626.08493835
  entropy T*S    EENTRO =        -0.14753925
  eigenvalues    EBANDS =     -1913.90240943
  atomic energy  EATOM  =      6162.04196728
  Solvation  Ediel_sol  =         0.00000000
  ---------------------------------------------------
  free energy    TOTEN  =      -587.03533976 eV

  energy without entropy =     -586.88780051  energy(sigma->0) =     -586.96157014


--------------------------------------------------------------------------------------------------------




--------------------------------------- Iteration      1(   4)  ---------------------------------------


    POTLOK:  cpu time      1.9381: real time      1.9397
    SETDIJ:  cpu time      1.4629: real time      1.4636
    EDDIAG:  cpu time     50.7645: real time     50.7891
     EDDAV:  cpu time    229.3125: real time    229.4419
       DOS:  cpu time      0.0044: real time      0.0044
    CHARGE:  cpu time     28.3843: real time     28.4101
    MIXING:  cpu time      0.0370: real time      0.0370
    --------------------------------------------
      LOOP:  cpu time    311.9038: real time    312.0860

 eigenvalue-minimisations  :  2800
 total energy-change (2. order) : 0.1296221E+00  (-0.5901389E-01)
 number of electron     250.9999999 magnetization 
 augmentation part      -12.6584956 magnetization 

 Broyden mixing:
  rms(total) = 0.53580E-01    rms(broyden)= 0.59007E+00
  rms(prec ) = 0.70272E-01
  weight for this iteration     100.00
  WARNING: grid for Broyden might be to small

 eigenvalues of (default mixing * dielectric matrix)
  average eigenvalue GAMMA=   1.0727
  1.9117  0.6941  0.6124

 Free energy of the ion-electron system (eV)
  ---------------------------------------------------
  alpha Z        PSCENC =        24.91271107
  Ewald energy   TEWEN  =     28643.15317927
  -Hartree energ DENC   =    -33858.38018710
  -exchange      EXHF   =         0.00000000
  -V(xc)+E(xc)   XCENC  =      -214.20486684
  PAW double counting   =     32232.16775975   -31663.70908839
  entropy T*S    EENTRO =        -0.15568933
  eigenvalues    EBANDS =     -1912.73150336
  atomic energy  EATOM  =      6162.04196728
  Solvation  Ediel_sol  =         0.00000000
  ---------------------------------------------------
  free energy    TOTEN  =      -586.90571765 eV

  energy without entropy =     -586.75002832  energy(sigma->0) =     -586.82787299


--------------------------------------------------------------------------------------------------------




--------------------------------------- Iteration      1(   5)  ---------------------------------------


    POTLOK:  cpu time      2.0040: real time      2.0246
    SETDIJ:  cpu time      1.4554: real time      1.4560
    EDDIAG:  cpu time     50.7017: real time     50.7301
     EDDAV:  cpu time    245.4450: real time    245.5787
       DOS:  cpu time      0.0033: real time      0.0033
    CHARGE:  cpu time     28.4283: real time     28.4533
    MIXING:  cpu time      0.0376: real time      0.0376
    --------------------------------------------
      LOOP:  cpu time    328.0752: real time    328.2837

 eigenvalue-minimisations  :  3152
 total energy-change (2. order) :-0.1480703E-01  (-0.7858911E-02)
 number of electron     250.9999999 magnetization 
 augmentation part      -12.6577278 magnetization 

 Broyden mixing:
  rms(total) = 0.35523E-01    rms(broyden)= 0.38161E+00
  rms(prec ) = 0.46338E-01
  weight for this iteration     100.00
  WARNING: grid for Broyden might be to small

 eigenvalues of (default mixing * dielectric matrix)
  average eigenvalue GAMMA=   1.0960
  2.4507  0.7667  0.6192  0.5472

 Free energy of the ion-electron system (eV)
  ---------------------------------------------------
  alpha Z        PSCENC =        24.91271107
  Ewald energy   TEWEN  =     28643.15317927
  -Hartree energ DENC   =    -33858.07432213
  -exchange      EXHF   =         0.00000000
  -V(xc)+E(xc)   XCENC  =      -214.86407790
  PAW double counting   =     32056.03657353   -31487.56803148
  entropy T*S    EENTRO =        -0.15147061
  eigenvalues    EBANDS =     -1912.40705369
  atomic energy  EATOM  =      6162.04196728
  Solvation  Ediel_sol  =         0.00000000
  ---------------------------------------------------
  free energy    TOTEN  =      -586.92052468 eV

  energy without entropy =     -586.76905406  energy(sigma->0) =     -586.84478937


--------------------------------------------------------------------------------------------------------




--------------------------------------- Iteration      1(   6)  ---------------------------------------


    POTLOK:  cpu time      1.9212: real time      1.9404
    SETDIJ:  cpu time      1.4561: real time      1.4574
    EDDIAG:  cpu time     50.7924: real time     50.8176
     EDDAV:  cpu time    237.0897: real time    237.2193
       DOS:  cpu time      0.0040: real time      0.0040
    CHARGE:  cpu time     28.4523: real time     28.4758
    MIXING:  cpu time      0.0380: real time      0.0380
    --------------------------------------------
      LOOP:  cpu time    319.7537: real time    319.9526

 eigenvalue-minimisations  :  2968
 total energy-change (2. order) :-0.2378821E-04  (-0.2428283E-02)
 number of electron     250.9999999 magnetization 
 augmentation part      -12.6588899 magnetization 

 Broyden mixing:
  rms(total) = 0.20478E-01    rms(broyden)= 0.24873E+00
  rms(prec ) = 0.22806E-01
  weight for this iteration     100.00
  WARNING: grid for Broyden might be to small

 eigenvalues of (default mixing * dielectric matrix)
  average eigenvalue GAMMA=   1.0415
  2.5885  0.8747  0.6247  0.5707  0.5490

 Free energy of the ion-electron system (eV)
  ---------------------------------------------------
  alpha Z        PSCENC =        24.91271107
  Ewald energy   TEWEN  =     28643.15317927
  -Hartree energ DENC   =    -33857.95035802
  -exchange      EXHF   =         0.00000000
  -V(xc)+E(xc)   XCENC  =      -215.01765381
  PAW double counting   =     31949.66043206   -31381.18478570
  entropy T*S    EENTRO =        -0.15270190
  eigenvalues    EBANDS =     -1912.38333872
  atomic energy  EATOM  =      6162.04196728
  Solvation  Ediel_sol  =         0.00000000
  ---------------------------------------------------
  free energy    TOTEN  =      -586.92054846 eV

  energy without entropy =     -586.76784657  energy(sigma->0) =     -586.84419751


--------------------------------------------------------------------------------------------------------




--------------------------------------- Iteration      1(   7)  ---------------------------------------


    POTLOK:  cpu time      1.9215: real time      1.9381
    SETDIJ:  cpu time      1.4631: real time      1.4640
    EDDIAG:  cpu time     50.7330: real time     50.7583
     EDDAV:  cpu time    233.4727: real time    233.6046
       DOS:  cpu time      0.0028: real time      0.0028
    CHARGE:  cpu time     28.4786: real time     28.5044
    MIXING:  cpu time      0.0387: real time      0.0387
    --------------------------------------------
      LOOP:  cpu time    316.1104: real time    316.3109

 eigenvalue-minimisations  :  2888
 total energy-change (2. order) :-0.1780246E-03  (-0.6841024E-03)
 number of electron     250.9999999 magnetization 
 augmentation part      -12.6581272 magnetization 

 Broyden mixing:
  rms(total) = 0.12091E-01    rms(broyden)= 0.65898E-01
  rms(prec ) = 0.12923E-01
  weight for this iteration     100.00
  WARNING: grid for Broyden might be to small

 eigenvalues of (default mixing * dielectric matrix)
  average eigenvalue GAMMA=   1.0265
  2.6097  1.1527  0.7204  0.6140  0.5466  0.5152

 Free energy of the ion-electron system (eV)
  ---------------------------------------------------
  alpha Z        PSCENC =        24.91271107
  Ewald energy   TEWEN  =     28643.15317927
  -Hartree energ DENC   =    -33857.79292966
  -exchange      EXHF   =         0.00000000
  -V(xc)+E(xc)   XCENC  =      -214.98829294
  PAW double counting   =     31954.33687425   -31385.85803404
  entropy T*S    EENTRO =        -0.15282447
  eigenvalues    EBANDS =     -1912.57337724
  atomic energy  EATOM  =      6162.04196728
  Solvation  Ediel_sol  =         0.00000000
  ---------------------------------------------------
  free energy    TOTEN  =      -586.92072649 eV

  energy without entropy =     -586.76790201  energy(sigma->0) =     -586.84431425


--------------------------------------------------------------------------------------------------------




--------------------------------------- Iteration      1(   8)  ---------------------------------------


    POTLOK:  cpu time      1.9217: real time      1.9435
    SETDIJ:  cpu time      1.4594: real time      1.4600
    EDDIAG:  cpu time     50.7964: real time     50.8230
     EDDAV:  cpu time    232.3149: real time    232.4523
       DOS:  cpu time      0.0033: real time      0.0033
    CHARGE:  cpu time     28.5033: real time     28.5293
    MIXING:  cpu time      0.0396: real time      0.0396
    --------------------------------------------
      LOOP:  cpu time    315.0385: real time    315.2511

 eigenvalue-minimisations  :  2864
 total energy-change (2. order) :-0.5946025E-03  (-0.3050548E-03)
 number of electron     250.9999999 magnetization 
 augmentation part      -12.6566102 magnetization 

 Broyden mixing:
  rms(total) = 0.39099E-02    rms(broyden)= 0.10261E+00
  rms(prec ) = 0.50771E-02
  weight for this iteration     100.00
  WARNING: grid for Broyden might be to small

 eigenvalues of (default mixing * dielectric matrix)
  average eigenvalue GAMMA=   1.1086
  2.5995  1.8417  0.9464  0.6449  0.6449  0.5924  0.4900

 Free energy of the ion-electron system (eV)
  ---------------------------------------------------
  alpha Z        PSCENC =        24.91271107
  Ewald energy   TEWEN  =     28643.15317927
  -Hartree energ DENC   =    -33857.48184626
  -exchange      EXHF   =         0.00000000
  -V(xc)+E(xc)   XCENC  =      -214.87696612
  PAW double counting   =     31965.16166033   -31396.67776920
  entropy T*S    EENTRO =        -0.15276594
  eigenvalues    EBANDS =     -1913.00149153
  atomic energy  EATOM  =      6162.04196728
  Solvation  Ediel_sol  =         0.00000000
  ---------------------------------------------------
  free energy    TOTEN  =      -586.92132109 eV

  energy without entropy =     -586.76855515  energy(sigma->0) =     -586.84493812


--------------------------------------------------------------------------------------------------------




--------------------------------------- Iteration      1(   9)  ---------------------------------------


    POTLOK:  cpu time      1.9299: real time      1.9422
    SETDIJ:  cpu time      1.4572: real time      1.4578
    EDDIAG:  cpu time     50.7543: real time     50.7834
     EDDAV:  cpu time    243.4921: real time    243.6324
       DOS:  cpu time      0.0027: real time      0.0027
    CHARGE:  cpu time     28.4699: real time     28.4962
    MIXING:  cpu time      0.0398: real time      0.0398
    --------------------------------------------
      LOOP:  cpu time    326.1461: real time    326.3547

 eigenvalue-minimisations  :  3104
 total energy-change (2. order) :-0.1444763E-03  (-0.4674434E-04)
 number of electron     250.9999999 magnetization 
 augmentation part      -12.6568606 magnetization 

 Broyden mixing:
  rms(total) = 0.21715E-02    rms(broyden)= 0.32964E-01
  rms(prec ) = 0.26627E-02
  weight for this iteration     100.00
  WARNING: grid for Broyden might be to small

 eigenvalues of (default mixing * dielectric matrix)
  average eigenvalue GAMMA=   1.1666
  2.5990  2.5990  1.0229  0.7531  0.6530  0.6530  0.5517  0.5007

 Free energy of the ion-electron system (eV)
  ---------------------------------------------------
  alpha Z        PSCENC =        24.91271107
  Ewald energy   TEWEN  =     28643.15317927
  -Hartree energ DENC   =    -33857.29989191
  -exchange      EXHF   =         0.00000000
  -V(xc)+E(xc)   XCENC  =      -214.89112362
  PAW double counting   =     31966.20934363   -31397.72341848
  entropy T*S    EENTRO =        -0.15281752
  eigenvalues    EBANDS =     -1913.17141528
  atomic energy  EATOM  =      6162.04196728
  Solvation  Ediel_sol  =         0.00000000
  ---------------------------------------------------
  free energy    TOTEN  =      -586.92146557 eV

  energy without entropy =     -586.76864804  energy(sigma->0) =     -586.84505680


--------------------------------------------------------------------------------------------------------




--------------------------------------- Iteration      1(  10)  ---------------------------------------


    POTLOK:  cpu time      1.9224: real time      1.9381
    SETDIJ:  cpu time      1.4565: real time      1.4576
    EDDIAG:  cpu time     50.7375: real time     50.7643
     EDDAV:  cpu time    234.5404: real time    234.6762
       DOS:  cpu time      0.0029: real time      0.0028
    CHARGE:  cpu time     28.4557: real time     28.4817
    MIXING:  cpu time      0.0409: real time      0.0409
    --------------------------------------------
      LOOP:  cpu time    317.1561: real time    317.3614

 eigenvalue-minimisations  :  2912
 total energy-change (2. order) :-0.2003690E-04  (-0.4156666E-04)
 number of electron     250.9999999 magnetization 
 augmentation part      -12.6569028 magnetization 

 Broyden mixing:
  rms(total) = 0.11782E-02    rms(broyden)= 0.22521E-01
  rms(prec ) = 0.15178E-02
  weight for this iteration     100.00
  WARNING: grid for Broyden might be to small

 eigenvalues of (default mixing * dielectric matrix)
  average eigenvalue GAMMA=   1.2799
  3.8208  2.5911  1.2252  0.8753  0.6760  0.6760  0.6230  0.5105  0.5216

 Free energy of the ion-electron system (eV)
  ---------------------------------------------------
  alpha Z        PSCENC =        24.91271107
  Ewald energy   TEWEN  =     28643.15317927
  -Hartree energ DENC   =    -33857.08132823
  -exchange      EXHF   =         0.00000000
  -V(xc)+E(xc)   XCENC  =      -214.89773834
  PAW double counting   =     31969.87303243   -31401.38580869
  entropy T*S    EENTRO =        -0.15281590
  eigenvalues    EBANDS =     -1913.38468450
  atomic energy  EATOM  =      6162.04196728
  Solvation  Ediel_sol  =         0.00000000
  ---------------------------------------------------
  free energy    TOTEN  =      -586.92148560 eV

  energy without entropy =     -586.76866970  energy(sigma->0) =     -586.84507765


--------------------------------------------------------------------------------------------------------




--------------------------------------- Iteration      1(  11)  ---------------------------------------


    POTLOK:  cpu time      1.9170: real time      1.9324
    SETDIJ:  cpu time      1.4512: real time      1.4521
    EDDIAG:  cpu time     50.7259: real time     50.7521
     EDDAV:  cpu time    230.1821: real time    230.3121
       DOS:  cpu time      0.0030: real time      0.0030
    CHARGE:  cpu time     28.4397: real time     28.4657
    MIXING:  cpu time      0.0414: real time      0.0414
    --------------------------------------------
      LOOP:  cpu time    312.7602: real time    312.9588

 eigenvalue-minimisations  :  2816
 total energy-change (2. order) :-0.1532115E-03  (-0.2065796E-04)
 number of electron     250.9999999 magnetization 
 augmentation part      -12.6570198 magnetization 

 Broyden mixing:
  rms(total) = 0.63835E-03    rms(broyden)= 0.19421E-01
  rms(prec ) = 0.96375E-03
  weight for this iteration     100.00
  WARNING: grid for Broyden might be to small

 eigenvalues of (default mixing * dielectric matrix)
  average eigenvalue GAMMA=   1.4245
  5.0629  2.5985  1.6803  1.0505  0.8481  0.6697  0.6697  0.4961  0.6138  0.5551

 Free energy of the ion-electron system (eV)
  ---------------------------------------------------
  alpha Z        PSCENC =        24.91271107
  Ewald energy   TEWEN  =     28643.15317927
  -Hartree energ DENC   =    -33856.83838774
  -exchange      EXHF   =         0.00000000
  -V(xc)+E(xc)   XCENC  =      -214.90193365
  PAW double counting   =     31966.98230538   -31398.49406423
  entropy T*S    EENTRO =        -0.15281815
  eigenvalues    EBANDS =     -1913.62459805
  atomic energy  EATOM  =      6162.04196728
  Solvation  Ediel_sol  =         0.00000000
  ---------------------------------------------------
  free energy    TOTEN  =      -586.92163882 eV

  energy without entropy =     -586.76882066  energy(sigma->0) =     -586.84522974


--------------------------------------------------------------------------------------------------------




--------------------------------------- Iteration      1(  12)  ---------------------------------------


    POTLOK:  cpu time      1.9401: real time      1.9415
    SETDIJ:  cpu time      1.5467: real time      1.5480
    EDDIAG:  cpu time     50.6340: real time     50.6616
     EDDAV:  cpu time    230.2990: real time    230.4343
       DOS:  cpu time      0.0122: real time      0.0123
    CHARGE:  cpu time     28.5173: real time     28.5421
    MIXING:  cpu time      0.0555: real time      0.0562
    --------------------------------------------
      LOOP:  cpu time    313.0047: real time    313.1960

 eigenvalue-minimisations  :  2816
 total energy-change (2. order) :-0.1559552E-03  (-0.1783752E-04)
 number of electron     250.9999999 magnetization 
 augmentation part      -12.6570947 magnetization 

 Broyden mixing:
  rms(total) = 0.39992E-03    rms(broyden)= 0.15178E-01
  rms(prec ) = 0.67567E-03
  weight for this iteration     100.00
  WARNING: grid for Broyden might be to small

 eigenvalues of (default mixing * dielectric matrix)
  average eigenvalue GAMMA=   1.6619
  7.6622  2.6236  2.3535  1.0825  0.8633  0.7183  0.4962  0.6775  0.6289  0.6289
  0.5455

 Free energy of the ion-electron system (eV)
  ---------------------------------------------------
  alpha Z        PSCENC =        24.91271107
  Ewald energy   TEWEN  =     28643.15317927
  -Hartree energ DENC   =    -33856.62808428
  -exchange      EXHF   =         0.00000000
  -V(xc)+E(xc)   XCENC  =      -214.90729616
  PAW double counting   =     31966.27056945   -31397.78202573
  entropy T*S    EENTRO =        -0.15281145
  eigenvalues    EBANDS =     -1913.83000422
  atomic energy  EATOM  =      6162.04196728
  Solvation  Ediel_sol  =         0.00000000
  ---------------------------------------------------
  free energy    TOTEN  =      -586.92179477 eV

  energy without entropy =     -586.76898332  energy(sigma->0) =     -586.84538905


--------------------------------------------------------------------------------------------------------




--------------------------------------- Iteration      1(  13)  ---------------------------------------


    POTLOK:  cpu time      1.9204: real time      1.9359
    SETDIJ:  cpu time      1.4757: real time      1.4764
    EDDIAG:  cpu time     50.8217: real time     50.8491
     EDDAV:  cpu time    230.2191: real time    230.3572
       DOS:  cpu time      0.0092: real time      0.0092
    CHARGE:  cpu time     28.4435: real time     28.4700
    MIXING:  cpu time      0.0568: real time      0.0573
    --------------------------------------------
      LOOP:  cpu time    312.9463: real time    313.1550

 eigenvalue-minimisations  :  2816
 total energy-change (2. order) :-0.1375790E-03  (-0.1545876E-04)
 number of electron     250.9999999 magnetization 
 augmentation part      -12.6571455 magnetization 

 Broyden mixing:
  rms(total) = 0.27841E-03    rms(broyden)= 0.12363E-01
  rms(prec ) = 0.50187E-03
  weight for this iteration     100.00
  WARNING: grid for Broyden might be to small

 eigenvalues of (default mixing * dielectric matrix)
  average eigenvalue GAMMA=   1.7383
  8.9912  2.6481  2.6086  1.1471  0.9014  0.9014  0.7594  0.4996  0.5267  0.6259
  0.6259  0.6242

 Free energy of the ion-electron system (eV)
  ---------------------------------------------------
  alpha Z        PSCENC =        24.91271107
  Ewald energy   TEWEN  =     28643.15317927
  -Hartree energ DENC   =    -33856.46938686
  -exchange      EXHF   =         0.00000000
  -V(xc)+E(xc)   XCENC  =      -214.91145189
  PAW double counting   =     31965.79271182   -31397.30430240
  entropy T*S    EENTRO =        -0.15282481
  eigenvalues    EBANDS =     -1913.98453583
  atomic energy  EATOM  =      6162.04196728
  Solvation  Ediel_sol  =         0.00000000
  ---------------------------------------------------
  free energy    TOTEN  =      -586.92193235 eV

  energy without entropy =     -586.76910754  energy(sigma->0) =     -586.84551994


--------------------------------------------------------------------------------------------------------




--------------------------------------- Iteration      1(  14)  ---------------------------------------


    POTLOK:  cpu time      1.9314: real time      1.9444
    SETDIJ:  cpu time      1.4690: real time      1.4703
    EDDIAG:  cpu time     50.7029: real time     50.7285
     EDDAV:  cpu time    230.2135: real time    230.3380
       DOS:  cpu time      0.0027: real time      0.0027
    CHARGE:  cpu time     28.4513: real time     28.4754
    MIXING:  cpu time      0.0464: real time      0.0464
    --------------------------------------------
      LOOP:  cpu time    312.8171: real time    313.0058

 eigenvalue-minimisations  :  2816
 total energy-change (2. order) :-0.1420465E-03  (-0.2058592E-04)
 number of electron     250.9999999 magnetization 
 augmentation part      -12.6571931 magnetization 

 Broyden mixing:
  rms(total) = 0.18751E-03    rms(broyden)= 0.89851E-02
  rms(prec ) = 0.33644E-03
  weight for this iteration     100.00
  WARNING: grid for Broyden might be to small

 eigenvalues of (default mixing * dielectric matrix)
  average eigenvalue GAMMA=   1.7698
  9.6408  2.7341  2.7341  1.5349  1.1061  0.8400  0.8400  0.4981  0.6796  0.5305
  0.6520  0.6086  0.6086

 Free energy of the ion-electron system (eV)
  ---------------------------------------------------
  alpha Z        PSCENC =        24.91271107
  Ewald energy   TEWEN  =     28643.15317927
  -Hartree energ DENC   =    -33856.26394718
  -exchange      EXHF   =         0.00000000
  -V(xc)+E(xc)   XCENC  =      -214.91593481
  PAW double counting   =     31966.12072546   -31397.63268156
  entropy T*S    EENTRO =        -0.15282539
  eigenvalues    EBANDS =     -1914.18526853
  atomic energy  EATOM  =      6162.04196728
  Solvation  Ediel_sol  =         0.00000000
  ---------------------------------------------------
  free energy    TOTEN  =      -586.92207440 eV

  energy without entropy =     -586.76924900  energy(sigma->0) =     -586.84566170


--------------------------------------------------------------------------------------------------------




--------------------------------------- Iteration      1(  15)  ---------------------------------------


    POTLOK:  cpu time      1.9402: real time      1.9415
    SETDIJ:  cpu time      1.4662: real time      1.4670
    EDDIAG:  cpu time     50.8093: real time     50.8355
     EDDAV:  cpu time    230.2139: real time    230.3396
       DOS:  cpu time      0.0035: real time      0.0035
    CHARGE:  cpu time     28.4302: real time     28.4565
    MIXING:  cpu time      0.0441: real time      0.0441
    --------------------------------------------
      LOOP:  cpu time    312.9074: real time    313.0876

 eigenvalue-minimisations  :  2816
 total energy-change (2. order) :-0.1149853E-03  (-0.1105596E-04)
 number of electron     250.9999999 magnetization 
 augmentation part      -12.6572229 magnetization 

 Broyden mixing:
  rms(total) = 0.14130E-03    rms(broyden)= 0.63837E-02
  rms(prec ) = 0.23077E-03
  weight for this iteration     100.00
  WARNING: grid for Broyden might be to small

 eigenvalues of (default mixing * dielectric matrix)
  average eigenvalue GAMMA=   1.7547
  9.8697  2.8159  2.8159  1.9185  1.1215  0.8795  0.8168  0.8168  0.6538  0.6538
  0.4971  0.6083  0.5311  0.5675

 Free energy of the ion-electron system (eV)
  ---------------------------------------------------
  alpha Z        PSCENC =        24.91271107
  Ewald energy   TEWEN  =     28643.15317927
  -Hartree energ DENC   =    -33856.12123611
  -exchange      EXHF   =         0.00000000
  -V(xc)+E(xc)   XCENC  =      -214.91852354
  PAW double counting   =     31966.42613373   -31397.93832826
  entropy T*S    EENTRO =        -0.15283408
  eigenvalues    EBANDS =     -1914.32525875
  atomic energy  EATOM  =      6162.04196728
  Solvation  Ediel_sol  =         0.00000000
  ---------------------------------------------------
  free energy    TOTEN  =      -586.92218938 eV

  energy without entropy =     -586.76935530  energy(sigma->0) =     -586.84577234


--------------------------------------------------------------------------------------------------------




--------------------------------------- Iteration      1(  16)  ---------------------------------------


    POTLOK:  cpu time      1.9365: real time      1.9379
    SETDIJ:  cpu time      1.4663: real time      1.4672
    EDDIAG:  cpu time     50.7174: real time     50.7434
     EDDAV:  cpu time    227.2762: real time    227.4112
       DOS:  cpu time      0.0033: real time      0.0033
    CHARGE:  cpu time     28.4575: real time     28.4814
    MIXING:  cpu time      0.0453: real time      0.0453
    --------------------------------------------
      LOOP:  cpu time    309.9025: real time    310.0898

 eigenvalue-minimisations  :  2752
 total energy-change (2. order) :-0.6274512E-04  (-0.4757921E-05)
 number of electron     250.9999999 magnetization 
 augmentation part      -12.6572441 magnetization 

 Broyden mixing:
  rms(total) = 0.94125E-04    rms(broyden)= 0.45363E-02
  rms(prec ) = 0.15185E-03
  weight for this iteration     100.00
  WARNING: grid for Broyden might be to small

 eigenvalues of (default mixing * dielectric matrix)
  average eigenvalue GAMMA=   1.7223
  9.9378  3.0298  2.7225  1.9716  1.2767  0.9348  0.9348  0.8881  0.6810  0.6314
  0.6244  0.6244  0.4967  0.5199  0.5612

 Free energy of the ion-electron system (eV)
  ---------------------------------------------------
  alpha Z        PSCENC =        24.91271107
  Ewald energy   TEWEN  =     28643.15317927
  -Hartree energ DENC   =    -33856.03122286
  -exchange      EXHF   =         0.00000000
  -V(xc)+E(xc)   XCENC  =      -214.91975357
  PAW double counting   =     31966.33592163   -31397.84821767
  entropy T*S    EENTRO =        -0.15283071
  eigenvalues    EBANDS =     -1914.41400658
  atomic energy  EATOM  =      6162.04196728
  Solvation  Ediel_sol  =         0.00000000
  ---------------------------------------------------
  free energy    TOTEN  =      -586.92225213 eV

  energy without entropy =     -586.76942142  energy(sigma->0) =     -586.84583677


--------------------------------------------------------------------------------------------------------




--------------------------------------- Iteration      1(  17)  ---------------------------------------


    POTLOK:  cpu time      1.9231: real time      1.9393
    SETDIJ:  cpu time      1.4659: real time      1.4665
    EDDIAG:  cpu time     50.6755: real time     50.7012
     EDDAV:  cpu time    230.1266: real time    230.2594
       DOS:  cpu time      0.0033: real time      0.0033
[...]
   0.149E+02 0.215E+02 -.136E+02   -.141E+02 -.217E+02 0.127E+02   -.540E+00 -.234E+00 0.121E+01   0.587E-04 -.239E-05 0.673E-04
   0.940E+01 0.114E+01 0.118E+03   -.708E+01 0.118E+01 -.117E+03   -.229E+01 -.231E+01 -.129E+01   0.199E-05 0.198E-04 0.290E-04
   -.577E+01 0.234E+01 -.156E+03   0.617E+01 -.636E+00 0.157E+03   -.951E+00 -.799E+00 0.462E+00   -.113E-03 -.165E-04 0.133E-03
   0.989E+01 0.789E+01 0.107E+03   -.105E+02 -.764E+01 -.106E+03   0.535E+00 -.121E+00 -.193E+01   0.918E-04 0.389E-04 0.893E-04
   0.270E+01 -.300E+02 0.144E+03   -.331E+01 0.295E+02 -.142E+03   0.103E+00 0.223E+00 -.262E+01   -.318E-04 0.357E-06 0.432E-05
   -.858E+01 0.103E+02 0.272E+03   0.925E+01 -.101E+02 -.274E+03   -.496E+00 0.656E+00 0.118E+01   -.122E-04 0.957E-05 0.145E-05
   0.493E+01 -.198E+02 -.237E+03   -.517E+01 0.190E+02 0.238E+03   -.572E+00 0.115E+01 -.169E+01   0.809E-04 0.348E-04 0.431E-04
   -.309E+02 -.872E+01 0.560E+02   0.271E+02 0.751E+01 -.555E+02   0.387E+01 0.169E+01 -.176E+01   -.606E-06 0.225E-04 0.547E-04
   0.720E+01 -.214E+02 -.264E+01   -.476E+01 0.206E+02 0.380E+01   -.265E+01 0.113E+01 -.168E+01   0.544E-04 -.285E-04 0.712E-04
   0.113E+02 -.147E+01 -.306E+02   -.118E+02 0.253E+01 0.331E+02   0.172E+01 -.173E+01 -.285E+01   0.633E-04 -.498E-04 0.612E-04
   0.172E+02 -.149E+02 0.252E+03   -.185E+02 0.167E+02 -.254E+03   0.493E+00 -.277E+01 0.162E+01   -.575E-04 -.164E-04 0.515E-05
   -.250E+02 -.291E+02 0.181E+03   0.247E+02 0.280E+02 -.181E+03   0.138E+00 0.136E+00 -.152E+01   0.210E-04 -.667E-05 0.212E-04
   0.214E+02 0.170E+02 0.183E+03   -.231E+02 -.157E+02 -.185E+03   0.817E+00 -.172E+01 0.251E+01   0.302E-04 -.199E-04 0.420E-05
   0.184E+02 -.791E+00 -.431E+02   -.206E+02 0.294E+00 0.421E+02   0.163E+01 0.111E+01 0.212E+01   -.674E-05 0.466E-04 0.699E-04
   -.374E+02 0.178E+02 0.115E+03   0.346E+02 -.155E+02 -.115E+03   0.373E+01 -.335E+01 -.980E+00   -.748E-04 0.195E-04 0.513E-04
   -.997E+01 0.361E+01 -.204E+03   0.101E+02 -.446E+01 0.208E+03   -.123E+01 0.101E+01 -.322E+01   -.722E-04 -.483E-05 0.798E-04
   -.583E+01 0.103E+02 0.579E+02   0.689E+01 -.820E+01 -.578E+02   -.115E+01 -.180E+01 -.658E-01   -.612E-04 -.415E-04 0.633E-04
   -.643E+01 -.195E+02 -.241E+03   0.643E+01 0.218E+02 0.242E+03   -.317E+00 -.129E+01 -.525E+00   0.164E-04 -.899E-05 0.652E-04
   -.104E+02 -.406E+02 0.268E+03   0.881E+01 0.401E+02 -.272E+03   0.230E+01 0.130E+01 0.408E+01   0.279E-04 -.104E-04 0.120E-05
   -.187E+00 0.309E+02 0.411E+02   -.192E+01 -.295E+02 -.411E+02   0.228E+01 -.241E+01 -.177E+00   -.187E-05 -.500E-04 0.293E-04
   -.323E+02 -.145E+01 0.710E+02   0.309E+02 0.315E+01 -.700E+02   0.106E+01 -.109E+01 -.230E+00   -.787E-05 0.345E-06 0.394E-04
   -.380E+01 0.261E+01 0.112E+03   0.594E+01 -.241E+01 -.113E+03   -.249E+01 -.610E+00 0.311E+00   0.210E-04 -.133E-04 0.553E-04
   -.603E+01 0.113E+02 0.170E+03   0.730E+01 -.977E+01 -.166E+03   -.354E+00 -.721E+00 -.434E+01   -.403E-04 -.135E-04 0.239E-04
   0.256E+02 -.355E+01 -.235E+03   -.246E+02 0.161E+01 0.236E+03   -.447E+00 0.170E+01 -.144E+01   0.490E-04 -.285E-05 0.640E-04
   0.303E+02 0.239E+02 -.155E+03   -.282E+02 -.248E+02 0.156E+03   -.358E+01 0.505E+00 -.469E+00   0.623E-04 0.412E-04 0.681E-04
   -.320E+01 0.858E+01 -.132E+03   0.813E+00 -.552E+01 0.129E+03   0.367E+01 -.348E+01 0.371E+01   0.941E-04 0.362E-04 0.720E-04
   0.118E+02 -.132E+02 -.208E+03   -.132E+02 0.143E+02 0.204E+03   0.176E+01 -.302E+01 0.379E+01   0.494E-05 -.563E-05 0.988E-04
   0.133E+02 -.691E+01 -.263E+03   -.137E+02 0.688E+01 0.262E+03   0.756E+00 -.121E-02 0.631E+00   0.578E-04 -.288E-05 0.417E-04
   -.144E+02 0.424E+01 -.220E+03   0.126E+02 -.319E+01 0.217E+03   0.284E+01 -.227E+01 0.175E+01   -.263E-04 -.118E-04 0.494E-04
   -.267E+01 -.130E+02 0.468E+02   0.168E+01 0.116E+02 -.471E+02   0.125E+01 0.113E+01 0.114E+01   -.384E-05 0.270E-04 0.696E-04
   0.320E+02 -.618E+01 -.224E+03   -.333E+02 0.810E+01 0.223E+03   0.135E+01 -.104E+01 0.495E+00   0.295E-04 -.680E-05 0.807E-04
   -.197E+02 0.288E+02 0.762E+02   0.193E+02 -.282E+02 -.767E+02   0.296E+00 -.867E+00 0.134E+01   -.139E-04 0.377E-04 0.277E-04
   -.738E+01 0.299E+00 0.202E+03   0.737E+01 -.227E+01 -.200E+03   0.355E+00 0.197E+01 -.165E+01   -.252E-04 0.629E-05 0.559E-04
   -.223E+02 0.154E+02 -.238E+03   0.253E+02 -.159E+02 0.239E+03   -.366E+01 -.183E+01 -.102E+01   -.284E-04 0.786E-05 0.412E-04
   0.211E+02 0.532E+01 -.120E+02   -.233E+02 -.598E+01 0.961E+01   0.213E+01 0.166E+00 0.182E+01   0.392E-04 -.220E-04 0.420E-04
   0.176E+02 0.132E+02 0.148E+03   -.172E+02 -.141E+02 -.148E+03   -.190E+00 0.144E+01 0.470E+00   0.468E-04 0.351E-05 0.410E-04
   -.258E+01 -.421E+01 0.247E+03   0.551E+00 0.393E+01 -.244E+03   0.299E+01 0.605E+00 -.280E+01   0.489E-05 -.257E-04 -.435E-04
   -.182E+02 -.841E+01 -.189E+03   0.191E+02 0.882E+01 0.188E+03   -.107E+01 0.810E-01 -.475E+00   -.370E-04 0.463E-05 0.517E-04
   -.338E+01 -.198E+02 -.939E+02   0.618E+00 0.189E+02 0.940E+02   0.314E+01 0.818E+00 0.345E+00   -.207E-04 0.135E-04 0.695E-04
   -.335E+02 0.229E+02 -.106E+03   0.329E+02 -.231E+02 0.104E+03   -.983E+00 0.659E+00 0.406E+01   -.293E-04 -.156E-04 0.626E-04
   -.423E+01 0.400E+02 0.204E+03   0.520E+01 -.399E+02 -.207E+03   -.466E+00 0.221E+00 0.196E+01   -.161E-04 -.280E-04 -.978E-05
   -.271E+02 0.336E+01 0.411E+02   0.263E+02 -.252E+01 -.376E+02   0.900E+00 -.463E+00 -.382E+01   -.424E-04 0.897E-06 0.581E-04
   -.129E+02 -.245E+02 0.194E+03   0.116E+02 0.237E+02 -.190E+03   0.719E+00 0.119E+01 -.546E+01   0.252E-04 -.484E-04 0.238E-05
   0.184E+02 -.114E+01 -.937E+02   -.154E+02 0.482E+00 0.926E+02   -.311E+01 0.159E+01 0.247E+01   -.591E-04 -.354E-04 0.918E-04
   -.279E+01 0.131E+02 0.207E+03   0.245E+01 -.122E+02 -.204E+03   0.919E+00 0.306E+00 -.383E+01   -.621E-04 -.110E-04 0.553E-04
   0.350E+02 0.223E+02 0.142E+03   -.349E+02 -.219E+02 -.141E+03   -.165E+00 0.297E+00 -.144E+01   0.511E-06 0.292E-04 -.267E-05
   0.244E+02 -.915E+01 0.817E+02   -.225E+02 0.926E+01 -.839E+02   -.275E+01 -.139E+00 0.272E+01   0.878E-04 0.187E-04 0.643E-04
   0.729E+01 -.197E+02 -.703E+02   -.894E+01 0.195E+02 0.692E+02   0.904E+00 0.814E+00 0.236E+01   0.451E-04 -.223E-04 0.810E-04
   -.201E+02 -.309E+01 0.219E+03   0.198E+02 0.257E+01 -.216E+03   -.185E+00 -.186E+00 -.364E+01   -.691E-04 -.221E-04 0.281E-04
   -.229E+02 0.118E+02 0.152E+03   0.242E+02 -.113E+02 -.152E+03   -.701E+00 -.500E+00 0.663E+00   -.159E-04 0.460E-04 0.347E-04
   -.270E-01 -.109E+02 -.194E+02   0.191E+01 0.962E+01 0.162E+02   -.119E+01 0.132E+01 0.302E+01   0.222E-04 0.356E-04 0.106E-03
   0.113E+02 0.952E+01 -.224E+03   -.110E+02 -.110E+02 0.222E+03   -.998E+00 0.990E+00 0.200E+01   0.302E-04 0.250E-04 0.825E-04
   -.174E+02 0.723E+01 -.225E+03   0.176E+02 -.784E+01 0.228E+03   0.469E+00 0.404E+00 -.263E+01   0.196E-04 -.223E-04 0.328E-04
   0.136E+01 -.269E+01 0.249E+03   0.685E+00 0.312E+01 -.252E+03   -.135E+01 -.130E+01 0.291E+01   0.900E-04 0.589E-04 -.268E-05
   -.167E+02 0.174E+02 -.165E+03   0.120E+02 -.201E+02 0.167E+03   0.537E+01 0.265E+01 -.151E+01   -.302E-04 -.274E-06 0.621E-04
 -----------------------------------------------------------------------------------------------
   -.153E+02 0.104E+02 0.225E+02   0.117E-12 0.103E-12 0.313E-12   0.153E+02 -.104E+02 -.225E+02   0.695E-04 -.690E-05 0.303E-02


 POSITION                                       TOTAL-FORCE (eV/Angst)
 -----------------------------------------------------------------------------------
      0.68582     10.23350     15.13853        -0.116277      0.083206     -0.098530
      7.22874     11.38150     10.16092        -0.304494      0.595610      0.160350
      4.46837     14.29050     15.04584        -0.567178      1.585758     -0.330887
      0.03915     14.50120     15.41831        -0.179928      0.233821      0.863492
      9.62322      3.32734     14.99253         0.423219      0.109307      0.259048
     12.87740      8.29161     13.82548        -0.109135     -0.410261     -0.027399
     13.72490     14.18640     13.21221        -0.340602      1.166613     -0.090303
      2.00829      6.33044     14.89964         0.179255     -0.121068      0.431348
      2.28100      8.29612     15.22998         1.210164      0.142569     -0.406425
      1.57463      6.52001     14.33359        -0.119163     -0.187544     -0.093308
      2.09222      9.33350     13.47075         0.111543      0.286536     -0.419757
      0.14929      1.95680     13.49003        -0.056092      0.043167      0.041538
      5.78396     13.56340     10.00011        -0.161170     -0.765609      0.147317
     12.60370     13.44890     14.77980         0.705292     -0.070273      0.946636
     13.27430     11.13860     14.25032        -1.299072     -0.122961      0.285400
      2.05880      4.10284     14.43733        -0.241013      0.439720      0.025512
     14.31440      4.20421     13.54922        -0.359804     -0.098834     -0.410090
     12.07150      2.13439     13.79496         0.134638     -0.646534      1.132296
     14.16600      7.12208     15.34491         0.020410     -0.172936     -0.070126
      2.66525     11.66650     14.49482        -0.359504      0.605610      0.081199
      0.48144      1.66828     14.08576         0.113089     -0.106529      0.547385
     13.37430      0.32779     13.21074         0.571809     -0.892472      0.013829
      7.38138     13.35950     13.91343        -0.106469     -0.214028      0.106007
      5.23542      4.16156     10.36417        -0.022795     -0.002044      0.305646
      1.65250      0.77481     11.09999        -0.209465      0.608820     -0.112358
      8.28663     10.72100     12.72724         0.240161     -0.407406      0.451495
      2.51044      6.69751     11.89004        -0.074776     -0.067433     -0.331559
     13.50870      6.90773     14.01812        -0.610322      0.937663      1.190756
      8.03589      6.98180     11.67663        -0.054424      0.155782     -1.456080
      1.63635      3.05252     11.51732        -0.581238     -0.398799     -0.762462
     10.44990     10.78210     10.04006         0.180424      0.890714     -0.537899
      8.39949      4.18893     14.95598        -0.808980      0.286110     -1.332637
      0.19535      6.86860     12.15364         0.266948      0.569963     -1.400704
      8.96941      1.11574     12.68055        -0.355253      0.351211     -0.617178
      7.03089     14.28670     12.74860         1.301727     -0.751203     -0.568136
     14.49210     14.34180     10.00000        -0.685769     -1.180029     -0.089685
     10.82680      0.88015     11.26987        -0.168171     -1.044875     -0.831677
      6.75138     12.70410     10.85945        -0.783049     -0.397491      0.013010
      3.22218      8.43169     13.10273        -0.529417      0.721242      1.236042
     11.45320      9.36819     11.47410         1.029405     -1.242073     -0.855135
     11.86560      5.31350     14.40876        -1.105701      0.304274     -0.022711
     14.06370      3.68132     12.11396        -0.145203      0.258320      0.128536
      9.94977      0.73367     14.73881        -0.310442      0.748017      0.273805
      8.53133     14.13880     10.07850         0.873938      0.693370      1.208060
      3.55116     13.10340     12.03657         0.273151     -1.109498     -0.245789
     11.48220     13.27520     11.95312        -0.355715      0.543157      0.684610
      9.43817     12.38840     11.49009        -0.474029     -0.440056     -0.814197
     13.40550     12.48710     11.07055         0.931223      0.793174     -0.708155
      6.83180      2.44172     14.85783         0.557046     -0.036841     -0.826654
      5.65909      6.23915     14.03361        -1.573574     -0.241405     -0.140965
      7.84038      6.31381     13.78689         1.470872     -0.632732      1.503697
      3.59400      1.57613     14.16627         0.662712     -2.136658      0.172257
      7.80039     11.35280     15.10311         0.400037     -0.116619     -0.953044
      0.75944     13.47780     14.68763         1.143269     -1.291246     -1.416417
      4.27404      5.24841     12.20015         0.256871     -0.225235      0.952371
      5.61313     10.61630     14.67409         0.232168      0.746364     -0.217777
      0.28088     10.88850     11.84821        -0.131226     -0.162733      0.867517
     10.13010      7.46185     10.76820         0.389372      0.018400      0.281371
     10.14710     11.57760     14.82707        -0.951390     -2.335295      0.050819
      5.24763     11.66880     12.57470         0.050820     -0.492457     -0.473552
      7.00173      9.01282     11.43929         0.130309      0.586237      0.407659
      3.77622      0.18001     10.43204         1.101488      0.400954     -0.174147
     11.23640     13.43980     14.35514        -0.150946      0.462597     -1.326482
      2.88568      3.68233     13.29836         0.490311     -0.077540      0.466740
     10.40490      9.57059     13.39423        -1.799812      0.525690      1.961041
      2.17351     11.66150     10.75493         0.413068      0.358690     -0.559837
     12.04210      2.51878     12.39826         0.059427      0.371476     -0.400854
      5.37498      1.85425     10.92527        -0.593885      0.489185     -1.275962
      2.24988     14.42960     13.17637        -0.334116      1.006455      1.465078
     11.20790      5.41556     10.84402         0.711306      1.305219     -0.055187
      4.75137      9.50723     11.66982         0.067558      0.800493      0.207315
      8.44986      3.47347     12.09921        -0.803948     -0.060119      0.866646
      5.62382      1.40515     13.07283        -0.663235      0.707324      1.371990
     13.52380      5.53092     10.82996        -0.549606     -0.769835     -0.439454
     13.77290      8.89540     11.30991         0.490014      0.011559      0.335839
     10.53630      4.28009     12.70295         0.673014      0.090890     -0.134714
      4.97637      8.36786     14.66592        -0.859517     -0.413662     -0.683114
      9.36232      7.86374     14.72929         0.652330     -0.177455     -0.213916
      7.15169      5.48663     10.01370         0.517163     -1.016720      0.628457
      0.12748     11.27350     14.22669         0.970351      0.001243     -0.146844
 -----------------------------------------------------------------------------------
    total drift:                               -0.001575     -0.002502     -0.003108


--------------------------------------------------------------------------------------------------------



  FREE ENERGIE OF THE ION-ELECTRON SYSTEM (eV)
  ---------------------------------------------------
  free  energy   TOTEN  =      -586.92230763 eV

  energy  without entropy=     -586.76947183  energy(sigma->0) =     -586.84588973



--------------------------------------------------------------------------------------------------------


    POTLOK:  cpu time      3.3705: real time      3.3733


--------------------------------------------------------------------------------------------------------


     LOOP+:  cpu time   6711.2873: real time   6715.6656
    4ORBIT:  cpu time      0.0000: real time      0.0000



 total charge

# of ion       s       p       d       tot
------------------------------------------
    1        0.562   0.016   0.000   0.578
    2        0.528   0.014   0.000   0.542
    3        0.403   0.002   0.000   0.406
    4        0.580   0.018   0.000   0.598
    5        0.550   0.018   0.000   0.568
    6        0.549   0.015   0.000   0.564
    7        0.583   0.029   0.000   0.612
    8        0.613   0.035   0.000   0.648
    9        0.398   0.002   0.000   0.401
   10        0.621   0.036   0.000   0.658
   11        0.557   0.017   0.000   0.574
   12        0.617   0.037   0.000   0.654
   13        0.539   0.016   0.000   0.555
   14        0.593   0.019   0.000   0.613
   15        0.607   0.018   0.000   0.625
   16        0.576   0.017   0.000   0.592
   17        0.543   0.014   0.000   0.557
   18        0.584   0.018   0.000   0.603
   19        0.563   0.015   0.000   0.578
   20        0.404   0.002   0.000   0.406
   21        0.622   0.034   0.000   0.656
   22        0.573   0.028   0.000   0.601
   23        0.546   0.016   0.000   0.562
   24        0.793   0.848   0.000   1.641
   25        0.761   0.945   0.000   1.706
   26        0.775   0.817   0.000   1.592
   27        0.785   0.907   0.000   1.692
   28        0.763   0.980   0.000   1.743
   29        0.767   0.937   0.000   1.704
   30        0.793   0.902   0.000   1.695
   31        0.868   0.742   0.000   1.610
   32        0.803   0.836   0.000   1.639
   33        0.761   0.949   0.000   1.710
   34        0.762   0.905   0.000   1.667
   35        0.776   0.904   0.000   1.681
   36        0.841   0.761   0.000   1.602
   37        0.794   0.858   0.000   1.652
   38        0.734   0.920   0.000   1.654
   39        0.759   0.956   0.000   1.715
   40        0.765   0.949   0.000   1.714
   41        0.858   0.728   0.000   1.586
   42        0.752   0.962   0.000   1.715
   43        0.866   0.751   0.000   1.617
   44        0.894   0.669   0.000   1.563
   45        0.765   0.982   0.000   1.748
   46        0.773   0.927   0.000   1.700
   47        0.770   0.930   0.000   1.700
   48        0.777   0.880   0.000   1.657
   49        0.854   0.720   0.000   1.574
   50        0.797   0.869   0.000   1.666
   51        0.774   0.928   0.000   1.702
   52        0.792   0.824   0.000   1.616
   53        0.805   0.801   0.000   1.607
   54        0.775   0.889   0.000   1.664
   55        0.764   0.877   0.000   1.641
   56        0.812   0.780   0.000   1.592
   57        0.757   0.946   0.000   1.703
   58        0.786   0.858   0.000   1.644
   59        0.804   0.831   0.000   1.636
   60        0.768   0.889   0.000   1.657
   61        0.803   0.830   0.000   1.633
   62        0.802   0.856   0.000   1.658
   63        0.762   1.006   0.000   1.768
   64        0.761   0.957   0.000   1.718
   65        0.784   0.880   0.000   1.664
   66        0.849   0.744   0.000   1.593
   67        0.762   0.973   0.000   1.735
   68        0.793   0.868   0.000   1.662
   69        0.768   0.950   0.000   1.718
   70        0.796   0.867   0.000   1.663
   71        0.806   0.827   0.000   1.633
   72        0.838   0.723   0.000   1.561
   73        0.777   0.953   0.000   1.730
   74        0.780   0.917   0.000   1.698
   75        0.801   0.831   0.000   1.632
   76        0.771   0.929   0.000   1.700
   77        0.799   0.825   0.000   1.623
   78        0.850   0.724   0.000   1.574
   79        0.860   0.715   0.000   1.575
   80        0.734   0.976   0.000   1.710
--------------------------------------------------
tot         57.852  49.950   0.000 107.802


 total amount of memory used by VASP MPI-rank0   362994. kBytes
=======================================================================

   base                                    :      30000. kBytes
   nonl-proj                               :      73506. kBytes
   fftplans                                :      98003. kBytes
   grid                                    :      75605. kBytes
   one-center                              :         15. kBytes
   wavefun                                 :      85865. kBytes

  
  
 General timing and accounting informations for this job:
 ========================================================
  
                  Total CPU time used (sec):     6856.479
                            User time (sec):     6056.940
                          System time (sec):      799.540
                         Elapsed time (sec):     6861.206
  
                   Maximum memory used (kb):      613024.
                   Average memory used (kb):          N/A
  
                          Minor page faults:     11131348
                          Major page faults:         1180
                 Voluntary context switches:         2715
