ITEM: TIMESTEP
117662
ITEM: NUMBER OF ATOMS
11000
ITEM: BOX BOUNDS pp pp pp
-7.2044206652328202e-01 5.8641625672699242e+01
-7.2044206652328202e-01 5.8641625672699242e+01
-7.2044206652328202e-01 5.9840758430596949e+01
ITEM: ATOMS id type xs ys zs
1 2 0.836887 0.0414866 0.323885
2 2 0.635761 0.0985729 0.982103
3 2 0.629293 0.226708 0.987501
4 2 0.211506 0.190128 0.242349
5 2 0.233232 0.343018 0.235109
6 2 0.1538 0.276004 0.203393
7 2 0.484421 0.440803 0.0625247
8 2 0.377084 0.229074 0.530344
9 2 0.193442 0.0624179 0.31019
10 2 0.329646 0.0828252 0.595706
11 2 0.327413 0.428568 0.10744
12 2 0.453237 0.172474 0.471077
13 2 0.524868 0.958304 0.215011
14 2 0.356038 0.964074 0.103998
15 2 0.113781 0.339279 0.37385
16 2 0.456959 0.209076 0.0929508
17 2 0.405173 0.10088 0.370247
18 2 0.326668 0.2755 0.711242
19 2 0.370855 0.114448 0.428225
20 2 0.811259 0.540955 0.181036
21 2 0.671993 0.0765305 0.231992
22 2 0.300519 0.320974 0.174215
23 2 0.120283 0.447075 0.708798
24 2 0.340228 0.28932 0.127679
25 2 0.172499 0.466879 0.426825
26 2 0.547121 0.622521 0.489756
27 2 0.612571 0.570813 0.172049
28 2 0.174523 0.346705 0.243958
29 2 0.960271 0.145581 0.375133
30 2 0.329045 0.369691 0.27358
31 2 0.549877 0.149897 0.145779
32 2 0.704628 0.281659 0.764888
33 2 0.496057 0.144817 0.186784
34 2 0.344774 0.467642 0.255716
35 2 0.186733 0.302841 0.507731
36 2 0.997919 0.408194 0.51629
37 2 0.0962916 0.496994 0.447419
38 2 0.042242 0.269553 0.555866
39 2 0.124639 0.215794 0.269594
40 2 0.173384 0.00930264 0.33526
41 2 0.954987 0.320483 0.103763
42 2 0.931831 0.0607787 0.932182
43 2 0.618827 0.322113 0.188716
44 2 0.296094 0.81668 0.454697
45 2 0.918588 0.427597 0.154963
46 2 0.581286 0.0430454 0.522807
47 2 0.41786 0.886285 0.588057
48 2 0.140471 0.0962746 0.927783
49 2 0.562914 0.380774 0.415339
50 2 0.147019 0.218964 0.434466
51 2 0.629092 0.239753 0.783182
52 2 0.223042 0.057088 0.964897
53 2 0.359001 0.130479 0.871556
54 2 0.322727 0.253992 0.397919
55 2 0.130982 0.0877197 0.461274
56 2 0.416912 0.257596 0.200851
57 2 0.977377 0.182405 0.684136
58 2 0.0267413 0.252372 0.391075
59 2 0.427744 0.454517 0.154482
60 2 0.605282 0.196918 0.976459
61 2 0.00310825 0.23464 0.504179
62 2 0.375905 0.231996 0.283364
63 2 0.268519 0.0499432 0.0847148
64 2 0.558078 0.380789 0.171263
65 2 0.294852 0.0269612 0.985909
66 2 0.206667 0.174401 0.602415
67 2 0.131564 0.476278 0.170268
68 2 0.805102 0.343649 0.309518
69 2 0.357901 0.154843 0.210836
70 2 0.621426 0.448583 0.040246
71 2 0.0342527 0.73813 0.240256
72 2 0.990056 0.856105 0.656639
73 2 0.560819 0.900756 0.196421
74 2 0.280485 0.00852349 0.888864
75 2 0.982182 0.509724 0.455321
76 2 0.287427 0.290542 0.195848
77 2 0.332993 0.113535 0.270399
78 2 0.729412 0.0674831 0.340205
79 2 0.055328 0.38784 0.548472
80 2 0.163528 0.355029 0.0925123
81 2 0.0225108 0.679045 0.12898
82 2 0.347474 0.349152 0.900429
83 2 0.158522 0.272939 0.882502
84 2 0.216121 0.456636 0.458766
85 2 0.672837 0.313617 0.201087
86 2 0.414577 0.0172134 0.99564
87 2 0.524794 0.385602 0.223388
88 2 0.242094 0.470682 0.0339009
89 2 0.145449 0.437365 0.309731
90 2 0.882419 0.689749 0.141213
91 2 0.772022 0.153147 0.854813
92 2 0.576387 0.126069 0.712842
93 2 0.282357 0.701242 0.317661
94 2 0.140403 0.24754 0.00965169
95 2 0.311722 0.379853 0.603616
96 2 0.541884 0.289613 0.55656
97 2 0.185624 0.657043 0.521244
98 2 0.334664 0.0807906 0.119956
99 2 0.288727 0.255946 0.655455
100 2 0.419641 0.283057 0.0113399
101 2 0.428141 0.0332889 0.116326
102 2 0.107477 0.139904 0.230474
103 2 0.185172 0.524652 0.372718
104 2 0.0871214 0.55783 0.07734
105 2 0.634447 0.40166 0.161722
106 2 0.35707 0.0377448 0.308779
107 2 0.442555 0.220647 0.352907
108 2 0.262653 0.421429 0.959722
109 2 0.902027 0.21825 0.686545
110 2 0.471978 0.5673 0.109964
111 2 0.369744 0.646596 0.589904
112 2 0.272364 0.220111 0.183678
113 2 0.126848 0.335729 0.599686
114 2 0.292222 0.290564 0.235674
115 2 0.621323 0.951281 0.460979
116 2 0.337453 0.20107 0.159074
117 2 0.464295 0.574626 0.33306
118 2 0.991278 0.327777 0.390809
119 2 0.0148622 0.197744 0.212449
120 2 0.385443 0.222644 0.385434
121 2 0.293269 0.107364 0.349322
122 2 0.137907 0.0827166 0.891267
123 2 0.0315754 0.140615 0.402283
124 2 0.127233 0.189932 0.551463
125 2 0.194315 0.293641 0.155388
126 2 0.306954 0.611625 0.983238
127 2 0.447591 0.240057 0.148103
128 2 0.25617 0.765198 0.411782
129 2 0.431284 0.0850028 0.458557
130 2 0.424541 0.391138 0.463676
131 2 0.126115 0.0192814 0.29857
132 2 0.16731 0.476455 0.0585121
133 2 0.0905678 0.434643 0.575351
134 2 0.952853 0.212666 0.182014
135 2 0.763526 0.184475 0.329329
136 2 0.389945 0.260435 0.000955066
137 2 0.138198 0.451261 0.11172
138 2 0.487856 0.918314 0.183379
139 2 0.355958 0.399538 0.465159
140 2 0.731935 0.22799 0.474089
141 2 0.311125 0.0326761 0.046828
142 2 0.688393 0.300589 0.106044
143 2 0.299956 0.979687 0.0337127
144 2 0.939396 0.690855 0.176563
145 2 0.077302 0.397396 0.712363
146 2 0.434737 0.453006 0.480644
147 2 0.218407 0.367733 0.290386
148 2 0.170006 0.00907584 0.947149
149 2 0.208696 0.427583 0.400519
150 2 0.4901 0.193887 0.592185
151 2 0.3403 0.230858 0.984034
152 2 0.780186 0.478405 0.964727
153 2 0.208565 0.368601 0.252161
154 2 0.657906 0.92559 0.321715
155 2 0.616839 0.130105 0.289969
156 2 0.0089071 0.00788414 0.419225
157 2 0.590748 0.793409 0.349835
158 2 0.184515 0.102111 0.209265
159 2 0.426315 0.0837732 0.523543
160 2 0.151326 0.996709 0.212589
161 2 0.518563 0.00310537 0.528715
162 2 0.0880095 0.67229 0.435277
163 2 0.681242 0.921165 0.436132
164 2 0.164645 0.404552 0.443197
165 2 0.890852 0.331396 0.84866
166 2 0.102416 0.47792 0.30754
167 2 0.842024 0.95496 0.489251
168 2 0.239183 0.227845 0.319389
169 2 0.237328 0.979973 0.139002
170 2 0.937128 0.715411 0.207037
171 2 0.100325 0.409684 0.8025
172 2 0.2378 0.419315 0.505239
173 2 0.417877 0.387085 0.533228
174 2 0.181977 0.109164 0.443201
175 2 0.283714 0.724836 0.0742987
176 2 0.0741369 0.450865 0.315168
177 2 0.328362 0.843674 0.513076
178 2 0.222793 0.43588 0.0427298
179 2 0.605215 0.301785 0.853613
180 2 0.0940022 0.0237913 0.106861
181 2 0.611301 0.303584 0.371455
182 2 0.975607 0.834026 0.183686
183 2 0.0491296 0.318287 0.645611
184 2 0.203458 0.183643 0.335184
185 2 0.211332 0.287213 0.452548
186 2 0.119251 0.555176 0.515087
187 2 0.860821 0.50751 0.905543
188 2 0.179481 0.969777 0.22136
189 2 0.400023 0.932692 0.447885
190 2 0.994018 0.74009 0.583486
191 2 0.222445 0.240988 0.216932
192 2 0.86773 0.0472784 0.522216
193 2 0.437863 0.00355167 0.0922984
194 2 0.0998945 0.456685 0.368029
195 2 0.602743 0.469241 0.773956
196 2 0.87849 0.432936 0.321831
197 2 0.841745 0.176016 0.858239
198 2 0.206531 0.55675 0.0271384
199 2 0.147415 0.247224 0.494482
200 2 0.231189 0.313833 0.261854
201 2 0.291978 0.0598416 0.964555
202 2 0.192535 0.95364 0.582312
203 2 0.429316 0.580028 0.0706309
204 2 0.414666 0.13442 0.500142
205 2 0.976031 0.532647 0.147484
206 2 0.372819 0.184018 0.157284
207 2 0.381362 0.367013 0.182039
208 2 0.271845 0.704263 0.221087
209 2 0.105401 0.235619 0.327249
210 2 0.784846 0.976106 0.77486
211 2 0.2739 0.464452 0.104141
212 2 0.29539 0.348461 0.266057
213 2 0.356016 0.140327 0.681024
214 2 0.0321595 0.0558435 0.449447
215 2 0.484574 0.186179 0.146147
216 2 0.368893 0.314092 0.0666686
217 2 0.0312178 0.520117 0.170674
218 2 0.226971 0.302321 0.918552
219 2 0.993538 0.00249085 0.257403
220 2 0.446978 0.127313 0.27184
221 2 0.239994 0.0134861 0.118883
222 2 0.0625428 0.800769 0.321337
223 2 0.416118 0.326118 0.559367
224 2 0.228652 0.197883 0.420408
225 2 0.145308 0.427256 0.23244
226 2 0.102445 0.797306 0.203322
227 2 0.300123 0.350836 0.122538
228 2 0.922431 0.880862 0.370666
229 2 0.475926 0.10942 0.324909
230 2 0.246559 0.165492 0.906569
231 2 0.144928 0.8017 0.247346
232 2 0.690073 0.471027 0.194386
233 2 0.166899 0.309084 0.257913
234 2 0.569343 0.334888 0.226449
235 2 0.396835 0.344648 0.214989
236 2 0.463171 0.916959 0.952729
237 2 0.376811 0.0379614 0.746233
238 2 0.904756 0.22168 0.376672
239 2 0.160426 0.517409 0.83476
240 2 0.561615 0.014348 0.684236
241 2 0.0887637 0.447302 0.814321
242 2 0.480985 0.851272 0.248591
243 2 0.273046 0.454748 0.942124
244 2 0.0592557 0.456081 0.687446
245 2 0.364794 0.830607 0.0327598
246 2 0.672078 0.63633 0.170253
247 2 0.0690178 0.453438 0.121597
248 2 0.0911246 0.428018 0.342525
249 2 0.673583 0.141493 0.387452
250 2 0.471724 0.293057 0.13864
251 2 0.214285 0.607076 0.15528
252 2 0.413323 0.167996 0.3787
253 2 0.0256188 0.174693 0.64599
254 2 0.540275 0.819952 0.841426
255 2 0.752761 0.877653 0.250164
256 2 0.219693 0.079338 0.487866
257 2 0.674531 0.634112 0.430588
258 2 0.980683 0.357676 0.340461
259 2 0.37475 0.285361 0.241817
260 2 0.427534 0.523256 0.217119
261 2 0.98697 0.240858 0.144174
262 2 0.690681 0.969068 0.365803
263 2 0.33593 0.310503 0.159243
264 2 0.282034 0.378014 0.208199
265 2 0.429294 0.0319168 0.24371
266 2 0.248342 0.258029 0.438652
267 2 0.337798 0.193662 0.032792
268 2 0.0235652 0.306493 0.0346431
269 2 0.172668 0.404804 0.742632
270 2 0.726401 0.253102 0.100282
271 2 0.376569 0.844343 0.109849
272 2 0.62179 0.0547531 0.272263
273 2 0.0820725 0.322522 0.357792
274 2 0.399324 0.139552 0.438316
275 2 0.518001 0.791793 0.957518
276 2 0.247478 0.987934 0.880064
277 2 0.333 0.522081 0.486056
278 2 0.0753822 0.214103 0.556911
279 2 0.0916319 0.118815 0.403697
280 2 0.550504 0.378199 0.0107022
281 2 0.18584 0.333678 0.481234
282 2 0.174466 0.285727 0.808105
283 2 0.0564301 0.207397 0.447159
284 2 0.305849 0.132141 0.247922
285 2 0.108426 0.0523977 0.211505
286 2 0.0203293 0.380346 0.146053
287 2 0.13106 0.125969 0.407086
288 2 0.324761 0.228325 0.134791
289 2 0.255433 0.23284 0.496632
290 2 0.982438 0.578443 0.589808
291 2 0.673815 0.224418 0.835393
292 2 0.391038 0.163592 0.266609
293 2 0.2237 0.310271 0.395259
294 2 0.0612488 0.670852 0.999317
295 2 0.0410116 0.462196 0.495392
296 2 0.245668 0.670967 0.0896474
297 2 0.511133 0.637577 0.125295
298 2 0.278563 0.334924 0.298798
299 2 0.380547 0.0455194 0.609255
300 2 0.16625 0.317246 0.655268
301 2 0.2623 0.227033 0.0804271
302 2 0.522974 0.195996 0.821927
303 2 0.70798 0.977805 0.820888
304 2 0.273907 0.538301 0.933162
305 2 0.732024 0.273768 0.285127
306 2 0.400532 0.824214 0.132546
307 2 0.587808 0.00211944 0.387039
308 2 0.58169 0.255717 0.238328
309 2 0.0306202 0.417614 0.378131
310 2 0.15518 0.500175 0.614841
311 2 0.245758 0.39588 0.298037
312 2 0.554438 0.871762 0.509163
313 2 0.453396 0.98515 0.0343338
314 2 0.737144 0.23217 0.817689
315 2 0.0387376 0.58295 0.338874
316 2 0.832629 0.46323 0.405832
317 2 0.302438 0.768921 0.0404209
318 2 0.290054 0.418974 0.259821
319 2 0.862444 0.318104 0.871887
320 2 0.249655 0.92733 0.608768
321 2 0.0215833 0.332257 0.530228
322 2 0.46369 0.125574 0.115765
323 2 0.200832 0.444712 0.823844
324 2 0.169145 0.159679 0.217833
325 2 0.158902 0.31721 0.457215
326 2 0.224736 0.93215 0.211628
327 2 0.59816 0.292868 0.95503
328 2 0.379535 0.958375 0.991404
329 2 0.968109 0.0482954 0.345962
330 2 0.0257935 0.596647 0.178843
331 2 0.627529 0.521806 0.0579284
332 2 0.0343698 0.371547 0.0434323
333 2 0.922335 0.837287 0.4525
334 2 0.0262883 0.368117 0.425754
335 2 0.164416 0.24484 0.459501
336 2 0.786646 0.0230611 0.711447
337 2 0.246206 0.748998 0.318561
338 2 0.532658 0.545728 0.915275
339 2 0.395393 0.0723555 0.20526
340 2 0.242331 0.964945 0.787388
341 2 0.38462 0.533553 0.965889
342 2 0.327994 0.143477 0.139414
343 2 0.535836 0.299349 0.34751
344 2 0.119267 0.000272279 0.235725
345 2 0.22545 0.379103 0.077386
346 2 0.154028 0.400506 0.259573
347 2 0.363509 0.269843 0.352444
348 2 0.0415666 0.449014 0.532246
349 2 0.521181 0.867373 0.782511
350 2 0.00351681 0.478525 0.0468485
351 2 0.995857 0.0448626 0.655622
352 2 0.320341 0.00396933 0.265979
353 2 0.412008 0.240196 0.164822
354 2 0.76288 0.23042 0.153081
355 2 0.155954 0.9854 0.00866079
356 2 0.176258 0.513459 0.18567
357 2 0.572248 0.169674 0.268426
358 2 0.0431413 0.492739 0.266771
359 2 0.775881 0.232371 0.437184
360 2 0.210387 0.221195 0.0302381
361 2 0.406599 0.957276 0.417269
362 2 0.319994 0.361692 0.569424
363 2 0.458428 0.314262 0.890838
364 2 0.360066 0.184587 0.0621987
365 2 0.18506 0.228322 0.967077
366 2 0.360861 0.254579 0.38898
367 2 0.357298 0.0450836 0.242512
368 2 0.107391 0.529937 0.142605
369 2 0.462575 0.461055 0.866813
370 2 0.0698734 0.387288 0.461479
371 2 0.0543648 0.363172 0.399357
372 2 0.369514 0.374755 0.329838
373 2 0.513704 0.408373 0.326967
374 2 0.972848 0.302843 0.500001
375 2 0.299186 0.55728 0.569655
376 2 0.956035 0.383134 0.11602
377 2 0.970917 0.50106 0.125775
378 2 0.322357 0.234961 0.500605
379 2 0.157524 0.541747 0.526633
380 2 0.0997989 0.600587 0.282889
381 2 0.315218 0.330521 0.946109
382 2 0.346849 0.918896 0.532368
383 2 0.474268 0.175416 0.0745375
384 2 0.155772 0.0848937 0.69213
385 2 0.274255 0.435979 0.381051
386 2 0.669396 0.329151 0.164407
387 2 0.359943 0.282062 0.455405
388 2 0.294545 0.414309 0.221486
389 2 0.382391 0.188508 0.362949
390 2 0.44851 0.0282809 0.676789
391 2 0.134068 0.333857 0.539459
392 2 0.363682 0.810071 0.8095
393 2 0.327614 0.793657 0.252213
394 2 0.423631 0.124166 0.886366
395 2 0.443348 0.380752 0.0389874
396 2 0.0761492 0.102675 0.493389
397 2 0.733643 0.574187 0.300535
398 2 0.993061 0.648584 0.811938
399 2 0.150648 0.441944 0.44871
400 2 0.328604 0.254308 0.0122395
401 2 0.175914 0.99613 0.148335
402 2 0.271662 0.608928 0.250149
403 2 0.455287 0.0174826 0.613454
404 2 0.464846 0.500814 0.272423
405 2 0.137825 0.14759 0.122813
406 2 0.051223 0.0956064 0.273058
407 2 0.464063 0.891058 0.0264398
408 2 0.917926 0.524723 0.17167
409 2 0.390781 0.247594 0.131534
410 2 0.0098432 0.375201 0.676275
411 2 0.765715 0.300375 0.932793
412 2 0.501256 0.758998 0.174245
413 2 0.166003 0.921099 0.0189171
414 2 0.841737 0.200864 0.377402
415 2 0.158416 0.307433 0.297179
416 2 0.181953 0.0473744 0.247141
417 2 0.382585 0.40198 0.415847
418 2 0.534877 0.349701 0.178205
419 2 0.522131 0.596629 0.18203
420 2 0.0847125 0.367067 0.142803
421 2 0.938514 0.420007 0.729681
422 2 0.241345 0.137064 0.311482
423 2 0.365685 0.298443 0.181818
424 2 0.120818 0.552274 0.0566904
425 2 0.399927 0.0769171 0.339101
426 2 0.321734 0.215056 0.0982866
427 2 0.585446 0.333657 0.789226
428 2 0.185461 0.195282 0.215046
429 2 0.430064 0.203909 0.47975
430 2 0.981319 0.131071 0.269677
431 2 0.367852 0.590767 0.993381
432 2 0.961399 0.0383865 0.402194
433 2 0.539847 0.993474 0.157618
434 2 0.300809 0.9891 0.13287
435 2 0.465998 0.979023 0.192788
436 2 0.164423 0.254641 0.341457
437 2 0.217535 0.881373 0.647641
438 2 0.862109 0.493765 0.0193465
439 2 0.496878 0.0158203 0.246373
440 2 0.385188 0.00169614 0.150318
441 2 0.204052 0.988731 0.246933
442 2 0.0574488 0.01172 0.201212
443 2 0.29497 0.903756 0.22369
444 2 0.801652 0.271744 0.560192
445 2 0.00960688 0.350702 0.10231
446 2 0.993949 0.521998 0.179986
447 2 0.423438 0.0282733 0.387433
448 2 0.416317 0.0493736 0.969566
449 2 0.353053 0.307485 0.347031
450 2 0.0995355 0.81232 0.330704
451 2 0.355439 0.175975 0.411387
452 2 0.0231087 0.498519 0.231772
453 2 0.0922497 0.200157 0.428383
454 2 0.856847 0.24997 0.576487
455 2 0.532365 0.347961 0.216139
456 2 0.717799 0.41867 0.89064
457 2 0.306761 0.254399 0.467593
458 2 0.111098 0.267464 0.0775738
459 2 0.588516 0.278928 0.611189
460 2 0.985676 0.315701 0.906626
461 2 0.885189 0.0835393 0.385827
462 2 0.438276 0.760635 0.0232024
463 2 0.301533 0.237047 0.072869
464 2 0.467437 0.336405 0.177707
465 2 0.11624 0.249222 0.391217
466 2 0.509811 0.0191601 0.161705
467 2 0.891857 0.479907 0.254559
468 2 0.00427442 0.501291 0.104911
469 2 0.442187 0.35446 0.937241
470 2 0.258299 0.286482 0.255355
471 2 0.482837 0.477778 0.327907
472 2 0.259683 0.196051 0.47976
473 2 0.0520078 0.196106 0.115995
474 2 0.238833 0.649522 0.413832
475 2 0.318952 0.147423 0.100159
476 2 0.0715573 0.0955698 0.56152
477 2 0.464415 0.344029 0.21588
478 2 0.469571 0.939438 0.243525
479 2 0.131717 0.308754 0.482873
480 2 0.345072 0.562163 0.13524
481 2 0.320313 0.143644 0.213977
482 2 0.344599 0.272385 0.263252
483 2 0.368763 0.384581 0.0440465
484 2 0.0807235 0.284627 0.349638
485 2 0.782053 0.547255 0.0110004
486 2 0.607562 0.879857 0.149738
487 2 0.253696 0.266213 0.0357406
488 2 0.134042 0.375466 0.489985
489 2 0.589198 0.173269 0.328378
490 2 0.34043 0.369795 0.172865
491 2 0.288994 0.373546 0.432577
492 2 0.0870892 0.318904 0.438259
493 2 0.121497 0.290543 0.868333
494 2 0.966963 0.165919 0.408226
495 2 0.333189 0.291415 0.582494
496 2 0.761822 0.557964 0.222644
497 2 0.277431 0.382451 0.120924
498 2 0.71558 0.981155 0.224001
499 2 0.917313 0.0252837 0.0973251
500 2 0.205392 0.595926 0.781896
501 2 0.280271 0.287723 0.0543334
502 2 0.280584 0.313465 0.411865
503 2 0.291154 0.376191 0.546672
504 2 0.735348 0.0750174 0.0594621
505 2 0.0692876 0.23731 0.232322
506 2 0.591899 0.369224 0.127713
507 2 0.46573 0.877211 0.128576
508 2 0.262998 0.19547 0.312982
509 2 0.671203 0.704358 0.23552
510 2 0.190974 0.133042 0.496865
511 2 0.0905359 0.282767 0.893992
512 2 0.509045 0.162223 0.0919278
513 2 0.0148406 0.0607038 0.575916
514 2 0.125357 0.203379 0.231591
515 2 0.903339 0.877778 0.0975951
516 2 0.425489 0.381711 0.382431
517 2 0.426792 0.261098 0.285056
518 2 0.528329 0.991744 0.237215
519 2 0.886386 0.649516 0.143384
520 2 0.184576 0.375357 0.309217
521 2 0.0923506 0.0830207 0.464447
522 2 0.0526282 0.301124 0.0606542
523 2 0.979965 0.260115 0.11003
524 2 0.283014 0.440398 0.792365
525 2 0.231117 0.842793 0.6461
526 2 0.202331 0.465412 0.244913
527 2 0.63068 0.107836 0.474703
528 2 0.240184 0.54014 0.876816
529 2 0.604558 0.364218 0.352258
530 2 0.511837 0.0399019 0.128632
531 2 0.125746 0.453642 0.396504
532 2 0.700957 0.646773 0.290703
533 2 0.395338 0.542014 0.365127
534 2 0.516449 0.209109 0.154427
535 2 0.281237 0.0942064 0.289063
536 2 0.143294 0.731727 0.526417
537 2 0.41866 0.430417 0.333888
538 2 0.968277 0.557532 0.935586
539 2 0.139276 0.5523 0.443849
540 2 0.251164 0.506352 0.28917
541 2 0.948844 0.416349 0.461659
542 2 0.345935 0.403692 0.427822
543 2 0.133264 0.140471 0.787515
544 2 0.0246241 0.399522 0.240198
545 2 0.589232 0.138131 0.347137
546 2 0.329151 0.883778 0.934889
547 2 0.50447 0.256006 0.29516
548 2 0.253552 0.279918 0.176533
549 2 0.189015 0.496597 0.266165
550 2 0.372679 0.941247 0.180506
551 2 0.642439 0.918199 0.391335
552 2 0.24045 0.328879 0.585669
553 2 0.617302 0.313696 0.907302
554 2 0.173182 0.281205 0.443987
555 2 0.136855 0.221609 0.12417
556 2 0.245206 0.555235 0.726411
557 2 0.441499 0.568823 0.0109096
558 2 0.203483 0.489177 0.370079
559 2 0.374193 0.369514 0.485946
560 2 0.260874 0.262974 0.952067
561 2 0.0736252 0.660466 0.291161
562 2 0.441812 0.113983 0.147696
563 2 0.56715 0.200447 0.200027
564 2 0.484992 0.977571 0.0579331
565 2 0.689664 0.183099 0.0668024
566 2 0.264706 0.999743 0.296311
567 2 0.0120986 0.149802 0.0564145
568 2 0.967062 0.863812 0.0772641
569 2 0.463797 0.523993 0.202692
570 2 0.299444 0.428788 0.163202
571 2 0.121862 0.379346 0.136158
572 2 0.22901 0.416329 0.204087
573 2 0.097051 0.014266 0.206293
574 2 0.540798 0.00120736 0.0925957
575 2 0.312082 0.25713 0.247693
576 2 0.607899 0.494481 0.577797
577 2 0.252 0.294059 0.493098
578 2 0.200539 0.289057 0.255774
579 2 0.269627 0.540945 0.491537
580 2 0.568184 0.109252 0.524303
581 2 0.967285 0.232997 0.417448
582 2 0.22085 0.56208 0.290056
583 2 0.366296 0.00485208 0.385662
584 2 0.427086 0.293978 0.189943
585 2 0.402333 0.0177932 0.0348405
586 2 0.000117575 0.189026 0.944397
587 2 0.0922975 0.576764 0.576391
588 2 0.0381007 0.332081 0.308882
589 2 0.78511 0.364883 0.117095
590 2 0.0432277 0.501216 0.488563
591 2 0.476309 0.159003 0.500272
592 2 0.0758626 0.834099 0.108643
593 2 0.81749 0.332227 0.547974
594 2 0.252791 0.0705671 0.300335
595 2 0.621724 0.666403 0.239909
596 2 0.359218 0.133141 0.491362
597 2 0.427947 0.0917629 0.211994
598 2 0.248039 0.66137 0.501631
599 2 0.281487 0.988899 0.489236
600 2 0.127817 0.199634 0.701983
601 2 0.152678 0.316509 0.986107
602 2 0.0675253 0.902691 0.588219
603 2 0.254982 0.395339 0.478002
604 2 0.415991 0.526859 0.311789
605 2 0.192283 0.082778 0.414538
606 2 0.435423 0.491909 0.538563
607 2 0.112579 0.146323 0.0681595
608 2 0.313715 0.0261177 0.137283
609 2 0.135797 0.382649 0.0999481
610 2 0.204895 0.472856 0.145583
611 2 0.449388 0.395317 0.174322
612 2 0.34411 0.968849 0.171975
613 2 0.563025 0.277482 0.082565
614 2 0.123295 0.116263 0.14032
615 2 0.391884 0.784294 0.90333
616 2 0.391773 0.178558 0.326719
617 2 0.77187 0.70222 0.425853
618 2 0.890612 0.0847112 0.584167
619 2 0.120545 0.325273 0.11949
620 2 0.540198 0.180932 0.964628
621 2 0.291427 0.936939 0.315927
622 2 0.25589 0.583513 0.225246
623 2 0.416914 0.970092 0.0974786
624 2 0.0799869 0.0370717 0.958709
625 2 0.420605 0.221684 0.0809111
626 2 0.717133 0.198494 0.0895813
627 2 0.0144738 0.967832 0.312177
628 2 0.643037 0.187963 0.357512
629 2 0.398395 0.655207 0.290702
630 2 0.408086 0.141393 0.322064
631 2 0.251538 0.376177 0.0192273
632 2 0.305772 0.913993 0.413287
633 2 0.126995 0.671505 0.110293
634 2 0.0756295 0.44709 0.484559
635 2 0.304103 0.556065 0.683203
636 2 0.273817 0.38537 0.947759
637 2 0.477653 0.102065 0.922258
638 2 0.423724 0.939447 0.383872
639 2 0.463617 0.0446861 0.0549066
640 2 0.302686 0.765956 0.239295
641 2 0.307753 0.955309 0.347167
642 2 0.806037 0.124346 0.482063
643 2 0.802816 0.447559 0.280222
644 2 0.0359045 0.164228 0.535505
645 2 0.385182 0.959969 0.324328
646 2 0.663256 0.227282 0.540255
647 2 0.167755 0.672384 0.330151
648 2 0.290464 0.328064 0.914923
649 2 0.834796 0.119504 0.166915
650 2 0.289655 0.446147 0.853288
651 2 0.359757 0.0777334 0.220925
652 2 0.513803 0.49641 0.950672
653 2 0.615483 0.308532 0.456531
654 2 0.0159755 0.428646 0.638676
655 2 0.937114 0.505191 0.105715
656 2 0.368041 0.367327 0.841735
657 2 0.977636 0.128572 0.639454
658 2 0.237952 0.126932 0.378019
659 2 0.241473 0.803183 0.420602
660 2 0.771309 0.379617 0.478327
661 2 0.525687 0.775278 0.355403
662 2 0.00966597 0.907738 0.551904
663 2 0.0506725 0.0619124 0.623968
664 2 0.2125 0.715963 0.416178
665 2 0.270286 0.126864 0.816975
666 2 0.378225 0.329371 0.98146
667 2 0.574345 0.145335 0.462299
668 2 0.517021 0.937981 0.991908
669 2 0.94525 0.549899 0.622759
670 2 0.916767 0.386615 0.678698
671 2 0.778617 0.986851 0.255072
672 2 0.279815 0.531282 0.455147
673 2 0.219482 0.320842 0.0495761
674 2 0.238504 0.152098 0.275384
675 2 0.304927 0.217659 0.977141
676 2 0.318214 0.029944 0.726881
677 2 0.0439948 0.118692 0.744137
678 2 0.466959 0.463353 0.153562
679 2 0.0516294 0.959157 0.323837
680 2 0.208199 0.483145 0.874066
681 2 0.361953 0.208308 0.00637563
682 2 0.327408 0.983239 0.00554934
683 2 0.0422934 0.232237 0.506519
684 2 0.764654 0.40117 0.379033
685 2 0.299713 0.588237 0.266395
686 2 0.280311 0.765258 0.073157
687 2 0.524475 0.201701 0.345106
688 2 0.133687 0.459197 0.00700222
689 2 0.432878 0.21912 0.911804
690 2 0.305841 0.884197 0.472009
691 2 0.139148 0.361966 0.252525
692 2 0.18667 0.189048 0.971411
693 2 0.906626 0.162955 0.220402
694 2 0.136661 0.525714 0.287468
695 2 0.820846 0.9565 0.298237
696 2 0.0765149 0.232563 0.023756
697 2 0.276642 0.53273 0.0918294
698 2 0.491801 0.152193 0.125616
699 2 0.357507 0.279894 0.0148484
700 2 0.0461502 0.000138878 0.562059
701 2 0.506925 0.410518 0.19872
702 2 0.213934 0.77559 0.874814
703 2 0.117357 0.340723 0.198676
704 2 0.453935 0.138994 0.235408
705 2 0.262157 0.931861 0.159852
706 2 0.976452 0.565712 0.34948
707 2 0.111389 0.385496 0.0695617
708 2 0.355952 0.485868 0.356571
709 2 0.335582 0.357764 0.13681
710 2 0.300526 0.18878 0.324971
711 2 0.727411 0.711763 0.545493
712 2 0.0349636 0.516883 0.52505
713 2 0.12758 0.611005 0.981017
714 2 0.486921 0.187753 0.810386
715 2 0.318247 0.172148 0.447929
716 2 0.40068 0.264782 0.340256
717 2 0.298389 0.715744 0.15008
718 2 0.0265151 0.387081 0.808872
719 2 0.463473 0.255433 0.0523939
720 2 0.534037 0.600431 0.985905
721 2 0.703778 0.144171 0.797984
722 2 0.294287 0.23273 0.27334
723 2 0.238818 0.461671 0.162784
724 2 0.00291501 0.393591 0.0503134
725 2 0.286165 0.656959 0.770891
726 2 0.923191 0.2133 0.538946
727 2 0.115052 0.436484 0.432232
728 2 0.156572 0.416992 0.100946
729 2 0.32975 0.301705 0.28339
730 2 0.104162 0.287531 0.0452888
731 2 0.231942 0.326678 0.54702
732 2 0.369134 0.710935 0.407178
733 2 0.436926 0.215945 0.515776
734 2 0.563298 0.451319 0.942115
735 2 0.154562 0.16777 0.15182
736 2 0.0840145 0.457909 0.234451
737 2 0.662502 0.0607236 0.849287
738 2 0.622369 0.201042 0.284096
739 2 0.276119 0.0849029 0.206794
740 2 0.12232 0.564551 0.932346
741 2 0.0736877 0.418422 0.965346
742 2 0.0208508 0.265015 0.108773
743 2 0.332975 0.56191 0.063268
744 2 0.150226 0.846592 0.410588
745 2 0.992582 0.161025 0.358541
746 2 0.33323 0.186717 0.255473
747 2 0.055153 0.392882 0.134039
748 2 0.0933819 0.196667 0.496379
749 2 0.0620074 0.391124 0.021905
750 2 0.549025 0.326168 0.373827
751 2 0.58756 0.127593 0.408716
752 2 0.236815 0.0657071 0.59596
753 2 0.305181 0.477943 0.2019
754 2 0.179396 0.80984 0.629953
755 2 0.650986 0.0169831 0.460027
756 2 0.10457 0.268149 0.718343
757 2 0.85103 0.280304 0.524616
758 2 0.404618 0.283682 0.939563
759 2 0.40373 0.24062 0.309387
760 2 0.357896 0.412541 0.333171
761 2 0.00397798 0.679997 0.35551
762 2 0.207626 0.431531 0.786055
763 2 0.389736 0.0869999 0.839658
764 2 0.517434 0.481808 0.0278744
765 2 0.253142 0.163576 0.369732
766 2 0.821776 0.1882 0.965835
767 2 0.739304 0.466859 0.275452
768 2 0.292109 0.787667 0.595415
769 2 0.821369 0.22641 0.520811
770 2 0.911822 0.254947 0.0391646
771 2 0.202333 0.168023 0.272307
772 2 0.112236 0.426908 0.0153578
773 2 0.147597 0.355343 0.981637
774 2 0.0756038 0.320645 0.26314
775 2 0.0400595 0.467581 0.720559
776 2 0.567935 0.0387383 0.951158
777 2 0.088176 0.0436966 0.470859
778 2 0.805826 0.430811 0.483966
779 2 0.129731 0.281068 0.149025
780 2 0.134142 0.498653 0.737675
781 2 0.953081 0.634377 0.534809
782 2 0.927251 0.401537 0.49035
783 2 0.505389 0.0495907 0.227295
784 2 0.472582 0.169971 0.318786
785 2 0.641602 0.32933 0.0667203
786 2 0.451995 0.319632 0.282738
787 2 0.974312 0.400702 0.200395
788 2 0.20193 0.594891 0.543954
789 2 0.290019 0.899105 0.0738958
790 2 0.353912 0.941758 0.964604
791 2 0.50704 0.433307 0.893817
792 2 0.369863 0.58008 0.161637
793 2 0.993151 0.955615 0.846627
794 2 0.441996 0.35999 0.157687
795 2 0.435584 0.421395 0.545506
796 2 0.860793 0.171607 0.557344
797 2 0.984216 0.444362 0.525254
798 2 0.109542 0.308796 0.220552
799 2 0.193896 0.137997 0.196849
800 2 0.133345 0.200509 0.091569
801 2 0.214904 0.22679 0.28777
802 2 0.417862 0.403785 0.304573
803 2 0.268832 0.188522 0.0714429
804 2 0.981534 0.336903 0.0792375
805 2 0.575647 0.369251 0.846327
806 2 0.482095 0.554303 0.868333
807 2 0.287142 0.216147 0.0128689
808 2 0.0551836 0.326304 0.386125
809 2 0.971788 0.149237 0.167356
810 2 0.200892 0.145825 0.731425
811 2 0.184541 0.645425 0.280673
812 2 0.237218 0.124807 0.137035
813 2 0.415392 0.243037 0.369808
814 2 0.222202 0.415127 0.366179
815 2 0.165703 0.214705 0.399845
816 2 0.444728 0.442209 0.0726756
817 2 0.211145 0.307199 0.604676
818 2 0.307903 0.629049 0.0705088
819 2 0.0354873 0.125119 0.179558
820 2 0.142388 0.314836 0.761147
821 2 0.623685 0.291422 0.335892
822 2 0.395567 0.114732 0.0499484
823 2 0.543224 0.382988 0.0859794
824 2 0.522982 0.469802 0.170364
825 2 0.119914 0.479254 0.342399
826 2 0.983033 0.271927 0.678634
827 2 0.910228 0.625523 0.445644
828 2 0.239813 0.435286 0.29497
829 2 0.852847 0.401843 0.572347
830 2 0.641328 0.120805 0.318437
831 2 0.182847 0.407967 0.284079
832 2 0.434641 0.360825 0.558058
833 2 0.0754661 0.102003 0.100202
834 2 0.255196 0.0535663 0.904803
835 2 0.117687 0.109404 0.204316
836 2 0.544099 0.0284628 0.576324
837 2 0.606652 0.236546 0.296417
838 2 0.25709 0.123208 0.0123014
839 2 0.874568 0.485929 0.489311
840 2 0.307919 0.332482 0.088666
841 2 0.692919 0.990663 0.0990189
842 2 0.564997 0.428301 0.295813
843 2 0.154195 0.177698 0.606565
844 2 0.889587 0.457735 0.557976
845 2 0.274465 0.449452 0.279586
846 2 0.00734615 0.420396 0.452196
847 2 0.28738 0.042728 0.342367
848 2 0.20859 0.263968 0.0791953
849 2 0.138395 0.120877 0.343697
850 2 0.297563 0.892515 0.988624
851 2 0.294923 0.298669 0.302086
852 2 0.26491 0.449062 0.417055
853 2 0.121799 0.172763 0.586706
854 2 0.420566 0.207122 0.321798
855 2 0.419173 0.212005 0.0431944
856 2 0.248031 0.198442 0.135783
857 2 0.15158 0.0926563 0.190043
858 2 0.924286 0.15282 0.358744
859 2 0.248278 0.511545 0.439708
860 2 0.417379 0.650982 0.465302
861 2 0.347399 0.376308 0.24004
862 2 0.474928 0.860715 0.599561
863 2 0.905298 0.6376 0.348614
864 2 0.855363 0.113884 0.00922706
865 2 0.975248 0.970434 0.646874
866 2 0.579798 0.471053 0.591869
867 2 0.221808 0.211384 0.650942
868 2 0.427416 0.115377 0.952677
869 2 0.0347547 0.143449 0.476925
870 2 0.0323555 0.294231 0.301107
871 2 0.865205 0.417103 0.356882
872 2 0.404654 0.289468 0.26754
873 2 0.645128 0.19205 0.931788
874 2 0.222586 0.377916 0.416217
875 2 0.104013 0.218046 0.145652
876 2 0.0271531 0.0912988 0.634459
877 2 0.112786 0.27475 0.330528
878 2 0.501718 0.374059 0.61522
879 2 0.611508 0.361156 0.0243442
880 2 0.296056 0.406463 0.0978212
881 2 0.349647 0.313169 0.40691
882 2 0.218099 0.0898598 0.297983
883 2 0.266715 0.794385 0.35115
884 2 0.289366 0.389825 0.0201693
885 2 0.239667 0.920851 0.956287
886 2 0.130115 0.437961 0.513359
887 2 0.297594 0.118092 0.152267
888 2 0.229438 0.982125 0.343058
889 2 0.128783 0.183483 0.438581
890 2 0.382461 0.137369 0.23832
891 2 0.373901 0.116419 0.389229
892 2 0.880492 0.0623107 0.658799
893 2 0.055379 0.0840998 0.0240835
894 2 0.359685 0.217227 0.0837723
895 2 0.887751 0.271818 0.292876
896 2 0.341958 0.341323 0.433234
897 2 0.890684 0.393268 0.480498
898 2 0.941234 0.0192962 0.35204
899 2 0.386859 0.106591 0.316021
900 2 0.992198 0.224027 0.342263
901 2 0.28424 0.603008 0.385701
902 2 0.443118 0.676617 0.480631
903 2 0.319702 0.452714 0.13741