ITEM: TIMESTEP
153267
ITEM: NUMBER OF ATOMS
11000
ITEM: BOX BOUNDS pp pp pp
-7.2044206652328202e-01 5.8641625672699242e+01
-7.2044206652328202e-01 5.8641625672699242e+01
-7.2044206652328202e-01 6.4231713615426770e+01
ITEM: ATOMS id type xs ys zs
1 2 0.836762 0.0416304 0.323342
2 2 0.636563 0.096813 0.981267
3 2 0.629547 0.226405 0.987941
4 2 0.210572 0.190001 0.24261
5 2 0.233627 0.341822 0.23616
6 2 0.152738 0.275777 0.204111
7 2 0.484775 0.441448 0.0625668
8 2 0.377322 0.229768 0.529858
9 2 0.194523 0.0614887 0.312274
10 2 0.330322 0.0824901 0.595124
11 2 0.325661 0.428733 0.109735
12 2 0.454817 0.172879 0.47199
13 2 0.524848 0.959149 0.21517
14 2 0.355636 0.963859 0.103403
15 2 0.11398 0.33938 0.374234
16 2 0.456424 0.209108 0.0937039
17 2 0.405931 0.101088 0.371956
18 2 0.325746 0.275156 0.712625
19 2 0.37123 0.115535 0.42818
20 2 0.809796 0.542076 0.178153
21 2 0.671644 0.0769861 0.231131
22 2 0.299237 0.32019 0.174079
23 2 0.119936 0.447464 0.707629
24 2 0.338925 0.289611 0.127947
25 2 0.172215 0.466322 0.426658
26 2 0.546665 0.622994 0.488992
27 2 0.612986 0.570569 0.17099
28 2 0.173906 0.346324 0.243406
29 2 0.959672 0.145822 0.37539
30 2 0.329606 0.368904 0.274419
31 2 0.546373 0.153315 0.152741
32 2 0.704915 0.279516 0.761021
33 2 0.496206 0.144154 0.186549
34 2 0.344448 0.466676 0.257327
35 2 0.186387 0.303818 0.508042
36 2 0.998208 0.40777 0.517578
37 2 0.0954002 0.496969 0.447169
38 2 0.0417395 0.269233 0.556192
39 2 0.124764 0.215166 0.269173
40 2 0.175172 0.0085712 0.335866
41 2 0.955418 0.320663 0.104652
42 2 0.932029 0.0615629 0.93202
43 2 0.618918 0.322327 0.18779
44 2 0.295626 0.816029 0.453508
45 2 0.918995 0.426493 0.155323
46 2 0.581303 0.0428448 0.524092
47 2 0.417626 0.886222 0.587549
48 2 0.139478 0.0962623 0.926509
49 2 0.561807 0.380271 0.415406
50 2 0.146905 0.219155 0.43412
51 2 0.629942 0.240384 0.783268
52 2 0.221656 0.0560242 0.965114
53 2 0.359819 0.129975 0.871668
54 2 0.324064 0.253221 0.397925
55 2 0.130721 0.087624 0.461159
56 2 0.41667 0.256759 0.201523
57 2 0.977304 0.1828 0.683423
58 2 0.026689 0.252535 0.390877
59 2 0.425006 0.462432 0.149503
60 2 0.606225 0.196126 0.9756
61 2 0.00187634 0.234171 0.504951
62 2 0.37691 0.231538 0.282594
63 2 0.268794 0.0499771 0.0830857
64 2 0.558589 0.380703 0.170632
65 2 0.29365 0.0263207 0.986031
66 2 0.20708 0.174683 0.601909
67 2 0.132214 0.475907 0.17243
68 2 0.804833 0.343741 0.309848
69 2 0.357849 0.154777 0.211725
70 2 0.621697 0.448706 0.0394171
71 2 0.0336469 0.739026 0.239895
72 2 0.989124 0.854079 0.656621
73 2 0.561279 0.90068 0.197342
74 2 0.280271 0.00922169 0.886866
75 2 0.981783 0.507662 0.456388
76 2 0.286382 0.28965 0.19623
77 2 0.33383 0.113588 0.272427
78 2 0.729552 0.0678795 0.340968
79 2 0.0555071 0.3878 0.548994
80 2 0.16285 0.35451 0.0946331
81 2 0.0228225 0.678463 0.129276
82 2 0.347291 0.348782 0.89933
83 2 0.158573 0.272497 0.883571
84 2 0.215643 0.457504 0.459033
85 2 0.672714 0.314305 0.201026
86 2 0.41436 0.0167964 0.994675
87 2 0.523948 0.386422 0.221754
88 2 0.241628 0.470234 0.0333514
89 2 0.145971 0.437294 0.311393
90 2 0.883451 0.688754 0.141537
91 2 0.772683 0.153632 0.85482
92 2 0.57623 0.125969 0.712686
93 2 0.282786 0.701489 0.316878
94 2 0.140184 0.246779 0.00924362
95 2 0.312215 0.380504 0.603411
96 2 0.541724 0.290237 0.557707
97 2 0.186743 0.656894 0.519334
98 2 0.333257 0.0813302 0.115605
99 2 0.288441 0.257745 0.652635
100 2 0.419983 0.283229 0.0120892
101 2 0.427656 0.0327599 0.115903
102 2 0.107796 0.140715 0.229822
103 2 0.185189 0.524678 0.371333
104 2 0.0868035 0.556005 0.0750581
105 2 0.634149 0.400989 0.160798
106 2 0.357782 0.0378559 0.312209
107 2 0.442956 0.220278 0.352805
108 2 0.262514 0.422177 0.959508
109 2 0.9012 0.218479 0.68599
110 2 0.470909 0.567159 0.111654
111 2 0.36889 0.646846 0.5899
112 2 0.271894 0.219875 0.183084
113 2 0.12685 0.336234 0.598611
114 2 0.291585 0.289698 0.236317
115 2 0.620841 0.95149 0.461135
116 2 0.336896 0.200413 0.15826
117 2 0.465316 0.575592 0.33422
118 2 0.991076 0.327132 0.391027
119 2 0.0149891 0.197865 0.21408
120 2 0.386921 0.222839 0.38625
121 2 0.293516 0.107662 0.350907
122 2 0.136598 0.0839845 0.890538
123 2 0.0311591 0.140744 0.401708
124 2 0.127069 0.18955 0.551798
125 2 0.192704 0.293017 0.158871
126 2 0.306302 0.610308 0.984537
127 2 0.447137 0.240887 0.147148
128 2 0.256125 0.765107 0.40874
129 2 0.431964 0.0853009 0.458406
130 2 0.424163 0.391167 0.462675
131 2 0.127479 0.0190822 0.299286
132 2 0.167376 0.476097 0.0584343
133 2 0.0901556 0.434915 0.575146
134 2 0.952295 0.214212 0.182613
135 2 0.763276 0.184727 0.331204
136 2 0.389911 0.26067 0.00203221
137 2 0.137733 0.451568 0.111565
138 2 0.487504 0.918977 0.185355
139 2 0.355205 0.399788 0.464577
140 2 0.732569 0.22783 0.475628
141 2 0.311139 0.0326947 0.0453318
142 2 0.686266 0.299767 0.111336
143 2 0.299887 0.979459 0.0337
144 2 0.939941 0.691046 0.177069
145 2 0.0762975 0.397946 0.712893
146 2 0.433667 0.453485 0.479523
147 2 0.219234 0.3669 0.289332
148 2 0.170407 0.0108373 0.937814
149 2 0.208477 0.4276 0.401579
150 2 0.490173 0.192257 0.591286
151 2 0.340591 0.231043 0.984823
152 2 0.781096 0.478472 0.962748
153 2 0.209024 0.367357 0.252679
154 2 0.657645 0.925526 0.322904
155 2 0.617221 0.12989 0.290374
156 2 0.00853644 0.00832508 0.41869
157 2 0.591969 0.794307 0.349303
158 2 0.184883 0.103043 0.21235
159 2 0.426993 0.0845123 0.522178
160 2 0.151817 0.997506 0.215137
161 2 0.519426 0.00188866 0.529802
162 2 0.0876873 0.672287 0.434527
163 2 0.680988 0.92112 0.436438
164 2 0.164536 0.404489 0.444159
165 2 0.890426 0.331276 0.847649
166 2 0.103266 0.477941 0.309542
167 2 0.842414 0.95529 0.489116
168 2 0.239064 0.227707 0.319707
169 2 0.237612 0.980335 0.138921
170 2 0.937575 0.715855 0.206477
171 2 0.099936 0.410139 0.800879
172 2 0.237633 0.41962 0.505477
173 2 0.41821 0.387322 0.53211
174 2 0.182275 0.109056 0.444053
175 2 0.28373 0.723807 0.0731459
176 2 0.0742509 0.450846 0.316569
177 2 0.328026 0.843307 0.513616
178 2 0.223008 0.434672 0.0428956
179 2 0.607046 0.302297 0.853408
180 2 0.0929189 0.0227303 0.104069
181 2 0.611518 0.302467 0.372271
182 2 0.974374 0.834686 0.184353
183 2 0.0487568 0.318269 0.646285
184 2 0.204232 0.183844 0.336359
185 2 0.210445 0.287532 0.455139
186 2 0.118303 0.555313 0.516142
187 2 0.860844 0.50862 0.904807
188 2 0.180739 0.970451 0.22204
189 2 0.399846 0.932388 0.449006
190 2 0.994332 0.740164 0.581142
191 2 0.223413 0.240785 0.216839
192 2 0.867684 0.0461535 0.524137
193 2 0.437402 0.00365063 0.091423
194 2 0.0994576 0.456645 0.368284
195 2 0.600607 0.469737 0.77535
196 2 0.878514 0.432479 0.322827
197 2 0.841707 0.176503 0.857326
198 2 0.206582 0.556085 0.0278328
199 2 0.147379 0.247142 0.494646
200 2 0.231602 0.313287 0.26282
201 2 0.291419 0.0587253 0.963776
202 2 0.192261 0.953203 0.581857
203 2 0.428009 0.579408 0.0723703
204 2 0.414981 0.134956 0.498401
205 2 0.976898 0.532032 0.148094
206 2 0.37294 0.183419 0.156633
207 2 0.38126 0.367466 0.180953
208 2 0.271463 0.703948 0.221152
209 2 0.105473 0.235374 0.328405
210 2 0.78485 0.975836 0.775195
211 2 0.273742 0.464592 0.10489
212 2 0.295181 0.347822 0.267546
213 2 0.355748 0.141692 0.68081
214 2 0.0316211 0.0563158 0.449351
215 2 0.484233 0.186491 0.146293
216 2 0.368389 0.314885 0.0659301
217 2 0.0312756 0.518673 0.174573
218 2 0.226973 0.301989 0.918173
219 2 0.993003 0.00298688 0.258905
220 2 0.447357 0.128301 0.272312
221 2 0.239142 0.0135735 0.118444
222 2 0.0617937 0.800249 0.321156
223 2 0.417217 0.326265 0.557467
224 2 0.230378 0.198247 0.421095
225 2 0.144844 0.426692 0.233867
226 2 0.101906 0.798317 0.203892
227 2 0.299216 0.351031 0.123085
228 2 0.922172 0.880585 0.371072
229 2 0.476297 0.109384 0.324728
230 2 0.245707 0.165126 0.907459
231 2 0.144105 0.802449 0.247558
232 2 0.690446 0.471334 0.192649
233 2 0.166495 0.308654 0.258373
234 2 0.569412 0.334497 0.22585
235 2 0.396456 0.344258 0.215164
236 2 0.462851 0.916879 0.950933
237 2 0.377114 0.0381172 0.745805
238 2 0.904881 0.221736 0.378259
239 2 0.160068 0.517795 0.834751
240 2 0.561233 0.0150251 0.683162
241 2 0.088176 0.447484 0.814498
242 2 0.480606 0.851759 0.247867
243 2 0.272404 0.454821 0.940488
244 2 0.0585899 0.457265 0.686625
245 2 0.364597 0.830776 0.032658
246 2 0.672675 0.635729 0.169689
247 2 0.0684936 0.454991 0.12073
248 2 0.0912443 0.428061 0.342942
249 2 0.673956 0.141738 0.386728
250 2 0.461817 0.294974 0.136851
251 2 0.213793 0.606491 0.156933
252 2 0.414557 0.16839 0.378635
253 2 0.0258283 0.175061 0.646569
254 2 0.540527 0.819757 0.841729
255 2 0.752422 0.877729 0.250074
256 2 0.219416 0.0786541 0.487772
257 2 0.674585 0.634577 0.430572
258 2 0.980228 0.35683 0.341023
259 2 0.374892 0.285538 0.242253
260 2 0.428296 0.523026 0.219613
261 2 0.986973 0.241686 0.145527
262 2 0.690272 0.969011 0.36588
263 2 0.334398 0.30993 0.158869
264 2 0.281511 0.377532 0.209561
265 2 0.428524 0.0319736 0.245393
266 2 0.240703 0.265112 0.441772
267 2 0.338898 0.193692 0.0316482
268 2 0.0239524 0.306523 0.0344221
269 2 0.172553 0.404438 0.742544
270 2 0.726408 0.253185 0.0964131
271 2 0.376571 0.843731 0.109688
272 2 0.621834 0.0555996 0.271366
273 2 0.0819477 0.322613 0.358319
274 2 0.399988 0.140482 0.438159
275 2 0.518465 0.791676 0.957394
276 2 0.247179 0.987917 0.87827
277 2 0.331863 0.521768 0.483219
278 2 0.0755801 0.214159 0.556641
279 2 0.0916244 0.118185 0.404315
280 2 0.550777 0.377639 0.00873293
281 2 0.185458 0.333785 0.48111
282 2 0.17503 0.286144 0.80864
283 2 0.0563046 0.207398 0.447634
284 2 0.30749 0.132219 0.248381
285 2 0.109137 0.0536978 0.213713
286 2 0.0200243 0.381779 0.144996
287 2 0.131559 0.125135 0.407917
288 2 0.324074 0.227898 0.134925
289 2 0.255148 0.233352 0.496549
290 2 0.982744 0.579659 0.590119
291 2 0.674011 0.22557 0.834269
292 2 0.39202 0.164454 0.266826
293 2 0.224122 0.310458 0.395788
294 2 0.0612259 0.67072 0.998845
295 2 0.0408503 0.461761 0.496099
296 2 0.244922 0.669703 0.0886321
297 2 0.510962 0.636345 0.124769
298 2 0.278714 0.3349 0.299776
299 2 0.381928 0.0465235 0.609415
300 2 0.166556 0.317556 0.654708
301 2 0.26205 0.226586 0.079472
302 2 0.522866 0.196224 0.821616
303 2 0.708598 0.978002 0.819553
304 2 0.273677 0.53856 0.932343
305 2 0.731598 0.273009 0.287521
306 2 0.400119 0.824506 0.133048
307 2 0.58774 0.00222753 0.388441
308 2 0.582631 0.256235 0.237454
309 2 0.0302565 0.416942 0.379118
310 2 0.154636 0.501279 0.614607
311 2 0.246774 0.395539 0.297051
312 2 0.5546 0.871803 0.50896
313 2 0.453454 0.984158 0.0352997
314 2 0.737596 0.232 0.817472
315 2 0.0387456 0.583092 0.338761
316 2 0.832764 0.463788 0.407137
317 2 0.301865 0.768636 0.0408372
318 2 0.290447 0.419032 0.259837
319 2 0.862282 0.317899 0.870797
320 2 0.24964 0.927262 0.609183
321 2 0.0212558 0.331879 0.53184
322 2 0.462831 0.126239 0.114457
323 2 0.199314 0.444498 0.823633
324 2 0.168469 0.162215 0.214522
325 2 0.158404 0.316976 0.457888
326 2 0.225168 0.932365 0.211125
327 2 0.598227 0.292652 0.955972
328 2 0.37905 0.95861 0.990903
329 2 0.968012 0.0487145 0.347322
330 2 0.0264747 0.596667 0.181031
331 2 0.627398 0.519739 0.05732
332 2 0.0346213 0.370915 0.0427141
333 2 0.921787 0.837644 0.450856
334 2 0.0271429 0.367485 0.423864
335 2 0.163956 0.243938 0.460238
336 2 0.786841 0.0233808 0.711232
337 2 0.246444 0.749145 0.317367
338 2 0.53362 0.545869 0.91271
339 2 0.394449 0.0712431 0.208857
340 2 0.242125 0.965108 0.786167
341 2 0.385604 0.533437 0.964241
342 2 0.326709 0.143447 0.137532
343 2 0.536251 0.299154 0.347108
344 2 0.119333 0.000373429 0.236947
345 2 0.224964 0.377992 0.0787459
346 2 0.153439 0.400459 0.260068
347 2 0.364761 0.269794 0.354139
348 2 0.0420506 0.449386 0.531757
349 2 0.521119 0.867848 0.78404
350 2 0.00324875 0.4783 0.0453875
351 2 0.995413 0.0439541 0.656372
352 2 0.321102 0.00419532 0.267909
353 2 0.411089 0.241279 0.163188
354 2 0.762328 0.231025 0.150858
355 2 0.155729 0.984513 0.00999868
356 2 0.176724 0.512897 0.187805
357 2 0.572418 0.17053 0.268066
358 2 0.0437521 0.492289 0.268379
359 2 0.776275 0.232073 0.43865
360 2 0.210009 0.221196 0.0294987
361 2 0.406449 0.957099 0.419267
362 2 0.320037 0.362358 0.569197
363 2 0.458553 0.31452 0.88956
364 2 0.358964 0.18462 0.0612093
365 2 0.18502 0.228137 0.966094
366 2 0.362511 0.255321 0.389438
367 2 0.35842 0.043827 0.248252
368 2 0.10934 0.532568 0.14918
369 2 0.462298 0.46129 0.867502
370 2 0.0693075 0.387387 0.461735
371 2 0.054589 0.363239 0.398117
372 2 0.369264 0.374142 0.331398
373 2 0.514565 0.408235 0.326245
374 2 0.972567 0.302177 0.501697
375 2 0.296516 0.559345 0.571525
376 2 0.956227 0.38367 0.115601
377 2 0.970735 0.501476 0.125576
378 2 0.322104 0.235024 0.501593
379 2 0.156158 0.541319 0.52643
380 2 0.0997199 0.601221 0.28358
381 2 0.315515 0.330667 0.944325
382 2 0.346768 0.918533 0.533084
383 2 0.474735 0.175518 0.0747767
384 2 0.155946 0.0855225 0.691991
385 2 0.273959 0.436101 0.381955
386 2 0.668456 0.329083 0.165263
387 2 0.360725 0.281641 0.455225
388 2 0.29392 0.414181 0.222669
389 2 0.383839 0.188695 0.36279
390 2 0.448426 0.0282405 0.676415
391 2 0.133871 0.333969 0.539279
392 2 0.364616 0.809387 0.811107
393 2 0.327479 0.793849 0.25271
394 2 0.423939 0.123612 0.886184
395 2 0.442968 0.381214 0.0389298
396 2 0.076514 0.102615 0.493196
397 2 0.733563 0.574231 0.300424
398 2 0.991715 0.648063 0.811864
399 2 0.150025 0.442006 0.448722
400 2 0.328639 0.254063 0.0117527
401 2 0.17724 0.995562 0.14632
402 2 0.272344 0.608163 0.251531
403 2 0.455249 0.0176893 0.612653
404 2 0.466062 0.500513 0.272145
405 2 0.137381 0.146416 0.123008
406 2 0.0506356 0.0955993 0.273702
407 2 0.465818 0.892205 0.0255055
408 2 0.917272 0.524803 0.170539
409 2 0.389465 0.246984 0.130154
410 2 0.00979753 0.375147 0.675916
411 2 0.766194 0.299408 0.931721
412 2 0.501469 0.758347 0.17479
413 2 0.164498 0.920579 0.0206209
414 2 0.841794 0.200866 0.378449
415 2 0.158544 0.30717 0.297249
416 2 0.182961 0.0467358 0.250987
417 2 0.382535 0.401503 0.415756
418 2 0.534382 0.350015 0.178562
419 2 0.520744 0.596157 0.180382
420 2 0.0837623 0.366704 0.143272
421 2 0.937678 0.419524 0.72879
422 2 0.241371 0.137808 0.312375
423 2 0.362604 0.298784 0.183006
424 2 0.121312 0.551637 0.0553258
425 2 0.400501 0.0769892 0.342018
426 2 0.321111 0.215469 0.0984619
427 2 0.585651 0.33373 0.790154
428 2 0.186343 0.196759 0.215176
429 2 0.43113 0.204288 0.481012
430 2 0.981697 0.131183 0.270387
431 2 0.368503 0.589897 0.994119
432 2 0.960727 0.0385916 0.402335
433 2 0.539126 0.993794 0.157633
434 2 0.300315 0.988697 0.130457
435 2 0.465158 0.980118 0.193869
436 2 0.165388 0.25475 0.342
437 2 0.216835 0.881793 0.648565
438 2 0.863023 0.494297 0.0177152
439 2 0.496601 0.0162556 0.247487
440 2 0.384709 0.00242511 0.149593
441 2 0.205403 0.989018 0.247423
442 2 0.0582116 0.0129945 0.201817
443 2 0.295003 0.903461 0.223206
444 2 0.80235 0.271447 0.560248
445 2 0.0104021 0.350569 0.102204
446 2 0.992937 0.520757 0.180319
447 2 0.423445 0.0287245 0.388202
448 2 0.416507 0.04896 0.967593
449 2 0.353524 0.307345 0.347943
450 2 0.099264 0.811763 0.329791
451 2 0.357355 0.177081 0.408819
452 2 0.0249837 0.499197 0.234792
453 2 0.0918858 0.200294 0.427703
454 2 0.85714 0.249576 0.576349
455 2 0.532353 0.34848 0.214869
456 2 0.718029 0.418921 0.890608
457 2 0.306596 0.253773 0.467876
458 2 0.110675 0.266891 0.0765664
459 2 0.588782 0.279 0.611249
460 2 0.985949 0.31598 0.905673
461 2 0.884398 0.0846384 0.384771
462 2 0.438275 0.760067 0.0237382
463 2 0.301875 0.236441 0.0717642
464 2 0.465814 0.337399 0.177963
465 2 0.115524 0.248847 0.392151
466 2 0.508986 0.0199648 0.160062
467 2 0.894136 0.479452 0.251449
468 2 0.00392839 0.500105 0.104282
469 2 0.442063 0.353729 0.937099
470 2 0.259108 0.285647 0.258036
471 2 0.483792 0.47749 0.327108
472 2 0.260076 0.196035 0.480655
473 2 0.0517566 0.196311 0.117182
474 2 0.239111 0.649228 0.411372
475 2 0.317942 0.147226 0.0996308
476 2 0.0718378 0.0952578 0.561245
477 2 0.46387 0.34336 0.215312
478 2 0.469828 0.939841 0.244263
479 2 0.131367 0.30903 0.482999
480 2 0.345129 0.560886 0.136586
481 2 0.319832 0.143118 0.21411
482 2 0.344398 0.272307 0.262618
483 2 0.366516 0.386361 0.042892
484 2 0.0808659 0.284453 0.350072
485 2 0.782529 0.548124 0.0100365
486 2 0.607668 0.879695 0.150625
487 2 0.254276 0.264784 0.0344516
488 2 0.133734 0.375283 0.489359
489 2 0.58996 0.173869 0.327204
490 2 0.339539 0.369004 0.172786
491 2 0.2895 0.373262 0.433965
492 2 0.0871654 0.318462 0.438874
493 2 0.121422 0.290685 0.868883
494 2 0.966791 0.165929 0.407598
495 2 0.334016 0.292327 0.581481
496 2 0.762045 0.557669 0.223463
497 2 0.276183 0.38302 0.122143
498 2 0.71677 0.981869 0.225948
499 2 0.918512 0.0243784 0.0972653
500 2 0.204465 0.596564 0.781674
501 2 0.281029 0.287148 0.0521635
502 2 0.281027 0.313705 0.411993
503 2 0.291333 0.376814 0.54656
504 2 0.735341 0.0751521 0.0598111
505 2 0.0693639 0.237387 0.232665
506 2 0.591205 0.369046 0.127052
507 2 0.464972 0.876091 0.128638
508 2 0.263369 0.195093 0.313583
509 2 0.671286 0.70434 0.235054
510 2 0.19054 0.132817 0.496677
511 2 0.0908111 0.28312 0.89497
512 2 0.509279 0.161694 0.0928148
513 2 0.0145697 0.0596981 0.574411
514 2 0.124539 0.203852 0.230376
515 2 0.903064 0.878211 0.0976905
516 2 0.425605 0.381452 0.383713
517 2 0.426615 0.261239 0.284929
518 2 0.528293 0.991407 0.239479
519 2 0.886729 0.647686 0.14292
520 2 0.184727 0.375283 0.30547
521 2 0.0915832 0.0835467 0.463878
522 2 0.0521081 0.300959 0.060934
523 2 0.980045 0.261833 0.111721
524 2 0.282589 0.440325 0.792254
525 2 0.231029 0.843078 0.647187
526 2 0.202539 0.464971 0.245496
527 2 0.630998 0.107295 0.477333
528 2 0.240012 0.540421 0.875763
529 2 0.604424 0.362916 0.353032
530 2 0.511413 0.0397986 0.127901
531 2 0.124972 0.453865 0.395996
532 2 0.701934 0.646306 0.290257
533 2 0.396104 0.543449 0.364568
534 2 0.516233 0.210639 0.153986
535 2 0.281968 0.0945603 0.292524
536 2 0.144347 0.731177 0.523198
537 2 0.419198 0.429993 0.335086
538 2 0.966885 0.556526 0.934017
539 2 0.138845 0.55119 0.443853
540 2 0.251671 0.50629 0.289414
541 2 0.948566 0.415225 0.461444
542 2 0.346039 0.403479 0.428503
543 2 0.133345 0.140868 0.786787
544 2 0.0244119 0.398486 0.241254
545 2 0.589636 0.139203 0.346924
546 2 0.329043 0.883359 0.935049
547 2 0.504525 0.256145 0.293418
548 2 0.25257 0.279852 0.176299
549 2 0.1895 0.496283 0.26674
550 2 0.372611 0.941153 0.180694
551 2 0.64302 0.917666 0.392357
552 2 0.240536 0.330136 0.584951
553 2 0.617056 0.313371 0.908211
554 2 0.172668 0.28042 0.444472
555 2 0.135935 0.221342 0.124067
556 2 0.24478 0.555653 0.728012
557 2 0.439425 0.57037 0.011499
558 2 0.203495 0.488553 0.369855
559 2 0.374556 0.369425 0.483681
560 2 0.261035 0.263065 0.951556
561 2 0.0730048 0.66158 0.291264
562 2 0.44105 0.114747 0.145545
563 2 0.567762 0.201236 0.200374
564 2 0.484743 0.976903 0.0595105
565 2 0.690087 0.183024 0.06638
566 2 0.266061 0.000236307 0.297623
567 2 0.0118269 0.150012 0.0551664
568 2 0.967529 0.863955 0.0787386
569 2 0.463984 0.523479 0.203192
570 2 0.298563 0.427901 0.165215
571 2 0.120397 0.38021 0.135151
572 2 0.228068 0.416078 0.204901
573 2 0.0989431 0.0153289 0.207558
574 2 0.540971 0.000768878 0.093949
575 2 0.312218 0.256209 0.246758
576 2 0.607729 0.493227 0.577844
577 2 0.251641 0.294337 0.493252
578 2 0.200592 0.288371 0.256446
579 2 0.26655 0.541739 0.491404
580 2 0.568069 0.108391 0.525572
581 2 0.968104 0.232855 0.417498
582 2 0.220871 0.561955 0.289627
583 2 0.366594 0.00446467 0.387622
584 2 0.42474 0.294053 0.19189
585 2 0.402311 0.0172936 0.0346389
586 2 0.999781 0.188898 0.943494
587 2 0.0922557 0.577786 0.576052
588 2 0.0377894 0.332101 0.310678
589 2 0.784913 0.364815 0.115317
590 2 0.042722 0.50101 0.489297
591 2 0.476807 0.158844 0.500976
592 2 0.0751789 0.835041 0.110815
593 2 0.817745 0.332328 0.549066
594 2 0.253706 0.0702026 0.30339
595 2 0.621778 0.666392 0.23944
596 2 0.358905 0.133474 0.49146
597 2 0.427651 0.0912377 0.212992
598 2 0.253558 0.658708 0.49742
599 2 0.28146 0.988884 0.490936
600 2 0.127095 0.199917 0.702167
601 2 0.152599 0.316328 0.985578
602 2 0.0676295 0.902097 0.588926
603 2 0.254405 0.395737 0.478163
604 2 0.416927 0.527467 0.312308
605 2 0.192191 0.0829435 0.41522
606 2 0.433486 0.49164 0.538423
607 2 0.111484 0.146606 0.0673102
608 2 0.311556 0.0264466 0.135229
609 2 0.134486 0.382575 0.0998898
610 2 0.20405 0.472986 0.14552
611 2 0.447535 0.398009 0.173963
612 2 0.343768 0.968758 0.171631
613 2 0.563892 0.276587 0.081394
614 2 0.124934 0.114535 0.141206
615 2 0.391877 0.784221 0.903747
616 2 0.392756 0.178701 0.327412
617 2 0.772291 0.703232 0.425533
618 2 0.891368 0.0849625 0.584944
619 2 0.119357 0.325142 0.120402
620 2 0.54094 0.180276 0.964876
621 2 0.290769 0.938215 0.317657
622 2 0.256656 0.583745 0.226072
623 2 0.416187 0.969884 0.0972822
624 2 0.0807363 0.0365573 0.957774
625 2 0.419938 0.221014 0.0804528
626 2 0.717181 0.198872 0.088692
627 2 0.0144882 0.968832 0.313231
628 2 0.643373 0.187829 0.357425
629 2 0.398541 0.655731 0.289569
630 2 0.409552 0.141613 0.323329
631 2 0.252216 0.375732 0.0220119
632 2 0.305749 0.913493 0.41413
633 2 0.128463 0.670273 0.113248
634 2 0.0756829 0.447153 0.484785
635 2 0.303331 0.55628 0.683756
636 2 0.272753 0.386532 0.944789
637 2 0.477661 0.101294 0.921073
638 2 0.423322 0.939043 0.385201
639 2 0.463457 0.0448252 0.0542427
640 2 0.302402 0.765812 0.239811
641 2 0.308051 0.95497 0.349252
642 2 0.805646 0.124807 0.483385
643 2 0.805845 0.448657 0.285027
644 2 0.035732 0.163546 0.534875
645 2 0.385381 0.959338 0.323968
646 2 0.663244 0.227641 0.539953
647 2 0.167083 0.671908 0.3297
648 2 0.290939 0.327901 0.914102
649 2 0.8357 0.120329 0.167509
650 2 0.288784 0.44655 0.852487
651 2 0.365129 0.078006 0.232401
652 2 0.514223 0.497499 0.950466
653 2 0.615555 0.308582 0.45718
654 2 0.015943 0.429327 0.639032
655 2 0.937092 0.504962 0.105195
656 2 0.367377 0.36709 0.841714
657 2 0.978189 0.128545 0.639475
658 2 0.238372 0.126631 0.37947
659 2 0.241196 0.80264 0.420153
660 2 0.771535 0.379631 0.480246
661 2 0.525952 0.776009 0.353977
662 2 0.0101374 0.90654 0.551403
663 2 0.0496994 0.0617763 0.625137
664 2 0.212043 0.715765 0.411785
665 2 0.270533 0.125878 0.810346
666 2 0.378373 0.329152 0.981162
667 2 0.574722 0.144979 0.463508
668 2 0.518082 0.938639 0.982411
669 2 0.944591 0.55004 0.622876
670 2 0.916676 0.386943 0.677533
671 2 0.779041 0.987328 0.255756
672 2 0.277616 0.53245 0.454955
673 2 0.220745 0.319965 0.0453862
674 2 0.238945 0.152362 0.276689
675 2 0.305469 0.217375 0.976941
676 2 0.318729 0.0302242 0.72546
677 2 0.0436667 0.119319 0.744215
678 2 0.464781 0.464725 0.154164
679 2 0.0520988 0.959735 0.325054
680 2 0.207791 0.483357 0.872976
681 2 0.362786 0.20839 0.00600447
682 2 0.326649 0.983105 0.00574721
683 2 0.0411128 0.231478 0.508302
684 2 0.764022 0.401598 0.380107
685 2 0.301032 0.587378 0.266629
686 2 0.280498 0.764682 0.0736472
687 2 0.525108 0.20131 0.343675
688 2 0.134075 0.459015 0.00685856
689 2 0.433012 0.218956 0.912713
690 2 0.305253 0.883441 0.471985
691 2 0.138566 0.361896 0.253117
692 2 0.186028 0.188494 0.969712
693 2 0.906916 0.163804 0.221217
694 2 0.136956 0.525762 0.287902
695 2 0.820071 0.955898 0.298784
696 2 0.076282 0.232101 0.0237143
697 2 0.277795 0.530625 0.0918663
698 2 0.491643 0.15233 0.12542
699 2 0.357033 0.280231 0.0156212
700 2 0.0465772 0.99936 0.56228
701 2 0.506342 0.411628 0.198031
702 2 0.214146 0.7755 0.874414
703 2 0.116851 0.340689 0.199713
704 2 0.453345 0.139563 0.236461
705 2 0.261863 0.931694 0.159785
706 2 0.976263 0.566014 0.34971
707 2 0.111206 0.385712 0.0690931
708 2 0.356712 0.486203 0.356376
709 2 0.334578 0.358307 0.137677
710 2 0.301263 0.18868 0.324936
711 2 0.727512 0.711948 0.545215
712 2 0.0355572 0.516315 0.526053
713 2 0.128002 0.610832 0.981438
714 2 0.486815 0.187704 0.809221
715 2 0.322199 0.168641 0.445906
716 2 0.401226 0.263839 0.340026
717 2 0.298363 0.715134 0.149995
718 2 0.0267285 0.386983 0.80885
719 2 0.463966 0.254889 0.0522178
720 2 0.535681 0.600856 0.985237
721 2 0.704121 0.144158 0.798361
722 2 0.295304 0.232093 0.272696
723 2 0.237743 0.461119 0.163173
724 2 0.00293944 0.393192 0.0500288
725 2 0.286622 0.657391 0.771927
726 2 0.92299 0.211627 0.538501
727 2 0.114478 0.436483 0.431941
728 2 0.156121 0.416933 0.100821
729 2 0.329756 0.301022 0.283601
730 2 0.104355 0.286598 0.0453353
731 2 0.232137 0.327439 0.547126
732 2 0.369419 0.710736 0.406633
733 2 0.437266 0.21582 0.516078
734 2 0.563401 0.45102 0.942465
735 2 0.154172 0.16694 0.150858
736 2 0.0841804 0.45682 0.236722
737 2 0.66325 0.0619951 0.847122
738 2 0.623049 0.200402 0.283154
739 2 0.277558 0.0859419 0.207355
740 2 0.122244 0.564865 0.931605
741 2 0.0740007 0.417775 0.965936
742 2 0.0207787 0.265968 0.108556
743 2 0.332687 0.559025 0.0634822
744 2 0.149622 0.846564 0.411392
745 2 0.991916 0.160995 0.358046
746 2 0.334135 0.18618 0.257716
747 2 0.0546583 0.391489 0.130518
748 2 0.0928597 0.197061 0.497524
749 2 0.0617839 0.390637 0.0203684
750 2 0.548491 0.325779 0.374064
751 2 0.587057 0.128001 0.407899
752 2 0.23662 0.0656717 0.59577
753 2 0.304618 0.477587 0.203807
754 2 0.179173 0.810709 0.631252
755 2 0.650774 0.0165832 0.460273
756 2 0.105735 0.269303 0.718814
757 2 0.851636 0.279969 0.524944
758 2 0.404933 0.283476 0.938859
759 2 0.404057 0.240644 0.308906
760 2 0.357715 0.412214 0.334418
761 2 0.00427333 0.681098 0.355397
762 2 0.206078 0.431895 0.784598
763 2 0.389764 0.0866597 0.838812
764 2 0.518304 0.482333 0.0296685
765 2 0.253724 0.163498 0.370374
766 2 0.821553 0.186623 0.963941
767 2 0.741462 0.466067 0.276098
768 2 0.291876 0.788584 0.59625
769 2 0.821245 0.226371 0.521404
770 2 0.912329 0.254371 0.0396784
771 2 0.202654 0.169091 0.272654
772 2 0.11231 0.426546 0.0152777
773 2 0.149057 0.35568 0.98123
774 2 0.0760177 0.319959 0.26379
775 2 0.0399015 0.467945 0.720202
776 2 0.568112 0.0375482 0.951528
777 2 0.0874795 0.0437562 0.470679
778 2 0.805552 0.430528 0.485574
779 2 0.128964 0.280807 0.149929
780 2 0.133522 0.49894 0.737313
781 2 0.953105 0.633959 0.534717
782 2 0.927872 0.401583 0.490539
783 2 0.505276 0.0496863 0.227878
784 2 0.473277 0.170111 0.318528
785 2 0.642706 0.328708 0.0670725
786 2 0.452402 0.319263 0.282382
787 2 0.974938 0.402849 0.200767
788 2 0.202256 0.592756 0.535659
789 2 0.289979 0.898464 0.0743869
790 2 0.352727 0.941928 0.965082
791 2 0.506536 0.433302 0.894916
792 2 0.36952 0.579087 0.162512
793 2 0.993744 0.955367 0.846561
794 2 0.441309 0.361962 0.15685
795 2 0.43569 0.422209 0.543841
796 2 0.860799 0.172285 0.55792
797 2 0.984778 0.444329 0.526364
798 2 0.108277 0.308392 0.220605
799 2 0.193936 0.13842 0.197473
800 2 0.132508 0.200517 0.0919212
801 2 0.215743 0.226585 0.288467
802 2 0.418264 0.403815 0.305871
803 2 0.268822 0.187845 0.0709326
804 2 0.982068 0.336463 0.0799829
805 2 0.575679 0.369211 0.847488
806 2 0.482313 0.554582 0.867258
807 2 0.287454 0.215404 0.0118089
808 2 0.0555961 0.32557 0.386982
809 2 0.971683 0.149778 0.169086
810 2 0.201752 0.146773 0.730332
811 2 0.185127 0.645029 0.280522
812 2 0.235823 0.123693 0.135492
813 2 0.416256 0.242958 0.369652
814 2 0.221938 0.417032 0.367747
815 2 0.165549 0.214713 0.400831
816 2 0.444728 0.440782 0.0707668
817 2 0.211149 0.308139 0.604026
818 2 0.308693 0.628207 0.0712882
819 2 0.0361994 0.125643 0.18033
820 2 0.144529 0.316261 0.760763
821 2 0.623484 0.290896 0.337362
822 2 0.394686 0.115535 0.0482627
823 2 0.542055 0.383232 0.0871341
824 2 0.522923 0.470288 0.169865
825 2 0.120061 0.478775 0.343466
826 2 0.982435 0.272276 0.67803
827 2 0.909887 0.625687 0.445612
828 2 0.239745 0.43514 0.294902
829 2 0.853358 0.401347 0.572506
830 2 0.641493 0.121471 0.318823
831 2 0.182212 0.408472 0.283392
832 2 0.434414 0.361974 0.558918
833 2 0.0760211 0.101791 0.100236
834 2 0.253355 0.0527526 0.902839
835 2 0.117215 0.109863 0.203045
836 2 0.544227 0.0281549 0.576291
837 2 0.607597 0.236317 0.295271
838 2 0.257249 0.122927 0.00935636
839 2 0.874281 0.485704 0.490351
840 2 0.307448 0.333225 0.0899822
841 2 0.693357 0.991002 0.0988518
842 2 0.565073 0.427087 0.29323
843 2 0.154423 0.17697 0.605825
844 2 0.889731 0.457056 0.557906
845 2 0.274889 0.449122 0.280181
846 2 0.0066324 0.419789 0.452257
847 2 0.288019 0.0419386 0.34459
848 2 0.208327 0.263121 0.0773128
849 2 0.138603 0.12055 0.345346
850 2 0.296751 0.892834 0.987948
851 2 0.295553 0.29833 0.303711
852 2 0.264701 0.449155 0.416939
853 2 0.122084 0.172768 0.586247
854 2 0.421724 0.207376 0.321776
855 2 0.419227 0.211505 0.0440484
856 2 0.246757 0.198408 0.135419
857 2 0.152629 0.0937185 0.192372
858 2 0.924299 0.153243 0.3569
859 2 0.247208 0.512164 0.438522
860 2 0.41725 0.650234 0.46623
861 2 0.346416 0.37592 0.241758
862 2 0.474506 0.860367 0.599135
863 2 0.905782 0.638351 0.348718
864 2 0.855775 0.112927 0.00856114
865 2 0.976292 0.970756 0.646304
866 2 0.578935 0.468917 0.590539
867 2 0.222048 0.211412 0.648312
868 2 0.427927 0.11449 0.951307
869 2 0.0342266 0.143311 0.476794
870 2 0.0328131 0.293924 0.302259
871 2 0.865774 0.417092 0.358054
872 2 0.404824 0.290145 0.268031
873 2 0.645794 0.19217 0.931608
874 2 0.223245 0.377836 0.417628
875 2 0.103509 0.21832 0.146018
876 2 0.0261942 0.091292 0.636027
877 2 0.113003 0.274881 0.331178
878 2 0.502401 0.375123 0.615988
879 2 0.611942 0.361092 0.024216
880 2 0.295057 0.406102 0.0988306
881 2 0.350144 0.313215 0.407063
882 2 0.218776 0.0894066 0.299856
883 2 0.266715 0.794764 0.349613
884 2 0.290615 0.389399 0.0216138
885 2 0.236018 0.924349 0.962256
886 2 0.130505 0.43828 0.513278
887 2 0.295724 0.117266 0.149995
888 2 0.230682 0.979107 0.348341
889 2 0.12864 0.183083 0.437346
890 2 0.383316 0.137956 0.239479
891 2 0.374576 0.116786 0.390292
892 2 0.880965 0.0616764 0.65972
893 2 0.0553878 0.0840795 0.022478
894 2 0.359055 0.21685 0.0828643
895 2 0.888059 0.272014 0.29503
896 2 0.342247 0.340694 0.433409
897 2 0.891004 0.392358 0.48177
898 2 0.940176 0.0199994 0.351814
899 2 0.388057 0.10647 0.319275
900 2 0.992563 0.223774 0.342723
901 2 0.285103 0.603367 0.383823
902 2 0.442925 0.67643 0.481118
903 2 0.318466 0.451304 0.140133