 vasp.6.5.0 16Dec24 (build Jan 20 2025 08:32:48) complex                         
 executed on        HPECrayEX_GCC date 2025.07.22  12:21:21
 running  128 mpi-ranks, with    1 threads/rank, on    1 nodes
 distrk:  each k-point on  128 cores,    1 groups
 distr:  one band on NCORE=  16 cores,    8 groups


--------------------------------------------------------------------------------------------------------


 INCAR:
   SYSTEM = a-Si SPC
   NCORE = 16
   ISTART = 1
   ICHARG = 1
   ISPIN = 1
   ISYM = 1
   EDIFF = 1E-6
   NELM = 150
   EDIFFG = -0.01
   NSW = 0
   ISIF = 2
   IBRION = -1
   PREC = Accurate
   ENCUT = 1200
   KSPACING = 0.23
   KGAMMA = .TRUE.
   METAGGA = SCAN
   LASPH = .TRUE.
   LDIAG = .FALSE.
   LMIXTAU = .TRUE.
   ADDGRID = .TRUE.
   ALGO = Normal
   ISMEAR = 0
   SIGMA = 0.1
   LORBIT = 11
   NEDOS = 2000
   LWAVE = .FALSE.
   LCHARG = .FALSE.

 POTCAR:    PAW_PBE H 15Jun2001                   
 POTCAR:    PAW_PBE Si 05Jan2001                  
 POTCAR:    PAW_PBE H 15Jun2001                   
   SHA256 =  030f79b5d3ab3cf0e668861823c8fb652ff669f3e15e46930bd03bfd63a607b6 H/POTCAR              
   COPYR  = (c) Copyright 15Jun2001 Georg Kresse                                                    
   COPYR  = This file is part of the software VASP. Any use, copying, and all other rights are regul
   COPYR  = If you do not have a valid VASP license, you may not use, copy or distribute this file. 
   VRHFIN =H: ultrasoft test                                                                        
   LEXCH  = PE                                                                                      
   EATOM  =    12.4884 eV,    0.9179 Ry                                                             
                                                                                                    
   TITEL  = PAW_PBE H 15Jun2001                                                                     
   LULTRA =        F    use ultrasoft PP ?                                                          
   IUNSCR =        0    unscreen: 0-lin 1-nonlin 2-no                                               
   RPACOR =    0.000    partial core radius                                                         
   POMASS =    1.000; ZVAL   =    1.000    mass and valenz                                          
   RCORE  =    1.100    outmost cutoff radius                                                       
   RWIGS  =    0.700; RWIGS  =    0.370    wigner-seitz radius (au A)                               
   ENMAX  =  250.000; ENMIN  =  200.000 eV                                                          
   RCLOC  =    0.701    cutoff for local pot                                                        
   LCOR   =        T    correct aug charges                                                         
   LPAW   =        T    paw PP                                                                      
   EAUG   =  400.000                                                                                
   RMAX   =    1.123    core radius for proj-oper                                                   
   RAUG   =    1.200    factor for augmentation sphere                                              
   RDEP   =    1.112    radius for radial grids                                                     
   RDEPT  =    0.926    core radius for aug-charge                                                  
                                                                                                    
   Atomic configuration                                                                             
    2 entries                                                                                       
     n  l   j            E        occ.                                                              
     1  0  0.50        -6.4927   1.0000                                                             
     2  1  0.50        -3.4015   0.0000                                                             
   Description                                                                                      
     l       E           TYP  RCUT    TYP  RCUT                                                     
     0     -6.4927494     23  1.100                                                                 
     0      6.8029130     23  1.100                                                                 
     1     -4.0817478     23  1.100                                                                 
  local pseudopotential read in
  atomic valenz-charges read in
  non local Contribution for L=           0  read in
    real space projection operators read in
  non local Contribution for L=           0  read in
    real space projection operators read in
  non local Contribution for L=           1  read in
    real space projection operators read in
    PAW grid and wavefunctions read in

   number of l-projection  operators is LMAX  =           3
   number of lm-projection operators is LMMAX =           5

 POTCAR:    PAW_PBE Si 05Jan2001                  
   SHA256 =  79d9987ad8750f624c4d6acb2a16d13abf6a777132adc04dc6c8399be72b42bb Si/POTCAR             
   COPYR  = (c) Copyright 05Jan2001 Georg Kresse                                                    
   COPYR  = This file is part of the software VASP. Any use, copying, and all other rights are regul
   COPYR  = If you do not have a valid VASP license, you may not use, copy or distribute this file. 
   VRHFIN =Si: s2p2                                                                                 
   LEXCH  = PE                                                                                      
   EATOM  =   103.0669 eV,    7.5752 Ry                                                             
                                                                                                    
   TITEL  = PAW_PBE Si 05Jan2001                                                                    
   LULTRA =        F    use ultrasoft PP ?                                                          
   IUNSCR =        1    unscreen: 0-lin 1-nonlin 2-no                                               
   RPACOR =    1.500    partial core radius                                                         
   POMASS =   28.085; ZVAL   =    4.000    mass and valenz                                          
   RCORE  =    1.900    outmost cutoff radius                                                       
   RWIGS  =    2.480; RWIGS  =    1.312    wigner-seitz radius (au A)                               
   ENMAX  =  245.345; ENMIN  =  184.009 eV                                                          
   ICORE  =        2    local potential                                                             
   LCOR   =        T    correct aug charges                                                         
   LPAW   =        T    paw PP                                                                      
   EAUG   =  322.069                                                                                
   DEXC   =    0.000                                                                                
   RMAX   =    1.950    core radius for proj-oper                                                   
   RAUG   =    1.300    factor for augmentation sphere                                              
   RDEP   =    1.993    radius for radial grids                                                     
   RDEPT  =    1.837    core radius for aug-charge                                                  
                                                                                                    
   Atomic configuration                                                                             
    6 entries                                                                                       
     n  l   j            E        occ.                                                              
     1  0  0.50     -1785.8828   2.0000                                                             
     2  0  0.50      -139.4969   2.0000                                                             
     2  1  1.50       -95.5546   6.0000                                                             
     3  0  0.50       -10.8127   2.0000                                                             
     3  1  0.50        -4.0811   2.0000                                                             
     3  2  1.50        -4.0817   0.0000                                                             
   Description                                                                                      
     l       E           TYP  RCUT    TYP  RCUT                                                     
     0    -10.8127223     23  1.900                                                                 
     0     -7.6451159     23  1.900                                                                 
     1     -4.0811372     23  1.900                                                                 
     1      2.4879257     23  1.900                                                                 
     2     -4.0817478      7  1.900                                                                 
  local pseudopotential read in
  partial core-charges read in
  partial kinetic energy density read in
  atomic valenz-charges read in
  non local Contribution for L=           0  read in
    real space projection operators read in
  non local Contribution for L=           0  read in
    real space projection operators read in
  non local Contribution for L=           1  read in
    real space projection operators read in
  non local Contribution for L=           1  read in
    real space projection operators read in
    PAW grid and wavefunctions read in

   number of l-projection  operators is LMAX  =           4
   number of lm-projection operators is LMMAX =           8

 -----------------------------------------------------------------------------
|                                                                             |
|               ----> ADVICE to this user running VASP <----                  |
|                                                                             |
|     You have a (more or less) 'large supercell' and for larger cells it     |
|     might be more efficient to use real-space projection operators.         |
|     Therefore, try LREAL= Auto in the INCAR file.                           |
|     Mind: For very accurate calculation, you might also keep the            |
|     reciprocal projection scheme (i.e. LREAL=.FALSE.).                      |
|                                                                             |
 -----------------------------------------------------------------------------

 -----------------------------------------------------------------------------
|                                                                             |
|               ----> ADVICE to this user running VASP <----                  |
|                                                                             |
|     You enforced a specific xc type in the INCAR file but a different       |
|     type was found in the POTCAR file.                                      |
|     I HOPE YOU KNOW WHAT YOU ARE DOING!                                     |
|                                                                             |
 -----------------------------------------------------------------------------

  PAW_PBE H 15Jun2001                   :
 energy of atom  1       EATOM=  -12.4884
 kinetic energy error for atom=    0.0000 (will be added to EATOM!!)
  PAW_PBE Si 05Jan2001                  :
 energy of atom  2       EATOM= -103.0669
 kinetic energy error for atom=    0.0001 (will be added to EATOM!!)


 POSCAR:  H Si
  positions in cartesian coordinates
  No initial velocities read in


 exchange-correlation table for SCAN
   RHO(1)=    0.500       N(1)  =     2000
   RHO(2)=  100.500       N(2)  =     4000



--------------------------------------------------------------------------------------------------------


 ion  position               nearest neighbor table
   1  0.293  0.006  0.728-  17 0.75
   2  0.894  0.141  0.910- 119 1.36
   3  0.172  0.097  0.182-  22 0.76
   4  0.182  0.063  0.415-   9 0.77
   5  0.954  0.012  0.051-  23 0.67
   6  0.111  0.977  0.603-  25 0.78
   7  0.264  0.851  0.924-  27 0.72
   8  0.860  0.350  0.817-  88 1.47
   9  0.193  0.068  0.341-   4 0.77
  10  0.191  0.866  0.209-  12 0.76
  11  0.021  0.773  0.429-  44 0.79
  12  0.199  0.917  0.194-  10 0.76
  13  0.147  0.818  0.626-  16 0.75
  14  0.989  0.181  0.114- 111 1.45
  15  0.739  0.464  0.898-  82 1.54
  16  0.127  0.824  0.693-  13 0.75
  17  0.243  0.016  0.738-   1 0.75
  18  0.981  0.107  0.379-  35 0.75
  19  0.870  0.053  0.187-  67 1.49
  20  0.983  0.368  0.841-  65 1.49
  21  0.224  0.114  0.586-  84 1.47
  22  0.125  0.117  0.166-   3 0.76
  23  0.958  0.010  0.985-   5 0.67
  24  0.056  0.728  0.195-  33 0.69
  25  0.093  0.998  0.669-   6 0.78
  26  0.190  0.757  0.381-  29 0.79
  27  0.286  0.889  0.956-   7 0.72
  28  0.190  0.709  0.737-  76 1.52
  29  0.220  0.756  0.445-  26 0.79
  30  0.865  0.815  0.066-  79 1.51
  31  0.804  0.948  0.505- 117 1.63
  32  0.934  0.692  0.230- 125 1.53
  33  0.088  0.747  0.238-  24 0.69
  34  0.033  0.152  0.797-  41 0.73
  35  0.961  0.085  0.439-  18 0.75
  36  0.187  0.216  0.898- 114 1.51
  37  0.941  0.988  0.715-  39 0.74
  38  0.101  0.791  0.986-  43 0.76
  39  0.893  0.990  0.742-  37 0.74
  40  0.249  0.741  0.153- 123 1.58
  41  0.067  0.133  0.751-  34 0.73
  42  0.311  0.039  0.987- 101 1.49
  43  0.131  0.813  0.933-  38 0.76
  44  0.969  0.775  0.407-  11 0.79
  45  0.919  0.816  0.606- 118 1.52
  46  0.365  0.870  0.767- 113 1.46
  47  0.540  0.892  0.958-  72 2.21 113 2.26  57 2.39  71 2.39
  48  0.148  0.359  0.642- 121 2.28  59 2.29 114 2.36  49 2.43
  49  0.996  0.348  0.546-  62 2.34  48 2.43 115 2.43  54 2.49
  50  0.052  0.525  0.047- 122 2.23  65 2.30  80 2.40  61 2.44
  51  0.767  0.759  0.410- 118 2.28 125 2.31  68 2.35  97 2.35
  52  0.580  0.249  0.153- 103 2.30 108 2.44  69 2.45 106 2.61 104 2.89
  53  0.524  0.740  0.459-  96 2.27  91 2.31  97 2.32 107 2.40
  54  0.971  0.512  0.609- 121 2.29  75 2.32  55 2.49  49 2.49
  55  0.852  0.607  0.719- 105 2.41 118 2.43  54 2.49  61 2.52
  56  0.587  0.069  0.755-  72 2.31  98 2.34  66 2.38  81 2.49 117 3.03
  57  0.698  0.904  0.902-  79 2.26 120 2.32  98 2.38  47 2.39
  58  0.830  0.341  0.147- 108 2.41 111 2.42  92 2.48  82 2.50
  59  0.274  0.315  0.522- 100 2.26  84 2.28  48 2.29  85 2.32
  60  0.394  0.122  0.370-  78 2.33 104 2.36  87 2.57  84 2.64
  61  0.917  0.598  0.949-  82 2.34  50 2.44  55 2.52
  62  0.849  0.283  0.538-  49 2.34  92 2.38  88 2.43 124 2.47
  63  0.519  0.514  0.133-  73 2.40 106 2.41  77 2.43  83 2.48
  64  0.442  0.448  0.667-  85 2.19  99 2.32  86 2.37  89 2.41
  65  0.039  0.379  0.962-  20 1.49  50 2.30 114 2.37 111 2.38
  66  0.586  0.987  0.553-  96 2.30 117 2.37  56 2.38  78 2.43 107 3.07
  67  0.771  0.062  0.221-  19 1.49 108 2.44 124 2.53  69 2.54  68 2.77
  68  0.721  0.883  0.279-  79 2.32  51 2.35 107 2.38  67 2.77
  69  0.603  0.083  0.161-  78 2.37  72 2.38  52 2.45  67 2.54 108 2.72
  70  0.662  0.414  0.423-  92 2.29  73 2.30 103 2.35  89 2.37
  71  0.538  0.774  0.122- 107 2.34  47 2.39  83 2.42 116 2.51
  72  0.527  0.043  0.962-  47 2.21  56 2.31 101 2.33  69 2.38
  73  0.638  0.541  0.293-  94 2.24  97 2.27  70 2.30  63 2.40
  74  0.306  0.590  0.341-  91 2.30 123 2.30 112 2.32  77 2.36
  75  0.910  0.520  0.399- 125 2.22  92 2.28  54 2.32 122 2.36
  76  0.227  0.613  0.750-  28 1.52  99 2.32 121 2.47  80 2.52
  77  0.399  0.463  0.282-  74 2.36 110 2.36  63 2.43  85 2.43
  78  0.518  0.022  0.340-  60 2.33  69 2.37 107 2.42  66 2.43
  79  0.762  0.829  0.073-  30 1.51  57 2.26  68 2.32 116 2.38
  80  0.207  0.556  0.983- 123 2.36  95 2.39  50 2.40  76 2.52
  81  0.541  0.229  0.700- 109 2.40  87 2.42  93 2.43  56 2.49
  82  0.817  0.478  0.999-  15 1.54  61 2.34  94 2.35  58 2.50
  83  0.439  0.651  0.048- 123 2.24  90 2.34  71 2.42  63 2.48
  84  0.308  0.169  0.588-  21 1.47  59 2.28 109 2.44  60 2.64
  85  0.419  0.374  0.483-  64 2.19  87 2.24  59 2.32  77 2.43
  86  0.403  0.367  0.861-  95 2.18 109 2.36  64 2.37 106 2.38
  87  0.500  0.244  0.470-  85 2.24 103 2.27  81 2.42  60 2.57
  88  0.785  0.297  0.758-   8 1.47  93 2.34  62 2.43 119 2.55
  89  0.607  0.445  0.639-  93 2.29 105 2.37  70 2.37  64 2.41
  90  0.468  0.677  0.824-  99 2.27 113 2.33  83 2.34 102 2.35
  91  0.376  0.687  0.489-  74 2.30  53 2.31  99 2.41
  92  0.815  0.396  0.377-  75 2.28  70 2.29  62 2.38  58 2.48
  93  0.636  0.345  0.808-  89 2.29  88 2.34 106 2.40  81 2.43
  94  0.759  0.574  0.166-  73 2.24 125 2.31  82 2.35 116 2.36
  95  0.277  0.408  0.961-  86 2.18 114 2.27 110 2.38  80 2.39
  96  0.570  0.837  0.621-  53 2.27  66 2.30 120 2.33 113 2.37
  97  0.654  0.648  0.453-  73 2.27  53 2.32  51 2.35 105 2.43
  98  0.743  0.041  0.791- 119 2.24 117 2.31  56 2.34  57 2.38
  99  0.379  0.594  0.685-  90 2.27  76 2.32  64 2.32  91 2.41
 100  0.203  0.355  0.334- 110 2.22  59 2.26 115 2.31 112 2.33
 101  0.383  0.111  0.980-  42 1.49  72 2.33 104 2.36 109 2.46
 102  0.630  0.672  0.825- 105 2.28  90 2.35 120 2.38 116 2.41
 103  0.636  0.261  0.363-  87 2.27  52 2.30  70 2.35 124 2.41 108 3.11
 104  0.387  0.204  0.170-  60 2.36 101 2.36 110 2.43  52 2.89
 105  0.693  0.581  0.666- 102 2.28  89 2.37  55 2.41  97 2.43
 106  0.538  0.382  0.991-  86 2.38  93 2.40  63 2.41  52 2.61
 107  0.560  0.863  0.310-  71 2.34  68 2.38  53 2.40  78 2.42  66 3.07
 108  0.738  0.206  0.107- 119 2.34  58 2.41  52 2.44  67 2.44  69 2.72 103 3.11
 109  0.389  0.214  0.788-  86 2.36  81 2.40  84 2.44 101 2.46
 110  0.308  0.351  0.176- 100 2.22  77 2.36  95 2.38 104 2.43
 111  0.983  0.279  0.130-  14 1.45 115 2.27  65 2.38  58 2.42
 112  0.173  0.508  0.384- 122 2.32  74 2.32 100 2.33 121 2.44
 113  0.457  0.834  0.789-  46 1.46  47 2.26  90 2.33  96 2.37
 114  0.173  0.316  0.863-  36 1.51  95 2.27  48 2.36  65 2.37
 115  0.045  0.337  0.318- 111 2.27 100 2.31 122 2.41  49 2.43
 116  0.679  0.689  0.050-  94 2.36  79 2.38 102 2.41  71 2.51
 117  0.742  0.032  0.563-  31 1.63  98 2.31 124 2.37  66 2.37  56 3.03
 118  0.834  0.756  0.614-  45 1.52  51 2.28 120 2.30  55 2.43
 119  0.802  0.158  0.907-   2 1.36  98 2.24 108 2.34  88 2.55
 120  0.706  0.800  0.729- 118 2.30  57 2.32  96 2.33 102 2.38
 121  0.128  0.513  0.615-  48 2.28  54 2.29 112 2.44  76 2.47
 122  0.039  0.497  0.262-  50 2.23 112 2.32  75 2.36 115 2.41
 123  0.296  0.645  0.129-  40 1.58  83 2.24  74 2.30  80 2.36
 124  0.760  0.162  0.425- 117 2.37 103 2.41  62 2.47  67 2.53
 125  0.857  0.648  0.310-  32 1.53  75 2.22  94 2.31  51 2.31

  LATTYP: Found a simple tetragonal cell.
 ALAT       =    14.5768472423
 C/A-ratio  =     0.6963448534
  
  Lattice vectors:
  
 A1 = (  14.5768472423,   0.0000000000,   0.0000000000)
 A2 = (   0.0000000000,  14.5768472423,   0.0000000000)
 A3 = (   0.0000000000,   0.0000000000,  10.1505125555)


Analysis of symmetry for initial positions (statically):
=====================================================================
 Subroutine PRICEL returns:
 Original cell was already a primitive cell.
 

 Routine SETGRP: Setting up the symmetry group for a 
 simple tetragonal supercell.


 Subroutine GETGRP returns: Found  1 space group operations
 (whereof  1 operations were pure point group operations)
 out of a pool of 16 trial point group operations.


The static configuration has the point symmetry C_1 .


Analysis of symmetry for dynamics (positions and initial velocities):
=====================================================================
 Subroutine PRICEL returns:
 Original cell was already a primitive cell.
 

 Routine SETGRP: Setting up the symmetry group for a 
 simple tetragonal supercell.


 Subroutine GETGRP returns: Found  1 space group operations
 (whereof  1 operations were pure point group operations)
 out of a pool of 16 trial point group operations.


The dynamic configuration has the point symmetry C_1 .


 Subroutine INISYM returns: Found  1 space group operations
 (whereof  1 operations are pure point group operations),
 and found     1 'primitive' translations


----------------------------------------------------------------------------------------

                                     Primitive cell                                     

  volume of cell :    2156.8263

  direct lattice vectors                    reciprocal lattice vectors
    14.576847242  0.000000000  0.000000000     0.068601940  0.000000000  0.000000000
     0.000000000 14.576847242  0.000000000     0.000000000  0.068601940  0.000000000
     0.000000000  0.000000000 10.150512556     0.000000000  0.000000000  0.098517193

  length of vectors
    14.576847242 14.576847242 10.150512556     0.068601940  0.068601940  0.098517193

  position of ions in fractional coordinates (direct lattice)
     0.293055139  0.005923967  0.728271598
     0.893780375  0.140730020  0.910230882
     0.172059154  0.096894752  0.182458766
     0.181877463  0.062955246  0.414694330
     0.953903116  0.011537406  0.050891716
     0.111148863  0.977219560  0.603444404
     0.264407655  0.850581734  0.924371055
     0.860117403  0.349657228  0.817238534
     0.193073986  0.068365126  0.341359117
     0.190646163  0.866305298  0.209122445
     0.021274148  0.773342809  0.428818740
     0.199168582  0.916638542  0.193678890
     0.146946042  0.817741985  0.625583188
     0.988615697  0.180578829  0.114129212
     0.739405430  0.464461889  0.898496500
     0.127310794  0.823778956  0.693157115
     0.243200738  0.015940690  0.737835647
     0.980870538  0.106531267  0.378602556
     0.869707955  0.053474801  0.187134392
     0.983154983  0.367934157  0.841421549
     0.223571664  0.113668612  0.586123111
     0.125203343  0.116748154  0.165664541
     0.958135855  0.010088104  0.985181777
     0.056283295  0.728264475  0.194842378
     0.093108611  0.997974274  0.668980996
     0.190129591  0.757488901  0.380853674
     0.286040591  0.889142884  0.956358602
     0.189690538  0.709193135  0.737423845
     0.220194391  0.756398130  0.445190327
     0.864857797  0.814757801  0.066271826
     0.803561964  0.948161133  0.504790273
     0.933699844  0.691871146  0.229782485
     0.088128110  0.746546892  0.238222453
     0.033299313  0.151676831  0.796915422
     0.961229803  0.084897645  0.439474359
     0.187159813  0.216371205  0.898149719
     0.940628640  0.988188667  0.715375698
     0.100818097  0.790589337  0.986011741
     0.893485387  0.989898554  0.741996028
     0.249319345  0.741477208  0.152678990
     0.067226403  0.132853145  0.751005425
     0.311044626  0.038771896  0.986982726
     0.130583107  0.812610560  0.932734180
     0.969139606  0.775016697  0.407475975
     0.918566256  0.815821131  0.606160523
     0.365214776  0.870174448  0.767225296
     0.539829352  0.891852661  0.958482633
     0.148375706  0.359070786  0.641712422
     0.995921804  0.348454636  0.546323151
     0.051526574  0.524719775  0.046561984
     0.767209796  0.758860940  0.410442328
     0.579595838  0.249493593  0.152511510
     0.524141460  0.740160051  0.458841854
     0.970724311  0.511769786  0.609138698
     0.851768547  0.607081206  0.719420813
     0.587075508  0.069347643  0.754976653
     0.698408910  0.904386235  0.902044104
     0.829658142  0.341230166  0.147205374
     0.273988602  0.314627705  0.522123387
     0.393894503  0.121547545  0.369605966
     0.916988412  0.598201371  0.949234824
     0.849134233  0.282913715  0.538294985
     0.519440169  0.513685839  0.132996240
     0.442426259  0.448341119  0.667456935
     0.039460248  0.378530413  0.962482431
     0.586094500  0.987099594  0.552809523
     0.770605592  0.062290493  0.221056817
     0.720896626  0.883208816  0.279440076
     0.602817595  0.083327346  0.161362295
     0.661951781  0.414375612  0.423261385
     0.538381851  0.773973947  0.122120927
     0.526687278  0.042642417  0.962347462
     0.637837514  0.541368779  0.292824622
     0.306487399  0.589547236  0.341142379
     0.909874391  0.519582175  0.398706960
     0.227383188  0.612609150  0.750460625
     0.399461550  0.463207845  0.282221216
     0.517521373  0.022288908  0.340374930
     0.762064651  0.828526210  0.073376689
     0.207140814  0.555584473  0.982991740
     0.541338595  0.229369900  0.700490735
     0.816747257  0.478139057  0.999273259
     0.438883655  0.651179219  0.047639072
     0.307818277  0.168845153  0.588462895
     0.419379438  0.374106273  0.483082009
     0.403454183  0.367095841  0.861231386
     0.499859804  0.243800318  0.470244234
     0.784655269  0.297311204  0.758371556
     0.606782101  0.444871233  0.638717500
     0.468417476  0.676688850  0.824300246
     0.376118368  0.686959247  0.489047225
     0.814867564  0.396465018  0.376905105
     0.635570905  0.344720632  0.808137516
     0.759245111  0.573673433  0.166223133
     0.277499649  0.408272098  0.961473615
     0.569894152  0.837458183  0.620724320
     0.653795697  0.648251974  0.453268736
     0.743398063  0.041125903  0.791118671
     0.378831575  0.594066732  0.685288547
     0.202681688  0.354843535  0.333577244
     0.383066373  0.111009601  0.980141638
     0.629570294  0.671799590  0.824748500
     0.635715656  0.260795077  0.363287073
     0.387078900  0.204075679  0.170255442
     0.693064819  0.581252575  0.665618604
     0.538264542  0.382204732  0.990885923
     0.560066238  0.863492619  0.310351816
     0.738294078  0.206139225  0.106616291
     0.389019649  0.213953672  0.788437033
     0.308337594  0.351177447  0.176212776
     0.983484272  0.279277126  0.130206233
     0.172974990  0.508190137  0.384142178
     0.457443910  0.834425977  0.789387724
     0.172772614  0.316097845  0.862918001
     0.045496052  0.337011832  0.318293286
     0.679375302  0.688893821  0.050286131
     0.742224970  0.031967338  0.563492727
     0.833767398  0.755869895  0.613631082
     0.802203646  0.157829739  0.907144339
     0.705522932  0.800495457  0.729235096
     0.127521402  0.513161720  0.615327548
     0.039210468  0.497214513  0.261823232
     0.295881539  0.645258185  0.129189535
     0.760370183  0.161562371  0.425232714
     0.856845091  0.648041366  0.310201084

  ion indices of the primitive-cell ions
   primitive index   ion index
                 1           1
                 2           2
                 3           3
                 4           4
                 5           5
                 6           6
                 7           7
                 8           8
                 9           9
                10          10
                11          11
                12          12
                13          13
                14          14
                15          15
                16          16
                17          17
                18          18
                19          19
                20          20
                21          21
                22          22
                23          23
                24          24
                25          25
                26          26
                27          27
                28          28
                29          29
                30          30
                31          31
                32          32
                33          33
                34          34
                35          35
                36          36
                37          37
                38          38
                39          39
                40          40
                41          41
                42          42
                43          43
                44          44
                45          45
                46          46
                47          47
                48          48
                49          49
                50          50
                51          51
                52          52
                53          53
                54          54
                55          55
                56          56
                57          57
                58          58
                59          59
                60          60
                61          61
                62          62
                63          63
                64          64
                65          65
                66          66
                67          67
                68          68
                69          69
                70          70
                71          71
                72          72
                73          73
                74          74
                75          75
                76          76
                77          77
                78          78
                79          79
                80          80
                81          81
                82          82
                83          83
                84          84
                85          85
                86          86
                87          87
                88          88
                89          89
                90          90
                91          91
                92          92
                93          93
                94          94
                95          95
                96          96
                97          97
                98          98
                99          99
               100         100
               101         101
               102         102
               103         103
               104         104
               105         105
               106         106
               107         107
               108         108
               109         109
               110         110
               111         111
               112         112
               113         113
               114         114
               115         115
               116         116
               117         117
               118         118
               119         119
               120         120
               121         121
               122         122
               123         123
               124         124
               125         125

----------------------------------------------------------------------------------------


 -----------------------------------------------------------------------------
|                                                                             |
|           W    W    AA    RRRRR   N    N  II  N    N   GGGG   !!!           |
|           W    W   A  A   R    R  NN   N  II  NN   N  G    G  !!!           |
|           W    W  A    A  R    R  N N  N  II  N N  N  G       !!!           |
|           W WW W  AAAAAA  RRRRR   N  N N  II  N  N N  G  GGG   !            |
|           WW  WW  A    A  R   R   N   NN  II  N   NN  G    G                |
|           W    W  A    A  R    R  N    N  II  N    N   GGGG   !!!           |
|                                                                             |
|     The requested file  could not be found or opened for reading            |
|     k-point information. Automatic k-point generation is used as a          |
|     fallback, which may lead to unwanted results.                           |
|                                                                             |
 -----------------------------------------------------------------------------



Automatic generation of k-mesh.
 Grid dimensions derived from KSPACING:
 generate k-points for:    2    2    3

 Generating k-lattice:

  Cartesian coordinates                     Fractional coordinates (reciprocal lattice)
     0.034300970  0.000000000  0.000000000     0.500000000  0.000000000  0.000000000
     0.000000000  0.034300970  0.000000000     0.000000000  0.500000000  0.000000000
     0.000000000  0.000000000  0.032839064     0.000000000  0.000000000  0.333333333

  Length of vectors
     0.034300970  0.034300970  0.032839064

  Shift w.r.t. Gamma in fractional coordinates (k-lattice)
     0.000000000  0.000000000  0.000000000

 
 Subroutine IBZKPT returns following result:
 ===========================================
 
 Found      8 irreducible k-points:
 
 Following reciprocal coordinates:
            Coordinates               Weight
  0.000000  0.000000  0.000000      1.000000
  0.500000  0.000000  0.000000      1.000000
  0.000000  0.500000  0.000000      1.000000
  0.500000  0.500000  0.000000      1.000000
  0.000000  0.000000  0.333333      2.000000
  0.500000  0.000000  0.333333      2.000000
  0.000000  0.500000  0.333333      2.000000
  0.500000  0.500000  0.333333      2.000000
 
 Following cartesian coordinates:
            Coordinates               Weight
  0.000000  0.000000  0.000000      1.000000
  0.034301  0.000000  0.000000      1.000000
  0.000000  0.034301  0.000000      1.000000
  0.034301  0.034301  0.000000      1.000000
  0.000000  0.000000  0.032839      2.000000
  0.034301  0.000000  0.032839      2.000000
  0.000000  0.034301  0.032839      2.000000
  0.034301  0.034301  0.032839      2.000000
 


--------------------------------------------------------------------------------------------------------




 Dimension of arrays:
   k-points           NKPTS =      8   k-points in BZ     NKDIM =      8   number of bands    NBANDS=    248
   number of dos      NEDOS =   2000   number of ions     NIONS =    125
   non local maximal  LDIM  =      4   non local SUM 2l+1 LMDIM =      8
   total plane-waves  NPLWV = ******
   max r-space proj   IRMAX =      1   max aug-charges    IRDMAX= 420175
   dimension x,y,z NGX =   168 NGY =  168 NGZ =  120
   dimension x,y,z NGXF=   336 NGYF=  336 NGZF=  240
   support grid    NGXF=   672 NGYF=  672 NGZF=  480
   ions per type =              46  79
   NGX,Y,Z   is equivalent  to a cutoff of  19.16, 19.16, 19.65 a.u.
   NGXF,Y,Z  is equivalent  to a cutoff of  38.32, 38.32, 39.31 a.u.

 SYSTEM =  a-Si SPC                                
 POSCAR =   H Si                                   

 Startparameter for this run:
   NWRITE =      2    write-flag & timer
   PREC   = accura    normal or accurate (medium, high low for compatibility)
   ISTART =      1    job   : 0-new  1-cont  2-samecut
   ICHARG =      1    charge: 1-file 2-atom 10-const
   ISPIN  =      1    spin polarized calculation?
   LNONCOLLINEAR =      F non collinear calculations
   LSORBIT =      F    spin-orbit coupling
   INIWAV =      1    electr: 0-lowe 1-rand  2-diag
   LASPH  =      T    aspherical Exc in radial PAW
 Electronic Relaxation 1
   ENCUT  = 1200.0 eV  88.20 Ry    9.39 a.u.  41.17 41.17 28.67*2*pi/ulx,y,z
   ENINI  = 1200.0     initial cutoff
   ENAUG  =  400.0 eV  augmentation charge cutoff
   NELM   =    150;   NELMIN=  2; NELMDL=  0     # of ELM steps 
   EDIFF  = 0.1E-05   stopping-criterion for ELM
   LREAL  =      F    real-space projection
   NLSPLINE    = F    spline interpolate recip. space projectors
   LCOMPAT=      F    compatible to vasp.4.4
   GGA_COMPAT  = T    GGA compatible to vasp.4.4-vasp.4.6
   LMAXPAW     = -100 max onsite density
   LMAXMIX     =    2 max onsite mixed and CHGCAR
   VOSKOWN=      0    Vosko Wilk Nusair interpolation
   ROPT   =    0.00000   0.00000
 Ionic relaxation
   EDIFFG = -.1E-01   stopping-criterion for IOM
   NSW    =      0    number of steps for IOM
   NBLOCK =      1;   KBLOCK =      1    inner block; outer block 
   IBRION =     -1    ionic relax: 0-MD 1-quasi-New 2-CG
   NFREE  =      0    steps in history (QN), initial steepest desc. (CG)
   ISIF   =      2    stress and relaxation
   IWAVPR =     10    prediction:  0-non 1-charg 2-wave 3-comb
   ISYM   =      1    0-nonsym 1-usesym 2-fastsym
   LCORR  =      T    Harris-Foulkes like correction to forces

   POTIM  = 0.5000    time-step for ionic-motion
   TEIN   =    0.0    initial temperature
   TEBEG  =    0.0;   TEEND  =   0.0 temperature during run
   SMASS  =  -3.00    Nose mass-parameter (am)
   estimated Nose-frequenzy (Omega)   =  0.10E-29 period in steps = 0.13E+47 mass=  -0.486E-26a.u.
   SCALEE = 1.0000    scale energy and forces
   NPACO  =    256;   APACO  = 10.0  distance and # of slots for P.C.
   PSTRESS=    0.0 pullay stress

  Mass of Ions in am
   POMASS =   1.00 28.09
  Ionic Valenz
   ZVAL   =   1.00  4.00
  Atomic Wigner-Seitz radii
   RWIGS  =  -1.00 -1.00
  virtual crystal weights 
   VCA    =   1.00  1.00
   NELECT =     362.0000    total number of electrons
   NUPDOWN=      -1.0000    fix difference up-down

 DOS related values:
   EMIN   =  10.00;   EMAX   =-10.00  energy-range for DOS
   EFERMI =   0.00;   METHOD = LEGACY      
   ISMEAR =     0;   SIGMA  =   0.10  broadening in eV -4-tet -1-fermi 0-gaus
   EFERMI_NEDOS =   21; number of points for ismear=-14 and -15

 Electronic relaxation 2 (details)
   IALGO  =     38    algorithm
   LDIAG  =      F    sub-space diagonalisation (order eigenvalues)
   LSUBROT=      F    optimize rotation matrix (better conditioning)
   TURBO    =      0    0=normal 1=particle mesh
   IRESTART =      0    0=no restart 2=restart with 2 vectors
   NREBOOT  =      0    no. of reboots
   NMIN     =      0    reboot dimension
   EREF     =   0.00    reference energy to select bands
   IMIX   =      4    mixing-type and parameters
     AMIX     =   0.40;   BMIX     =  1.00
     AMIX_MAG =   1.60;   BMIX_MAG =  1.00
     AMIN     =   0.10
     WC   =   100.;   INIMIX=   1;  MIXPRE=   1;  MAXMIX= -45

 Intra band minimization:
   WEIMIN = 0.0000     energy-eigenvalue tresh-hold
   EBREAK =  0.10E-08  absolut break condition
   DEPER  =   0.30     relativ break condition  

   TIME   =   0.40     timestep for ELM

  volume/ion in A,a.u.               =      17.25       116.44
  Fermi-wavevector in a.u.,A,eV,Ry     =   0.903038  1.706494 11.095243  0.815477
  Thomas-Fermi vector in A             =   2.026315

 Write flags
   LWAVE        =      F    write WAVECAR
   LDOWNSAMPLE  =      F    k-point downsampling of WAVECAR
   LCHARG       =      F    write CHGCAR
   LVTOT        =      F    write LOCPOT, total local potential
   LVHAR        =      F    write LOCPOT, Hartree potential only
   WRT_POTENTIAL= false  ! write potential to hdf5 file
   LELF         =      F    write electronic localiz. function (ELF)
   LORBIT       =     11    0 simple, 1 ext, 2 COOP (PROOUT), +10 PAW based schemes


 Python interface
   PLUGINS active      =      F    recompile with -DPLUGINS to activate

 Dipole corrections
   LMONO      =      F    monopole corrections only (constant potential shift)
   LDIPOL     =      F    correct potential (dipole corrections)
   IDIPOL     =      0    1-x, 2-y, 3-z, 4-all directions 
   EPSILON    =  1.0000000 bulk dielectric constant
   LVACPOTAV  =      F  vacuum potentials using an averaging scheme for the charge density
   VACPOTFLAT =  0.1000000 required flatness to determine vacuum potential

Coulomb truncation method
  LTRUNCATE          =      F  Coulomb kernel truncation to be used
  IDIMENSIONALITY    =      3  Dimensionality of cutoff (0 molecules / 2 surfaces)
  ISURFACE           =     -1  Direction of surface normal
  LCOARSEN           =      F  Coarsen the charge grid before padding, preferred


 Exchange correlation treatment:
   METAGGA = SCAN    functional components
   XC_C    = 1    coefficients multiplying the functional components
   LIBXC   =     F    Libxc                    
   VOSKOWN =     0    Vosko Wilk Nusair interpolation
   LHFCALC =     F    Hartree Fock is set to
   LHFONE  =     F    Hartree Fock one center treatment
   AEXX    =    0.0000 exact exchange contribution

 Parameters of functionals:
   SCAN:
     P1 =  0.000000E+00
     P2 =  0.000000E+00
     P3 =  0.000000E+00

 Accuracy and mixing parameters for tau-dependent meta-GGA functionals:
   LMAXTAU = 6
   LMIXTAU = T

 Van der Waals corrections
   IVDW    =     0    specifies the selected vdW correction

 Linear response parameters
   LEPSILON=     F    determine dielectric tensor
   LRPA    =     F    only Hartree local field effects (RPA)
   LNABLA  =     F    use nabla operator in PAW spheres
   LVEL    =     F    velocity operator in full k-point grid
   CSHIFT  =0.1000    complex shift for real part using Kramers Kronig
   OMEGAMAX=  -1.0    maximum frequency
   DEG_THRESHOLD= 0.2000000E-02 threshold for treating states as degnerate
   RTIME   =   -0.100 relaxation time in fs
  (WPLASMAI=    0.000 imaginary part of plasma frequency in eV, 0.658/RTIME)
   DFIELD  = 0.0000000 0.0000000 0.0000000 field for delta impulse in time

  Optional k-point grid parameters
   LKPOINTS_OPT  =     F    use optional k-point grid
   KPOINTS_OPT_MODE=     1    mode for optional k-point grid

 Orbital magnetization related:
   ORBITALMAG=     F  switch on orbital magnetization
   LCHIMAG   =     F  perturbation theory with respect to B field
   DQ        =  0.001000  dq finite difference perturbation B field
   LLRAUG    =     F  two centre corrections for induced B field
   LBONE     =     F  B-component reconstruction in AE one-centre
   LVGVCALC  =     T  calculate vGv susceptibility
   LVGVAPPL  =     F  apply vGv susceptibility instead of pGv for G=0

 Random number generation:
   RANDOM_GENERATOR = DEFAULT
   PCG_SEED         = not used


--------------------------------------------------------------------------------------------------------


 Static calculation
 charge density and potential will be updated during run
 non-spin polarized calculation
 Variant of blocked Davidson
 perform Loewdin sub-space diagonalisation
    ordering is kept fixed
    before iterative eigenvector-optimisation
 modified Broyden-mixing scheme, WC =      100.0
 initial mixing is a Kerker type mixing with AMIX =  0.4000 and BMIX =      1.0000
 Hartree-type preconditioning will be used
 using additional bands           67
 reciprocal scheme for non local part
 use partial core corrections
 calculate Harris-corrections to forces   (improved forces if not selfconsistent)
 use gradient corrections 
 use of overlap-Matrix (Vanderbilt PP)
 Gauss-broadening in eV      SIGMA  =   0.10


--------------------------------------------------------------------------------------------------------


  energy-cutoff  :     1200.00
  volume of cell :     2156.83
      direct lattice vectors                 reciprocal lattice vectors
    14.576847242  0.000000000  0.000000000     0.068601940  0.000000000  0.000000000
     0.000000000 14.576847242  0.000000000     0.000000000  0.068601940  0.000000000
     0.000000000  0.000000000 10.150512556     0.000000000  0.000000000  0.098517193

  length of vectors
    14.576847242 14.576847242 10.150512556     0.068601940  0.068601940  0.098517193



 old parameters found on file WAVECAR:
  energy-cutoff  :     1200.00
  volume of cell :     2156.83
      direct lattice vectors                 reciprocal lattice vectors
    14.576847242  0.000000000  0.000000000     0.068601940  0.000000000  0.000000000
     0.000000000 14.576847242  0.000000000     0.000000000  0.068601940  0.000000000
     0.000000000  0.000000000 10.150512556     0.000000000  0.000000000  0.098517193

  length of vectors


 k-points in units of 2pi/SCALE and weight: read from INCAR                         
   0.00000000  0.00000000  0.00000000       0.083
   0.03430097  0.00000000  0.00000000       0.083
   0.00000000  0.03430097  0.00000000       0.083
   0.03430097  0.03430097  0.00000000       0.083
   0.00000000  0.00000000  0.03283906       0.167
   0.03430097  0.00000000  0.03283906       0.167
   0.00000000  0.03430097  0.03283906       0.167
   0.03430097  0.03430097  0.03283906       0.167

 k-points in reciprocal lattice and weights: read from INCAR                         
   0.00000000  0.00000000  0.00000000       0.083
   0.50000000  0.00000000  0.00000000       0.083
   0.00000000  0.50000000  0.00000000       0.083
   0.50000000  0.50000000  0.00000000       0.083
   0.00000000  0.00000000  0.33333333       0.167
   0.50000000  0.00000000  0.33333333       0.167
   0.00000000  0.50000000  0.33333333       0.167
   0.50000000  0.50000000  0.33333333       0.167

 position of ions in fractional coordinates (direct lattice) 
   0.29305514  0.00592397  0.72827160
   0.89378038  0.14073002  0.91023088
   0.17205915  0.09689475  0.18245877
   0.18187746  0.06295525  0.41469433
   0.95390312  0.01153741  0.05089172
   0.11114886  0.97721956  0.60344440
   0.26440766  0.85058173  0.92437106
   0.86011740  0.34965723  0.81723853
   0.19307399  0.06836513  0.34135912
   0.19064616  0.86630530  0.20912244
   0.02127415  0.77334281  0.42881874
   0.19916858  0.91663854  0.19367889
   0.14694604  0.81774199  0.62558319
   0.98861570  0.18057883  0.11412921
   0.73940543  0.46446189  0.89849650
   0.12731079  0.82377896  0.69315712
   0.24320074  0.01594069  0.73783565
   0.98087054  0.10653127  0.37860256
   0.86970795  0.05347480  0.18713439
   0.98315498  0.36793416  0.84142155
   0.22357166  0.11366861  0.58612311
   0.12520334  0.11674815  0.16566454
   0.95813586  0.01008810  0.98518178
   0.05628330  0.72826447  0.19484238
   0.09310861  0.99797427  0.66898100
   0.19012959  0.75748890  0.38085367
   0.28604059  0.88914288  0.95635860
   0.18969054  0.70919314  0.73742385
   0.22019439  0.75639813  0.44519033
   0.86485780  0.81475780  0.06627183
   0.80356196  0.94816113  0.50479027
   0.93369984  0.69187115  0.22978249
   0.08812811  0.74654689  0.23822245
   0.03329931  0.15167683  0.79691542
   0.96122980  0.08489764  0.43947436
   0.18715981  0.21637120  0.89814972
   0.94062864  0.98818867  0.71537570
   0.10081810  0.79058934  0.98601174
   0.89348539  0.98989855  0.74199603
   0.24931934  0.74147721  0.15267899
   0.06722640  0.13285314  0.75100543
   0.31104463  0.03877190  0.98698273
   0.13058311  0.81261056  0.93273418
   0.96913961  0.77501670  0.40747597
   0.91856626  0.81582113  0.60616052
   0.36521478  0.87017445  0.76722530
   0.53982935  0.89185266  0.95848263
   0.14837571  0.35907079  0.64171242
   0.99592180  0.34845464  0.54632315
   0.05152657  0.52471977  0.04656198
   0.76720980  0.75886094  0.41044233
   0.57959584  0.24949359  0.15251151
   0.52414146  0.74016005  0.45884185
   0.97072431  0.51176979  0.60913870
   0.85176855  0.60708121  0.71942081
   0.58707551  0.06934764  0.75497665
   0.69840891  0.90438624  0.90204410
   0.82965814  0.34123017  0.14720537
   0.27398860  0.31462771  0.52212339
   0.39389450  0.12154755  0.36960597
   0.91698841  0.59820137  0.94923482
   0.84913423  0.28291371  0.53829498
   0.51944017  0.51368584  0.13299624
   0.44242626  0.44834112  0.66745694
   0.03946025  0.37853041  0.96248243
   0.58609450  0.98709959  0.55280952
   0.77060559  0.06229049  0.22105682
   0.72089663  0.88320882  0.27944008
   0.60281760  0.08332735  0.16136229
   0.66195178  0.41437561  0.42326138
   0.53838185  0.77397395  0.12212093
   0.52668728  0.04264242  0.96234746
   0.63783751  0.54136878  0.29282462
   0.30648740  0.58954724  0.34114238
   0.90987439  0.51958218  0.39870696
   0.22738319  0.61260915  0.75046063
   0.39946155  0.46320785  0.28222122
   0.51752137  0.02228891  0.34037493
   0.76206465  0.82852621  0.07337669
   0.20714081  0.55558447  0.98299174
   0.54133859  0.22936990  0.70049073
   0.81674726  0.47813906  0.99927326
   0.43888366  0.65117922  0.04763907
   0.30781828  0.16884515  0.58846289
   0.41937944  0.37410627  0.48308201
   0.40345418  0.36709584  0.86123139
   0.49985980  0.24380032  0.47024423
   0.78465527  0.29731120  0.75837156
   0.60678210  0.44487123  0.63871750
   0.46841748  0.67668885  0.82430025
   0.37611837  0.68695925  0.48904723
   0.81486756  0.39646502  0.37690510
   0.63557091  0.34472063  0.80813752
   0.75924511  0.57367343  0.16622313
   0.27749965  0.40827210  0.96147361
   0.56989415  0.83745818  0.62072432
   0.65379570  0.64825197  0.45326874
   0.74339806  0.04112590  0.79111867
   0.37883158  0.59406673  0.68528855
   0.20268169  0.35484353  0.33357724
   0.38306637  0.11100960  0.98014164
   0.62957029  0.67179959  0.82474850
   0.63571566  0.26079508  0.36328707
   0.38707890  0.20407568  0.17025544
   0.69306482  0.58125258  0.66561860
   0.53826454  0.38220473  0.99088592
   0.56006624  0.86349262  0.31035182
   0.73829408  0.20613923  0.10661629
   0.38901965  0.21395367  0.78843703
   0.30833759  0.35117745  0.17621278
   0.98348427  0.27927713  0.13020623
   0.17297499  0.50819014  0.38414218
   0.45744391  0.83442598  0.78938772
   0.17277261  0.31609784  0.86291800
   0.04549605  0.33701183  0.31829329
   0.67937530  0.68889382  0.05028613
   0.74222497  0.03196734  0.56349273
   0.83376740  0.75586990  0.61363108
   0.80220365  0.15782974  0.90714434
   0.70552293  0.80049546  0.72923510
   0.12752140  0.51316172  0.61532755
   0.03921047  0.49721451  0.26182323
   0.29588154  0.64525819  0.12918954
   0.76037018  0.16156237  0.42523271
   0.85684509  0.64804137  0.31020108

 position of ions in cartesian coordinates  (Angst):
   4.27182000  0.08635276  7.39233000
  13.02850000  2.05140000  9.23931000
   2.50808000  1.41242000  1.85205000
   2.65120000  0.91768900  4.20936000
  13.90490000  0.16817900  0.51657700
   1.62020000 14.24478024  6.12527000
   3.85423000 12.39880000  9.38284000
  12.53780000  5.09690000  8.29539000
   2.81441000  0.99654800  3.46497000
   2.77902000 12.62800000  2.12270000
   0.31011000 11.27290000  4.35273000
   2.90325000 13.36170000  1.96594000
   2.14201000 11.92010000  6.34999000
  14.41090000  2.63227000  1.15847000
  10.77820000  6.77039000  9.12020000
   1.85579000 12.00810000  7.03590000
   3.54510000  0.23236500  7.48941000
  14.29800000  1.55289000  3.84301000
  12.67760000  0.77949400  1.89951000
  14.33130000  5.36332000  8.54086000
   3.25897000  1.65693000  5.94945000
   1.82507000  1.70182000  1.68158000
  13.96660000  0.14705276 10.00010000
   0.82043300 10.61580000  1.97775000
   1.35723000 14.54731854  6.79050000
   2.77149000 11.04180000  3.86586000
   4.16957000 12.96090000  9.70753000
   2.76509000 10.33780000  7.48523000
   3.20974000 11.02590000  4.51891000
  12.60690000 11.87660000  0.67269300
  11.71340000 13.82120000  5.12388000
  13.61040000 10.08530000  2.33241000
   1.28463000 10.88230000  2.41808000
   0.48539900  2.21097000  8.08910000
  14.01170000  1.23754000  4.46089000
   2.72820000  3.15401000  9.11668000
  13.71140000 14.40467524  7.26143000
   1.46961000 11.52430000 10.00852456
  13.02420000 14.42960000  7.53164000
   3.63429000 10.80840000  1.54977000
   0.97994900  1.93658000  7.62309000
   4.53405000  0.56517200 10.01838056
   1.90349000 11.84530000  9.46773000
  14.12700000 11.29730000  4.13609000
  13.38980000 11.89210000  6.15284000
   5.32368000 12.68440000  7.78773000
   7.86901000 13.00040000  9.72909000
   2.16285000  5.23412000  6.51371000
  14.51740000  5.07937000  5.54546000
   0.75109500  7.64876000  0.47262800
  11.18350000 11.06180000  4.16620000
   8.44868000  3.63683000  1.54807000
   7.64033000 10.78920000  4.65748000
  14.15010000  7.45999000  6.18307000
  12.41610000  8.84933000  7.30249000
   8.55771000  1.01087000  7.66340000
  10.18060000 13.18310000  9.15621000
  12.09380000  4.97406000  1.49421000
   3.99389000  4.58628000  5.29982000
   5.74174000  1.77178000  3.75169000
  13.36680000  8.71989000  9.63522000
  12.37770000  4.12399000  5.46397000
   7.57180000  7.48792000  1.34998000
   6.44918000  6.53540000  6.77503000
   0.57520600  5.51778000  9.76969000
   8.54341000 14.38880000  5.61130000
  11.23300000  0.90799900  2.24384000
  10.50840000 12.87440000  2.83646000
   8.78718000  1.21465000  1.63791000
   9.64917000  6.04029000  4.29632000
   7.84791000 11.28210000  1.23959000
   7.67744000  0.62159200  9.76832000
   9.29766000  7.89145000  2.97232000
   4.46762000  8.59374000  3.46277000
  13.26310000  7.57387000  4.04708000
   3.31453000  8.92991000  7.61756000
   5.82289000  6.75211000  2.86469000
   7.54383000  0.32490200  3.45498000
  11.10850000 12.07730000  0.74481100
   3.01946000  8.09867000  9.97787000
   7.89101000  3.34349000  7.11034000
  11.90560000  6.96976000 10.14313577
   6.39754000  9.49214000  0.48356100
   4.48702000  2.46123000  5.97320000
   6.11323000  5.45329000  4.90353000
   5.88109000  5.35110000  8.74194000
   7.28638000  3.55384000  4.77322000
  11.43780000  4.33386000  7.69786000
   8.84497000  6.48482000  6.48331000
   6.82805000  9.86399000  8.36707000
   5.48262000 10.01370000  4.96408000
  11.87820000  5.77921000  3.82578000
   9.26462000  5.02494000  8.20301000
  11.06740000  8.36235000  1.68725000
   4.04507000  5.95132000  9.75945000
   8.30726000 12.20750000  6.30067000
   9.53028000  9.44947000  4.60091000
  10.83640000  0.59948600  8.03026000
   5.52217000  8.65962000  6.95603000
   2.95446000  5.17250000  3.38598000
   5.58390000  1.61817000  9.94894000
   9.17715000  9.79272000  8.37162000
   9.26673000  3.80157000  3.68755000
   5.64239000  2.97478000  1.72818000
  10.10270000  8.47283000  6.75637000
   7.84620000  5.57134000 10.05800000
   8.16400000 12.58700000  3.15023000
  10.76200000  3.00486000  1.08221000
   5.67068000  3.11877000  8.00304000
   4.49459000  5.11906000  1.78865000
  14.33610000  4.07098000  1.32166000
   2.52143000  7.40781000  3.89924000
   6.66809000 12.16330000  8.01269000
   2.51848000  4.60771000  8.75906000
   0.66318900  4.91257000  3.23084000
   9.90315000 10.04190000  0.51043000
  10.81930000  0.46598300  5.71974000
  12.15370000 11.01820000  6.22867000
  11.69360000  2.30066000  9.20798000
  10.28430000 11.66870000  7.40211000
   1.85886000  7.48028000  6.24589000
   0.57156500  7.24782000  2.65764000
   4.31302000  9.40583000  1.31134000
  11.08380000  2.35507000  4.31633000
  12.49010000  9.44640000  3.14870000



--------------------------------------------------------------------------------------------------------


 k-point     1 :   0.0000 0.0000 0.0000  plane waves:  203569
 k-point     2 :   0.5000 0.0000 0.0000  plane waves:  203574
 k-point     3 :   0.0000 0.5000 0.0000  plane waves:  203574
 k-point     4 :   0.5000 0.5000 0.0000  plane waves:  203684
 k-point     5 :   0.0000 0.0000 0.3333  plane waves:  203478
 k-point     6 :   0.5000 0.0000 0.3333  plane waves:  203608
 k-point     7 :   0.0000 0.5000 0.3333  plane waves:  203608
 k-point     8 :   0.5000 0.5000 0.3333  plane waves:  203532

 maximum and minimum number of plane-waves per node :     12808    12678

 maximum number of plane-waves:    203684
 maximum index in each direction: 
   IXMAX=   41   IYMAX=   41   IZMAX=   28
   IXMIN=  -41   IYMIN=  -41   IZMIN=  -29


 parallel 3D FFT for wavefunctions:
    minimum data exchange during FFTs selected (reduces bandwidth)
 parallel 3D FFT for charge:
    minimum data exchange during FFTs selected (reduces bandwidth)


 total amount of memory used by VASP MPI-rank0   192091. kBytes
=======================================================================

   base                                    :      30000. kBytes
   nonl-proj                               :      38634. kBytes
   fftplans                                :      40941. kBytes
   grid                                    :      31575. kBytes
   one-center                              :         24. kBytes
   wavefun                                 :      50917. kBytes

     INWAV:  cpu time      9.0099: real time      9.0132
 Broyden mixing: mesh for mixing (old mesh)
   NGX = 83   NGY = 83   NGZ = 57
  (NGX  =336   NGY  =336   NGZ  =240)
  gives a total of 392673 points

 initial charge density was supplied:
 number of electron     361.9999999 magnetization 
 keeping initial charge density in first step


--------------------------------------------------------------------------------------------------------


 Maximum index for augmentation-charges        11667 (set IRDMAX)


--------------------------------------------------------------------------------------------------------


 First call to EWALD:  gamma=   0.137
 Maximum number of real-space cells   3x   3x   3
 Maximum number of reciprocal cells   3x   3x   2

    FEWALD:  cpu time      0.0217: real time      0.0217


--------------------------------------- Ionic step        1  -------------------------------------------




--------------------------------------- Iteration      1(   1)  ---------------------------------------


    POTLOK:  cpu time      0.7251: real time      0.7256
    SETDIJ:  cpu time      1.5819: real time      1.5833
    EDDIAG:  cpu time     21.0067: real time     21.0238
     EDDAV:  cpu time    106.0076: real time    106.0990
       DOS:  cpu time      0.0108: real time      0.0111
    CHARGE:  cpu time      9.2394: real time      9.2467
    MIXING:  cpu time      0.0236: real time      0.0237
    --------------------------------------------
      LOOP:  cpu time    138.5952: real time    138.7133

 eigenvalue-minimisations  :  4392
 total energy-change (2. order) :-0.9820561E+03  (-0.1015091E+01)
 number of electron     361.9999999 magnetization 
 augmentation part      -16.6969363 magnetization 

 Broyden mixing:
  rms(total) = 0.11675E+01    rms(broyden)= 0.48465E+02
  rms(prec ) = 0.12717E+01
  weight for this iteration     100.00
  WARNING: grid for Broyden might be to small

 Free energy of the ion-electron system (eV)
  ---------------------------------------------------
  alpha Z        PSCENC =       130.39604074
  Ewald energy   TEWEN  =     -5973.44587720
  -Hartree energ DENC   =     -3611.51492306
  -exchange      EXHF   =         0.00000000
  -V(xc)+E(xc)   XCENC  =      -233.12595781
  PAW double counting   =     33061.49552876   -32275.41690917
  entropy T*S    EENTRO =        -0.07359062
  eigenvalues    EBANDS =      -797.11506221
  atomic energy  EATOM  =      8716.74468240
  Solvation  Ediel_sol  =         0.00000000
  ---------------------------------------------------
  free energy    TOTEN  =      -982.05606816 eV

  energy without entropy =     -981.98247755  energy(sigma->0) =     -982.01927285


--------------------------------------------------------------------------------------------------------




--------------------------------------- Iteration      1(   2)  ---------------------------------------


    POTLOK:  cpu time      0.7227: real time      0.7233
    SETDIJ:  cpu time      1.5761: real time      1.5767
    EDDIAG:  cpu time     20.9607: real time     20.9788
     EDDAV:  cpu time    101.7106: real time    101.8004
       DOS:  cpu time      0.0041: real time      0.0041
    CHARGE:  cpu time      9.1855: real time      9.1937
    MIXING:  cpu time      0.0168: real time      0.0169
    --------------------------------------------
      LOOP:  cpu time    134.1764: real time    134.2939

 eigenvalue-minimisations  :  4096
 total energy-change (2. order) : 0.6479216E+02  (-0.1035954E+01)
 number of electron     361.9999999 magnetization 
 augmentation part      -16.6304234 magnetization 

 Broyden mixing:
  rms(total) = 0.77809E+00    rms(broyden)= 0.27656E+02
  rms(prec ) = 0.83258E+00
  weight for this iteration     100.00
  WARNING: grid for Broyden might be to small

 eigenvalues of (default mixing * dielectric matrix)
  average eigenvalue GAMMA=   0.6367
  0.6367

 Free energy of the ion-electron system (eV)
  ---------------------------------------------------
  alpha Z        PSCENC =       130.39604074
  Ewald energy   TEWEN  =     -5973.44587720
  -Hartree energ DENC   =     -3600.59918584
  -exchange      EXHF   =         0.00000000
  -V(xc)+E(xc)   XCENC  =      -226.21753731
  PAW double counting   =     39473.16066196   -38686.83280612
  entropy T*S    EENTRO =        -0.08988294
  eigenvalues    EBANDS =      -750.38000129
  atomic energy  EATOM  =      8716.74468240
  Solvation  Ediel_sol  =         0.00000000
  ---------------------------------------------------
  free energy    TOTEN  =      -917.26390561 eV

  energy without entropy =     -917.17402267  energy(sigma->0) =     -917.21896414


--------------------------------------------------------------------------------------------------------




--------------------------------------- Iteration      1(   3)  ---------------------------------------


    POTLOK:  cpu time      0.7089: real time      0.7260
    SETDIJ:  cpu time      1.5726: real time      1.5736
    EDDIAG:  cpu time     20.9633: real time     20.9818
     EDDAV:  cpu time    101.6113: real time    101.7017
       DOS:  cpu time      0.0043: real time      0.0043
    CHARGE:  cpu time      9.0675: real time      9.0745
    MIXING:  cpu time      0.0142: real time      0.0142
    --------------------------------------------
      LOOP:  cpu time    133.9420: real time    134.0761

 eigenvalue-minimisations  :  4080
 total energy-change (2. order) :-0.2665205E+01  (-0.7635642E+00)
 number of electron     361.9999999 magnetization 
 augmentation part      -16.5789423 magnetization 

 Broyden mixing:
  rms(total) = 0.47197E+00    rms(broyden)= 0.19136E+02
  rms(prec ) = 0.52732E+00
  weight for this iteration     100.00
  WARNING: grid for Broyden might be to small

 eigenvalues of (default mixing * dielectric matrix)
  average eigenvalue GAMMA=   0.6932
  0.7599  0.6265

 Free energy of the ion-electron system (eV)
  ---------------------------------------------------
  alpha Z        PSCENC =       130.39604074
  Ewald energy   TEWEN  =     -5973.44587720
  -Hartree energ DENC   =     -3605.04864948
  -exchange      EXHF   =         0.00000000
  -V(xc)+E(xc)   XCENC  =      -230.31637706
  PAW double counting   =     44531.98404807   -43745.73696196
  entropy T*S    EENTRO =        -0.05974293
  eigenvalues    EBANDS =      -744.44627306
  atomic energy  EATOM  =      8716.74468240
  Solvation  Ediel_sol  =         0.00000000
  ---------------------------------------------------
  free energy    TOTEN  =      -919.92911048 eV

  energy without entropy =     -919.86936755  energy(sigma->0) =     -919.89923902


--------------------------------------------------------------------------------------------------------




--------------------------------------- Iteration      1(   4)  ---------------------------------------


    POTLOK:  cpu time      0.7079: real time      0.7242
    SETDIJ:  cpu time      1.5728: real time      1.5739
    EDDIAG:  cpu time     21.0488: real time     21.0665
     EDDAV:  cpu time    107.4344: real time    107.5250
       DOS:  cpu time      0.0044: real time      0.0044
    CHARGE:  cpu time      9.1886: real time      9.1978
    MIXING:  cpu time      0.0146: real time      0.0146
    --------------------------------------------
      LOOP:  cpu time    139.9715: real time    140.1063

 eigenvalue-minimisations  :  4480
 total energy-change (2. order) :-0.2893768E+00  (-0.1261656E+00)
 number of electron     361.9999999 magnetization 
 augmentation part      -16.5774776 magnetization 

 Broyden mixing:
  rms(total) = 0.14915E+00    rms(broyden)= 0.18231E+01
  rms(prec ) = 0.28686E+00
  weight for this iteration     100.00
  WARNING: grid for Broyden might be to small

 eigenvalues of (default mixing * dielectric matrix)
  average eigenvalue GAMMA=   0.7586
  1.0720  0.6205  0.5834

 Free energy of the ion-electron system (eV)
  ---------------------------------------------------
  alpha Z        PSCENC =       130.39604074
  Ewald energy   TEWEN  =     -5973.44587720
  -Hartree energ DENC   =     -3611.54316888
  -exchange      EXHF   =         0.00000000
  -V(xc)+E(xc)   XCENC  =      -230.28414537
  PAW double counting   =     51963.93774528   -51177.75988994
  entropy T*S    EENTRO =        -0.10160687
  eigenvalues    EBANDS =      -738.16226739
  atomic energy  EATOM  =      8716.74468240
  Solvation  Ediel_sol  =         0.00000000
  ---------------------------------------------------
  free energy    TOTEN  =      -920.21848724 eV

  energy without entropy =     -920.11688037  energy(sigma->0) =     -920.16768381


--------------------------------------------------------------------------------------------------------




--------------------------------------- Iteration      1(   5)  ---------------------------------------


    POTLOK:  cpu time      0.7054: real time      0.7235
    SETDIJ:  cpu time      1.5727: real time      1.5741
    EDDIAG:  cpu time     21.0423: real time     21.0607
     EDDAV:  cpu time    107.6143: real time    107.7086
       DOS:  cpu time      0.0044: real time      0.0044
    CHARGE:  cpu time      9.1909: real time      9.1992
    MIXING:  cpu time      0.0145: real time      0.0145
    --------------------------------------------
      LOOP:  cpu time    140.1446: real time    140.2849

 eigenvalue-minimisations  :  4496
 total energy-change (2. order) : 0.1214103E-01  (-0.7286391E-01)
 number of electron     361.9999999 magnetization 
 augmentation part      -16.5727276 magnetization 

 Broyden mixing:
  rms(total) = 0.65067E-01    rms(broyden)= 0.23295E+01
  rms(prec ) = 0.11688E+00
  weight for this iteration     100.00
  WARNING: grid for Broyden might be to small

 eigenvalues of (default mixing * dielectric matrix)
  average eigenvalue GAMMA=   0.9185
  1.8896  0.7621  0.6221  0.4002

 Free energy of the ion-electron system (eV)
  ---------------------------------------------------
  alpha Z        PSCENC =       130.39604074
  Ewald energy   TEWEN  =     -5973.44587720
  -Hartree energ DENC   =     -3612.88569094
  -exchange      EXHF   =         0.00000000
  -V(xc)+E(xc)   XCENC  =      -231.08533312
  PAW double counting   =     52449.77084709   -51663.58479628
  entropy T*S    EENTRO =        -0.06368128
  eigenvalues    EBANDS =      -736.05253762
  atomic energy  EATOM  =      8716.74468240
  Solvation  Ediel_sol  =         0.00000000
  ---------------------------------------------------
  free energy    TOTEN  =      -920.20634621 eV

  energy without entropy =     -920.14266493  energy(sigma->0) =     -920.17450557


--------------------------------------------------------------------------------------------------------




--------------------------------------- Iteration      1(   6)  ---------------------------------------


    POTLOK:  cpu time      0.7074: real time      0.7236
    SETDIJ:  cpu time      1.5966: real time      1.5972
    EDDIAG:  cpu time     21.0522: real time     21.0696
     EDDAV:  cpu time    103.8335: real time    103.9250
       DOS:  cpu time      0.0035: real time      0.0035
    CHARGE:  cpu time      9.1433: real time      9.1506
    MIXING:  cpu time      0.0153: real time      0.0153
    --------------------------------------------
      LOOP:  cpu time    136.3518: real time    136.4849

 eigenvalue-minimisations  :  4232
 total energy-change (2. order) : 0.8899875E-02  (-0.6667848E-02)
 number of electron     361.9999999 magnetization 
 augmentation part      -16.5744034 magnetization 

 Broyden mixing:
  rms(total) = 0.28016E-01    rms(broyden)= 0.32994E+00
  rms(prec ) = 0.44842E-01
  weight for this iteration     100.00
  WARNING: grid for Broyden might be to small

 eigenvalues of (default mixing * dielectric matrix)
  average eigenvalue GAMMA=   1.0167
  2.4982  0.9287  0.6493  0.6380  0.3692

 Free energy of the ion-electron system (eV)
  ---------------------------------------------------
  alpha Z        PSCENC =       130.39604074
  Ewald energy   TEWEN  =     -5973.44587720
  -Hartree energ DENC   =     -3612.92021368
  -exchange      EXHF   =         0.00000000
  -V(xc)+E(xc)   XCENC  =      -231.42522842
  PAW double counting   =     52174.87885340   -51388.67403134
  entropy T*S    EENTRO =        -0.07545936
  eigenvalues    EBANDS =      -735.67621288
  atomic energy  EATOM  =      8716.74468240
  Solvation  Ediel_sol  =         0.00000000
  ---------------------------------------------------
  free energy    TOTEN  =      -920.19744633 eV

  energy without entropy =     -920.12198697  energy(sigma->0) =     -920.15971665


--------------------------------------------------------------------------------------------------------




--------------------------------------- Iteration      1(   7)  ---------------------------------------


    POTLOK:  cpu time      0.7036: real time      0.7230
    SETDIJ:  cpu time      1.5745: real time      1.5752
    EDDIAG:  cpu time     21.0618: real time     21.0783
     EDDAV:  cpu time    113.6721: real time    113.7702
       DOS:  cpu time      0.0055: real time      0.0055
    CHARGE:  cpu time      9.1248: real time      9.1333
    MIXING:  cpu time      0.0149: real time      0.0150
    --------------------------------------------
      LOOP:  cpu time    146.1573: real time    146.3005

 eigenvalue-minimisations  :  4888
 total energy-change (2. order) : 0.1172464E-02  (-0.5096278E-03)
 number of electron     361.9999999 magnetization 
 augmentation part      -16.5739643 magnetization 

 Broyden mixing:
  rms(total) = 0.13715E-01    rms(broyden)= 0.11806E+00
  rms(prec ) = 0.15812E-01
  weight for this iteration     100.00
  WARNING: grid for Broyden might be to small

 eigenvalues of (default mixing * dielectric matrix)
  average eigenvalue GAMMA=   1.0197
  2.5936  1.1135  0.7731  0.3750  0.6315  0.6315

 Free energy of the ion-electron system (eV)
  ---------------------------------------------------
  alpha Z        PSCENC =       130.39604074
  Ewald energy   TEWEN  =     -5973.44587720
  -Hartree energ DENC   =     -3613.17142710
  -exchange      EXHF   =         0.00000000
  -V(xc)+E(xc)   XCENC  =      -231.39148315
  PAW double counting   =     52155.43499891   -51369.21973143
  entropy T*S    EENTRO =        -0.08082083
  eigenvalues    EBANDS =      -735.46265621
  atomic energy  EATOM  =      8716.74468240
  Solvation  Ediel_sol  =         0.00000000
  ---------------------------------------------------
  free energy    TOTEN  =      -920.19627387 eV

  energy without entropy =     -920.11545304  energy(sigma->0) =     -920.15586346


--------------------------------------------------------------------------------------------------------




--------------------------------------- Iteration      1(   8)  ---------------------------------------


    POTLOK:  cpu time      0.7115: real time      0.7262
    SETDIJ:  cpu time      1.5730: real time      1.5744
    EDDIAG:  cpu time     21.1037: real time     21.1219
     EDDAV:  cpu time    103.7454: real time    103.8393
       DOS:  cpu time      0.0043: real time      0.0043
    CHARGE:  cpu time      9.1550: real time      9.1632
    MIXING:  cpu time      0.0149: real time      0.0149
    --------------------------------------------
      LOOP:  cpu time    136.3078: real time    136.4442

 eigenvalue-minimisations  :  4216
 total energy-change (2. order) :-0.1016793E-02  (-0.2488165E-03)
 number of electron     361.9999999 magnetization 
 augmentation part      -16.5728023 magnetization 

 Broyden mixing:
  rms(total) = 0.88865E-02    rms(broyden)= 0.33843E-01
  rms(prec ) = 0.14177E-01
  weight for this iteration     100.00
  WARNING: grid for Broyden might be to small

 eigenvalues of (default mixing * dielectric matrix)
  average eigenvalue GAMMA=   1.0770
  2.6333  1.5579  0.9887  0.3778  0.7206  0.6378  0.6225

 Free energy of the ion-electron system (eV)
  ---------------------------------------------------
  alpha Z        PSCENC =       130.39604074
  Ewald energy   TEWEN  =     -5973.44587720
  -Hartree energ DENC   =     -3613.62050618
  -exchange      EXHF   =         0.00000000
  -V(xc)+E(xc)   XCENC  =      -231.29750990
  PAW double counting   =     52155.07208401   -51368.84423546
  entropy T*S    EENTRO =        -0.08287202
  eigenvalues    EBANDS =      -735.11909705
  atomic energy  EATOM  =      8716.74468240
  Solvation  Ediel_sol  =         0.00000000
  ---------------------------------------------------
  free energy    TOTEN  =      -920.19729066 eV

  energy without entropy =     -920.11441864  energy(sigma->0) =     -920.15585465


--------------------------------------------------------------------------------------------------------




--------------------------------------- Iteration      1(   9)  ---------------------------------------


    POTLOK:  cpu time      0.7035: real time      0.7213
    SETDIJ:  cpu time      1.5743: real time      1.5749
    EDDIAG:  cpu time     21.1000: real time     21.1174
     EDDAV:  cpu time    107.6636: real time    107.7570
       DOS:  cpu time      0.0049: real time      0.0049
    CHARGE:  cpu time      9.2516: real time      9.2589
    MIXING:  cpu time      0.0147: real time      0.0158
    --------------------------------------------
      LOOP:  cpu time    140.3128: real time    140.4504

 eigenvalue-minimisations  :  4456
 total energy-change (2. order) :-0.5283605E-04  (-0.4481758E-04)
 number of electron     361.9999999 magnetization 
 augmentation part      -16.5723135 magnetization 

 Broyden mixing:
  rms(total) = 0.29043E-02    rms(broyden)= 0.66357E-01
  rms(prec ) = 0.35198E-02
  weight for this iteration     100.00
  WARNING: grid for Broyden might be to small

 eigenvalues of (default mixing * dielectric matrix)
  average eigenvalue GAMMA=   1.1179
  2.7862  2.1230  1.0331  0.3757  0.7787  0.6642  0.6308  0.5519

 Free energy of the ion-electron system (eV)
  ---------------------------------------------------
  alpha Z        PSCENC =       130.39604074
  Ewald energy   TEWEN  =     -5973.44587720
  -Hartree energ DENC   =     -3613.79235883
  -exchange      EXHF   =         0.00000000
  -V(xc)+E(xc)   XCENC  =      -231.28538774
  PAW double counting   =     52163.20116935   -51376.96830844
  entropy T*S    EENTRO =        -0.08089602
  eigenvalues    EBANDS =      -734.96640775
  atomic energy  EATOM  =      8716.74468240
  Solvation  Ediel_sol  =         0.00000000
  ---------------------------------------------------
  free energy    TOTEN  =      -920.19734350 eV

  energy without entropy =     -920.11644748  energy(sigma->0) =     -920.15689549


--------------------------------------------------------------------------------------------------------




--------------------------------------- Iteration      1(  10)  ---------------------------------------


    POTLOK:  cpu time      0.7068: real time      0.7272
    SETDIJ:  cpu time      1.5743: real time      1.5754
    EDDIAG:  cpu time     21.1045: real time     21.1221
     EDDAV:  cpu time    105.2541: real time    105.3465
       DOS:  cpu time      0.0041: real time      0.0041
    CHARGE:  cpu time      9.1020: real time      9.1107
    MIXING:  cpu time      0.0154: real time      0.0154
    --------------------------------------------
      LOOP:  cpu time    137.7610: real time    137.9012

 eigenvalue-minimisations  :  4296
 total energy-change (2. order) :-0.4101261E-04  (-0.1809436E-04)
 number of electron     361.9999999 magnetization 
 augmentation part      -16.5721219 magnetization 

 Broyden mixing:
  rms(total) = 0.14289E-02    rms(broyden)= 0.56907E-01
  rms(prec ) = 0.24358E-02
  weight for this iteration     100.00
  WARNING: grid for Broyden might be to small

 eigenvalues of (default mixing * dielectric matrix)
  average eigenvalue GAMMA=   1.2008
  3.1089  2.5298  1.2002  1.0104  0.7885  0.3746  0.6500  0.6252  0.5199

 Free energy of the ion-electron system (eV)
  ---------------------------------------------------
  alpha Z        PSCENC =       130.39604074
  Ewald energy   TEWEN  =     -5973.44587720
  -Hartree energ DENC   =     -3613.89655421
  -exchange      EXHF   =         0.00000000
  -V(xc)+E(xc)   XCENC  =      -231.26783597
  PAW double counting   =     52167.36185214   -51381.12482730
  entropy T*S    EENTRO =        -0.08071071
  eigenvalues    EBANDS =      -734.88415439
  atomic energy  EATOM  =      8716.74468240
  Solvation  Ediel_sol  =         0.00000000
  ---------------------------------------------------
  free energy    TOTEN  =      -920.19738451 eV

  energy without entropy =     -920.11667380  energy(sigma->0) =     -920.15702916


--------------------------------------------------------------------------------------------------------




--------------------------------------- Iteration      1(  11)  ---------------------------------------


    POTLOK:  cpu time      0.7056: real time      0.7234
    SETDIJ:  cpu time      1.5728: real time      1.5738
    EDDIAG:  cpu time     21.0377: real time     21.0571
     EDDAV:  cpu time    113.1023: real time    113.2042
       DOS:  cpu time      0.0042: real time      0.0042
    CHARGE:  cpu time      9.0701: real time      9.0780
    MIXING:  cpu time      0.0159: real time      0.0159
    --------------------------------------------
      LOOP:  cpu time    145.5086: real time    145.6566

 eigenvalue-minimisations  :  4840
 total energy-change (2. order) :-0.3686277E-05  (-0.2424336E-05)
 number of electron     361.9999999 magnetization 
 augmentation part      -16.5721864 magnetization 

 Broyden mixing:
  rms(total) = 0.70955E-03    rms(broyden)= 0.20674E-01
  rms(prec ) = 0.11247E-02
  weight for this iteration     100.00
  WARNING: grid for Broyden might be to small

 eigenvalues of (default mixing * dielectric matrix)
  average eigenvalue GAMMA=   1.2156
  3.6003  2.5437  1.4049  1.0068  0.8080  0.3745  0.6919  0.4849  0.6307  0.6102

 Free energy of the ion-electron system (eV)
  ---------------------------------------------------
  alpha Z        PSCENC =       130.39604074
  Ewald energy   TEWEN  =     -5973.44587720
  -Hartree energ DENC   =     -3613.90891341
  -exchange      EXHF   =         0.00000000
  -V(xc)+E(xc)   XCENC  =      -231.27498187
  PAW double counting   =     52166.13590702   -51379.89765938
  entropy T*S    EENTRO =        -0.08089894
  eigenvalues    EBANDS =      -734.86568756
  atomic energy  EATOM  =      8716.74468240
  Solvation  Ediel_sol  =         0.00000000
  ---------------------------------------------------
  free energy    TOTEN  =      -920.19738820 eV

  energy without entropy =     -920.11648925  energy(sigma->0) =     -920.15693873


--------------------------------------------------------------------------------------------------------




--------------------------------------- Iteration      1(  12)  ---------------------------------------


    POTLOK:  cpu time      0.7060: real time      0.7271
    SETDIJ:  cpu time      1.5772: real time      1.5777
    EDDIAG:  cpu time     21.0846: real time     21.1005
     EDDAV:  cpu time    107.2468: real time    107.3407
       DOS:  cpu time      0.0041: real time      0.0041
    CHARGE:  cpu time      9.1139: real time      9.1214
    MIXING:  cpu time      0.0159: real time      0.0159
    --------------------------------------------
      LOOP:  cpu time    139.7485: real time    139.8874

 eigenvalue-minimisations  :  4440
 total energy-change (2. order) :-0.4966831E-05  (-0.9913425E-06)
 number of electron     361.9999999 magnetization 
 augmentation part      -16.5722315 magnetization 

 Broyden mixing:
  rms(total) = 0.21577E-03    rms(broyden)= 0.70245E-02
  rms(prec ) = 0.31808E-03
  weight for this iteration     100.00
  WARNING: grid for Broyden might be to small

 eigenvalues of (default mixing * dielectric matrix)
  average eigenvalue GAMMA=   1.2255
  3.7390  2.5712  1.4873  1.0277  1.0277  0.8585  0.3745  0.4832  0.6695  0.6320
  0.6099

 Free energy of the ion-electron system (eV)
  ---------------------------------------------------
  alpha Z        PSCENC =       130.39604074
  Ewald energy   TEWEN  =     -5973.44587720
  -Hartree energ DENC   =     -3613.91222930
  -exchange      EXHF   =         0.00000000
[...]
   -.262E+02 -.103E+02 0.605E+01   0.276E+02 0.112E+02 -.547E+01   -.168E+01 -.301E-01 -.617E+00   0.470E-04 -.117E-03 0.315E-04
   -.870E+02 0.122E+02 0.981E+01   0.856E+02 -.128E+02 -.941E+01   0.188E+01 -.605E+00 -.101E+01   0.485E-03 -.392E-04 -.950E-04
   -.109E+03 -.519E+02 -.213E+02   0.108E+03 0.534E+02 0.197E+02   0.123E+01 -.131E+01 0.197E+01   0.422E-03 0.246E-03 -.100E-03
   -.613E+02 0.313E+02 0.533E+01   0.644E+02 -.326E+02 -.626E+01   -.547E+01 0.326E+01 -.305E+00   0.350E-03 -.179E-03 0.682E-04
   -.706E+02 -.297E+02 -.212E+01   0.690E+02 0.303E+02 0.392E+01   0.738E+00 -.388E+00 -.819E+00   0.298E-03 -.324E-04 -.251E-04
   0.321E+01 -.766E+02 -.232E+02   -.353E+01 0.742E+02 0.228E+02   0.155E+01 0.339E+01 0.468E+00   0.772E-04 0.114E-03 0.558E-04
   -.116E+02 -.565E+02 0.136E+02   0.119E+02 0.546E+02 -.123E+02   -.845E+00 0.140E+01 0.588E-01   0.386E-05 0.158E-03 -.792E-04
   0.557E+02 -.838E+02 0.645E+01   -.549E+02 0.839E+02 -.501E+01   -.239E+01 0.892E+00 -.112E+01   -.753E-04 0.156E-03 -.117E-04
   -.719E+02 0.408E+02 -.107E+02   0.716E+02 -.420E+02 0.110E+02   0.653E+00 0.726E+00 -.577E+00   0.272E-03 -.147E-03 -.745E-04
   -.709E+02 -.686E+02 0.308E+01   0.713E+02 0.677E+02 -.410E+01   -.243E+00 0.214E+01 -.404E+00   0.273E-03 0.329E-03 -.191E-04
 -----------------------------------------------------------------------------------------------
   0.955E+01 0.492E+01 -.470E+01   -.114E-12 0.156E-12 -.417E-13   -.954E+01 -.493E+01 0.471E+01   0.150E-02 -.145E-02 0.511E-04


 POSITION                                       TOTAL-FORCE (eV/Angst)
 -----------------------------------------------------------------------------------
      4.27182      0.08635      7.39233        -0.210087     -0.161140      0.176746
     13.02850      2.05140      9.23931         2.887658     -0.323301      0.426124
      2.50808      1.41242      1.85205        -0.608076      0.326329     -0.422897
      2.65120      0.91769      4.20936         0.143737     -0.000045     -0.707173
     13.90490      0.16818      0.51658        -0.201857      0.007726      3.271926
      1.62020     14.24478      6.12527        -0.439752      0.502002      0.985297
      3.85423     12.39880      9.38284        -0.336729     -0.589680     -0.244722
     12.53780      5.09690      8.29539         0.002598      0.533153      0.159593
      2.81441      0.99655      3.46497        -0.207328     -0.190775      1.018961
      2.77902     12.62800      2.12270         0.122894      0.664899     -0.138871
      0.31011     11.27290      4.35273        -1.333432      0.101091     -0.333189
      2.90325     13.36170      1.96594        -0.124463     -0.542748      0.143274
      2.14201     11.92010      6.34999        -0.165110      0.121782      0.230560
     14.41090      2.63227      1.15847        -0.018044     -0.624898     -0.217771
     10.77820      6.77039      9.12020         0.408737      0.186474      0.512898
      1.85579     12.00810      7.03590         0.031744      0.069058     -0.341371
      3.54510      0.23237      7.48941         0.279675     -0.217442      0.086905
     14.29800      1.55289      3.84301        -0.036989     -0.127166      0.206323
     12.67760      0.77949      1.89951        -0.288888     -0.236032     -0.237472
     14.33130      5.36332      8.54086        -0.374346      0.220454      0.140975
      3.25897      1.65693      5.94945        -0.138929     -0.062692      0.346099
      1.82507      1.70182      1.68158         0.553009     -0.198531     -0.033259
     13.96660      0.14705     10.00010         0.402811     -0.186193     -3.359058
      0.82043     10.61580      1.97775        -1.354511     -0.818776     -1.413663
      1.35723     14.54732      6.79050         0.358325     -0.420179     -1.054605
      2.77149     11.04180      3.86586         0.362538      0.071702      0.947091
      4.16957     12.96090      9.70753         0.277055      0.597709      0.423216
      2.76509     10.33780      7.48523         0.526419     -0.675103      0.106573
      3.20974     11.02590      4.51891        -0.661580      0.081601     -0.981685
     12.60690     11.87660      0.67269        -0.327720      0.197130      0.032157
     11.71340     13.82120      5.12388        -0.595737      1.393745      0.545111
     13.61040     10.08530      2.33241        -0.448889     -0.350235      0.286758
      1.28463     10.88230      2.41808         1.519374      0.804454      1.234151
      0.48540      2.21097      8.08910        -0.298908      0.122801      0.233014
     14.01170      1.23754      4.46089         0.148482      0.066547     -0.194676
      2.72820      3.15401      9.11668        -0.012497      0.358499     -0.190072
     13.71140     14.40468      7.26143         0.432517     -0.067073     -0.091108
      1.46961     11.52430     10.00852         0.360160      0.296506     -0.547731
     13.02420     14.42960      7.53164        -0.064576     -0.049780      0.090221
      3.63429     10.80840      1.54977         0.629356     -0.981441     -0.564305
      0.97995      1.93658      7.62309         0.234401     -0.115373     -0.259857
      4.53405      0.56517     10.01838        -0.113180      0.229394     -0.043044
      1.90349     11.84530      9.46773        -0.518319     -0.342942      0.534525
     14.12700     11.29730      4.13609         1.558583      0.016067      0.420637
     13.38980     11.89210      6.15284        -0.557003     -0.168298      0.509297
      5.32368     12.68440      7.78773        -0.143722      0.272108     -0.319119
      7.86901     13.00040      9.72909         0.484337     -1.357829      0.449034
      2.16285      5.23412      6.51371        -0.007458     -0.607225      1.213186
     14.51740      5.07937      5.54546         0.258187     -0.113405     -0.032424
      0.75110      7.64876      0.47263         0.367917      0.357050     -1.753199
     11.18350     11.06180      4.16620         0.186282     -0.750750     -0.332202
      8.44868      3.63683      1.54807        -0.417943     -0.049999     -0.705445
      7.64033     10.78920      4.65748        -0.031208      0.220149     -0.350644
     14.15010      7.45999      6.18307        -1.034845     -0.359559     -0.207268
     12.41610      8.84933      7.30249         0.964447     -0.281989     -0.403018
      8.55771      1.01087      7.66340         0.000286      1.714202     -0.412520
     10.18060     13.18310      9.15621         0.087560      0.276085     -0.944587
     12.09380      4.97406      1.49421         0.195522      0.049163      0.104903
      3.99389      4.58628      5.29982        -0.112228     -0.447390     -0.266490
      5.74174      1.77178      3.75169         0.281965      1.008925      1.390645
     13.36680      8.71989      9.63522        -0.613917     -0.273288     -0.292840
     12.37770      4.12399      5.46397        -0.521343     -0.449837     -0.183213
      7.57180      7.48792      1.34998        -0.683150      0.337528      0.736110
      6.44918      6.53540      6.77503         1.003818      1.107036      1.079152
      0.57521      5.51778      9.76969         0.336081     -1.462914     -0.195911
      8.54341     14.38880      5.61130         0.181199      0.692104     -0.197492
     11.23300      0.90800      2.24384        -0.998645      0.671634      1.581486
     10.50840     12.87440      2.83646         0.098191      0.666008      0.053047
      8.78718      1.21465      1.63791         0.141907      0.111344     -0.338145
      9.64917      6.04029      4.29632        -0.479019     -0.588475      0.258727
      7.84791     11.28210      1.23959         0.390668     -0.366593     -0.756318
      7.67744      0.62159      9.76832        -0.527752      0.637690      0.704826
      9.29766      7.89145      2.97232        -0.935046     -1.196610     -0.730907
      4.46762      8.59374      3.46277         0.517948     -0.492754     -0.567208
     13.26310      7.57387      4.04708         1.060621      0.336422      0.157749
      3.31453      8.92991      7.61756        -1.274339     -0.684570      0.734685
      5.82289      6.75211      2.86469         0.409191     -0.435682      0.268966
      7.54383      0.32490      3.45498         0.141457     -0.681632      0.713488
     11.10850     12.07730      0.74481         0.719976     -0.856627      0.019289
      3.01946      8.09867      9.97787         0.182459      0.330140     -0.836207
      7.89101      3.34349      7.11034        -0.055438     -1.518753      0.371201
     11.90560      6.96976     10.14314        -0.541620     -0.471168      0.686352
      6.39754      9.49214      0.48356         1.601843      0.142798      0.206784
      4.48702      2.46123      5.97320         0.533171      0.109536     -0.939798
      6.11323      5.45329      4.90353        -1.053361      0.749838     -1.725282
      5.88109      5.35110      8.74194         1.335475     -0.331889     -0.925123
      7.28638      3.55384      4.77322         0.286909     -1.567640      0.560866
     11.43780      4.33386      7.69786         0.219483     -1.600483      0.376465
      8.84497      6.48482      6.48331         0.427969      0.893104      0.262423
      6.82805      9.86399      8.36707         0.095281      0.496159      0.615459
      5.48262     10.01370      4.96408         0.011548     -0.140686      0.790744
     11.87820      5.77921      3.82578         0.029261     -0.556436     -0.191286
      9.26462      5.02494      8.20301        -0.254834     -0.296406     -0.669566
     11.06740      8.36235      1.68725         0.228007      0.606878     -0.971329
      4.04507      5.95132      9.75945        -1.196180      0.746035      1.470453
      8.30726     12.20750      6.30067        -0.518967      0.327374      0.554220
      9.53028      9.44947      4.60091        -0.024751      0.742894      0.645684
     10.83640      0.59949      8.03026        -1.132306     -0.562637      0.214316
      5.52217      8.65962      6.95603         0.055449      0.449938     -1.248800
      2.95446      5.17250      3.38598        -0.931080     -0.354552      0.144770
      5.58390      1.61817      9.94894         0.166336      0.615621     -0.360736
      9.17715      9.79272      8.37162         0.452954      0.309614      0.550704
      9.26673      3.80157      3.68755        -0.151079      0.383784      0.307918
      5.64239      2.97478      1.72818         0.267398      0.484610      0.257725
     10.10270      8.47283      6.75637        -0.296515     -0.863808     -0.210370
      7.84620      5.57134     10.05800         0.698723     -0.780931      0.369947
      8.16400     12.58700      3.15023        -0.464977     -0.740995     -0.493847
     10.76200      3.00486      1.08221         0.591917      0.700335     -0.476219
      5.67068      3.11877      8.00304         0.324099     -0.768596      0.196102
      4.49459      5.11906      1.78865         0.903400     -0.316422     -1.227526
     14.33610      4.07098      1.32166        -0.847754      1.097461     -0.165294
      2.52143      7.40781      3.89924         0.087358      0.476802      0.689257
      6.66809     12.16330      8.01269         0.611105     -0.650563     -0.813826
      2.51848      4.60771      8.75906        -0.843218     -0.022075      0.232038
      0.66319      4.91257      3.23084         0.214053      0.589115      0.194709
      9.90315     10.04190      0.51043        -0.378869      0.939352     -0.096353
     10.81930      0.46598      5.71974         0.503102     -1.269083     -0.652646
     12.15370     11.01820      6.22867         0.961567      0.085970      0.480007
     11.69360      2.30066      9.20798        -2.580781      2.103249     -1.285596
     10.28430     11.66870      7.40211        -0.865151      0.212773      0.954766
      1.85886      7.48028      6.24589         1.276536      1.121933      0.065274
      0.57156      7.24782      2.65764        -0.507464     -0.477538      1.400071
      4.31302      9.40583      1.31134        -1.719941      1.155534      0.264030
     11.08380      2.35507      4.31633         0.297202     -0.425001     -0.240474
     12.49010      9.44640      3.14870         0.151616      1.325214     -1.500253
 -----------------------------------------------------------------------------------
    total drift:                                0.019140     -0.010310      0.011365


--------------------------------------------------------------------------------------------------------



  FREE ENERGIE OF THE ION-ELECTRON SYSTEM (eV)
  ---------------------------------------------------
  free  energy   TOTEN  =      -920.19739476 eV

  energy  without entropy=     -920.11636682  energy(sigma->0) =     -920.15688079



--------------------------------------------------------------------------------------------------------


    POTLOK:  cpu time      2.3484: real time      2.3496


--------------------------------------------------------------------------------------------------------


     LOOP+:  cpu time   2117.7563: real time   2119.7671
    4ORBIT:  cpu time      0.0000: real time      0.0000



 total charge

# of ion       s       p       d       tot
------------------------------------------
    1        0.615   0.032   0.000   0.647
    2        0.634   0.023   0.000   0.657
    3        0.604   0.030   0.000   0.634
    4        0.600   0.030   0.000   0.630
    5        0.672   0.047   0.000   0.719
    6        0.588   0.028   0.000   0.616
    7        0.631   0.036   0.000   0.667
    8        0.578   0.019   0.000   0.596
    9        0.600   0.030   0.000   0.630
   10        0.599   0.030   0.000   0.629
   11        0.583   0.026   0.000   0.609
   12        0.603   0.029   0.000   0.632
   13        0.610   0.032   0.000   0.642
   14        0.584   0.017   0.000   0.601
   15        0.549   0.015   0.000   0.564
   16        0.612   0.032   0.000   0.644
   17        0.609   0.033   0.000   0.642
   18        0.607   0.031   0.000   0.638
   19        0.558   0.016   0.000   0.575
   20        0.572   0.017   0.000   0.590
   21        0.578   0.017   0.000   0.596
   22        0.599   0.030   0.000   0.629
   23        0.671   0.047   0.000   0.718
   24        0.652   0.042   0.000   0.694
   25        0.593   0.027   0.000   0.621
   26        0.590   0.026   0.000   0.616
   27        0.630   0.036   0.000   0.667
   28        0.551   0.015   0.000   0.567
   29        0.577   0.029   0.000   0.606
   30        0.555   0.014   0.000   0.569
   31        0.517   0.011   0.000   0.529
   32        0.556   0.014   0.000   0.571
   33        0.654   0.042   0.000   0.695
   34        0.619   0.034   0.000   0.653
   35        0.606   0.031   0.000   0.637
   36        0.555   0.014   0.000   0.570
   37        0.616   0.033   0.000   0.649
   38        0.597   0.029   0.000   0.626
   39        0.619   0.035   0.000   0.654
   40        0.534   0.012   0.000   0.546
   41        0.621   0.034   0.000   0.655
   42        0.563   0.016   0.000   0.578
   43        0.600   0.029   0.000   0.629
   44        0.582   0.027   0.000   0.609
   45        0.553   0.015   0.000   0.567
   46        0.576   0.017   0.000   0.593
   47        0.754   1.001   0.000   1.756
   48        0.758   0.955   0.000   1.712
   49        0.766   0.857   0.000   1.623
   50        0.748   0.955   0.000   1.703
   51        0.757   0.978   0.000   1.735
   52        0.753   0.880   0.000   1.634
   53        0.754   0.964   0.000   1.717
   54        0.757   0.917   0.000   1.674
   55        0.761   0.837   0.000   1.599
   56        0.757   0.926   0.000   1.684
   57        0.753   0.964   0.000   1.717
   58        0.761   0.866   0.000   1.626
   59        0.754   1.021   0.000   1.775
   60        0.763   0.861   0.000   1.624
   61        0.816   0.790   0.000   1.605
   62        0.754   0.891   0.000   1.644
   63        0.749   0.886   0.000   1.634
   64        0.755   0.977   0.000   1.732
   65        0.747   0.981   0.000   1.728
   66        0.760   0.931   0.000   1.692
   67        0.730   0.874   0.000   1.603
   68        0.772   0.883   0.000   1.656
   69        0.778   0.846   0.000   1.625
   70        0.753   0.967   0.000   1.720
   71        0.758   0.901   0.000   1.659
   72        0.757   0.982   0.000   1.739
   73        0.754   0.986   0.000   1.741
   74        0.751   0.974   0.000   1.724
   75        0.762   0.990   0.000   1.752
   76        0.738   0.922   0.000   1.660
   77        0.757   0.912   0.000   1.669
   78        0.751   0.900   0.000   1.651
   79        0.747   0.987   0.000   1.734
   80        0.744   0.909   0.000   1.653
   81        0.755   0.896   0.000   1.651
   82        0.751   0.921   0.000   1.673
   83        0.751   0.938   0.000   1.689
   84        0.750   0.915   0.000   1.665
   85        0.756   1.006   0.000   1.762
   86        0.759   0.966   0.000   1.725
   87        0.765   0.935   0.000   1.700
   88        0.747   0.937   0.000   1.684
   89        0.751   0.946   0.000   1.698
   90        0.748   0.981   0.000   1.730
   91        0.786   0.889   0.000   1.675
   92        0.755   0.949   0.000   1.704
   93        0.751   0.932   0.000   1.683
   94        0.764   0.981   0.000   1.744
   95        0.752   1.008   0.000   1.760
   96        0.757   0.973   0.000   1.730
   97        0.760   0.951   0.000   1.711
   98        0.752   0.991   0.000   1.743
   99        0.743   0.971   0.000   1.713
  100        0.762   1.008   0.000   1.770
  101        0.739   0.965   0.000   1.704
  102        0.749   0.953   0.000   1.703
  103        0.750   0.972   0.000   1.721
  104        0.767   0.848   0.000   1.616
  105        0.751   0.926   0.000   1.678
  106        0.761   0.850   0.000   1.611
  107        0.756   0.904   0.000   1.660
  108        0.777   0.879   0.000   1.656
  109        0.748   0.901   0.000   1.649
  110        0.750   0.956   0.000   1.707
  111        0.742   0.984   0.000   1.726
  112        0.759   0.942   0.000   1.701
  113        0.745   1.015   0.000   1.760
  114        0.742   0.993   0.000   1.735
  115        0.754   0.959   0.000   1.713
  116        0.758   0.900   0.000   1.658
  117        0.749   0.919   0.000   1.668
  118        0.741   0.972   0.000   1.712
  119        0.753   1.026   0.000   1.778
  120        0.754   0.972   0.000   1.727
  121        0.750   0.942   0.000   1.692
  122        0.758   0.971   0.000   1.729
  123        0.738   0.987   0.000   1.725
  124        0.751   0.872   0.000   1.623
  125        0.754   1.008   0.000   1.762
--------------------------------------------------
tot         87.014  75.420   0.000 162.433


 total amount of memory used by VASP MPI-rank0   192091. kBytes
=======================================================================

   base                                    :      30000. kBytes
   nonl-proj                               :      38634. kBytes
   fftplans                                :      40941. kBytes
   grid                                    :      31575. kBytes
   one-center                              :         24. kBytes
   wavefun                                 :      50917. kBytes

  
  
 General timing and accounting informations for this job:
 ========================================================
  
                  Total CPU time used (sec):     2189.406
                            User time (sec):     2182.176
                          System time (sec):        7.230
                         Elapsed time (sec):     2191.847
  
                   Maximum memory used (kb):      380884.
                   Average memory used (kb):          N/A
  
                          Minor page faults:       256690
                          Major page faults:         1146
                 Voluntary context switches:         2249
