 vasp.6.5.0 16Dec24 (build Jan 20 2025 08:32:48) complex                         
 executed on        HPECrayEX_GCC date 2025.07.28  13:07:35
 running  128 mpi-ranks, with    1 threads/rank, on    1 nodes
 distrk:  each k-point on  128 cores,    1 groups
 distr:  one band on NCORE=  16 cores,    8 groups


--------------------------------------------------------------------------------------------------------


 INCAR:
   SYSTEM = a-Si SPC
   NCORE = 16
   ISTART = 1
   ICHARG = 1
   ISPIN = 1
   ISYM = 1
   EDIFF = 1E-6
   NELM = 150
   EDIFFG = -0.01
   NSW = 0
   ISIF = 2
   IBRION = -1
   PREC = Accurate
   ENCUT = 1200
   KSPACING = 0.23
   KGAMMA = .TRUE.
   METAGGA = SCAN
   LASPH = .TRUE.
   LDIAG = .FALSE.
   LMIXTAU = .TRUE.
   ADDGRID = .TRUE.
   ALGO = Normal
   ISMEAR = 0
   SIGMA = 0.1
   LORBIT = 11
   NEDOS = 2000
   LWAVE = .FALSE.
   LCHARG = .FALSE.

 POTCAR:    PAW_PBE H 15Jun2001                   
 POTCAR:    PAW_PBE Si 05Jan2001                  
 POTCAR:    PAW_PBE H 15Jun2001                   
   SHA256 =  030f79b5d3ab3cf0e668861823c8fb652ff669f3e15e46930bd03bfd63a607b6 H/POTCAR              
   COPYR  = (c) Copyright 15Jun2001 Georg Kresse                                                    
   COPYR  = This file is part of the software VASP. Any use, copying, and all other rights are regul
   COPYR  = If you do not have a valid VASP license, you may not use, copy or distribute this file. 
   VRHFIN =H: ultrasoft test                                                                        
   LEXCH  = PE                                                                                      
   EATOM  =    12.4884 eV,    0.9179 Ry                                                             
                                                                                                    
   TITEL  = PAW_PBE H 15Jun2001                                                                     
   LULTRA =        F    use ultrasoft PP ?                                                          
   IUNSCR =        0    unscreen: 0-lin 1-nonlin 2-no                                               
   RPACOR =    0.000    partial core radius                                                         
   POMASS =    1.000; ZVAL   =    1.000    mass and valenz                                          
   RCORE  =    1.100    outmost cutoff radius                                                       
   RWIGS  =    0.700; RWIGS  =    0.370    wigner-seitz radius (au A)                               
   ENMAX  =  250.000; ENMIN  =  200.000 eV                                                          
   RCLOC  =    0.701    cutoff for local pot                                                        
   LCOR   =        T    correct aug charges                                                         
   LPAW   =        T    paw PP                                                                      
   EAUG   =  400.000                                                                                
   RMAX   =    1.123    core radius for proj-oper                                                   
   RAUG   =    1.200    factor for augmentation sphere                                              
   RDEP   =    1.112    radius for radial grids                                                     
   RDEPT  =    0.926    core radius for aug-charge                                                  
                                                                                                    
   Atomic configuration                                                                             
    2 entries                                                                                       
     n  l   j            E        occ.                                                              
     1  0  0.50        -6.4927   1.0000                                                             
     2  1  0.50        -3.4015   0.0000                                                             
   Description                                                                                      
     l       E           TYP  RCUT    TYP  RCUT                                                     
     0     -6.4927494     23  1.100                                                                 
     0      6.8029130     23  1.100                                                                 
     1     -4.0817478     23  1.100                                                                 
  local pseudopotential read in
  atomic valenz-charges read in
  non local Contribution for L=           0  read in
    real space projection operators read in
  non local Contribution for L=           0  read in
    real space projection operators read in
  non local Contribution for L=           1  read in
    real space projection operators read in
    PAW grid and wavefunctions read in

   number of l-projection  operators is LMAX  =           3
   number of lm-projection operators is LMMAX =           5

 POTCAR:    PAW_PBE Si 05Jan2001                  
   SHA256 =  79d9987ad8750f624c4d6acb2a16d13abf6a777132adc04dc6c8399be72b42bb Si/POTCAR             
   COPYR  = (c) Copyright 05Jan2001 Georg Kresse                                                    
   COPYR  = This file is part of the software VASP. Any use, copying, and all other rights are regul
   COPYR  = If you do not have a valid VASP license, you may not use, copy or distribute this file. 
   VRHFIN =Si: s2p2                                                                                 
   LEXCH  = PE                                                                                      
   EATOM  =   103.0669 eV,    7.5752 Ry                                                             
                                                                                                    
   TITEL  = PAW_PBE Si 05Jan2001                                                                    
   LULTRA =        F    use ultrasoft PP ?                                                          
   IUNSCR =        1    unscreen: 0-lin 1-nonlin 2-no                                               
   RPACOR =    1.500    partial core radius                                                         
   POMASS =   28.085; ZVAL   =    4.000    mass and valenz                                          
   RCORE  =    1.900    outmost cutoff radius                                                       
   RWIGS  =    2.480; RWIGS  =    1.312    wigner-seitz radius (au A)                               
   ENMAX  =  245.345; ENMIN  =  184.009 eV                                                          
   ICORE  =        2    local potential                                                             
   LCOR   =        T    correct aug charges                                                         
   LPAW   =        T    paw PP                                                                      
   EAUG   =  322.069                                                                                
   DEXC   =    0.000                                                                                
   RMAX   =    1.950    core radius for proj-oper                                                   
   RAUG   =    1.300    factor for augmentation sphere                                              
   RDEP   =    1.993    radius for radial grids                                                     
   RDEPT  =    1.837    core radius for aug-charge                                                  
                                                                                                    
   Atomic configuration                                                                             
    6 entries                                                                                       
     n  l   j            E        occ.                                                              
     1  0  0.50     -1785.8828   2.0000                                                             
     2  0  0.50      -139.4969   2.0000                                                             
     2  1  1.50       -95.5546   6.0000                                                             
     3  0  0.50       -10.8127   2.0000                                                             
     3  1  0.50        -4.0811   2.0000                                                             
     3  2  1.50        -4.0817   0.0000                                                             
   Description                                                                                      
     l       E           TYP  RCUT    TYP  RCUT                                                     
     0    -10.8127223     23  1.900                                                                 
     0     -7.6451159     23  1.900                                                                 
     1     -4.0811372     23  1.900                                                                 
     1      2.4879257     23  1.900                                                                 
     2     -4.0817478      7  1.900                                                                 
  local pseudopotential read in
  partial core-charges read in
  partial kinetic energy density read in
  atomic valenz-charges read in
  non local Contribution for L=           0  read in
    real space projection operators read in
  non local Contribution for L=           0  read in
    real space projection operators read in
  non local Contribution for L=           1  read in
    real space projection operators read in
  non local Contribution for L=           1  read in
    real space projection operators read in
    PAW grid and wavefunctions read in

   number of l-projection  operators is LMAX  =           4
   number of lm-projection operators is LMMAX =           8

 -----------------------------------------------------------------------------
|                                                                             |
|               ----> ADVICE to this user running VASP <----                  |
|                                                                             |
|     You have a (more or less) 'large supercell' and for larger cells it     |
|     might be more efficient to use real-space projection operators.         |
|     Therefore, try LREAL= Auto in the INCAR file.                           |
|     Mind: For very accurate calculation, you might also keep the            |
|     reciprocal projection scheme (i.e. LREAL=.FALSE.).                      |
|                                                                             |
 -----------------------------------------------------------------------------

 -----------------------------------------------------------------------------
|                                                                             |
|               ----> ADVICE to this user running VASP <----                  |
|                                                                             |
|     You enforced a specific xc type in the INCAR file but a different       |
|     type was found in the POTCAR file.                                      |
|     I HOPE YOU KNOW WHAT YOU ARE DOING!                                     |
|                                                                             |
 -----------------------------------------------------------------------------

  PAW_PBE H 15Jun2001                   :
 energy of atom  1       EATOM=  -12.4884
 kinetic energy error for atom=    0.0000 (will be added to EATOM!!)
  PAW_PBE Si 05Jan2001                  :
 energy of atom  2       EATOM= -103.0669
 kinetic energy error for atom=    0.0001 (will be added to EATOM!!)


 POSCAR:  H Si
  positions in cartesian coordinates
  No initial velocities read in


 exchange-correlation table for SCAN
   RHO(1)=    0.500       N(1)  =     2000
   RHO(2)=  100.500       N(2)  =     4000



--------------------------------------------------------------------------------------------------------


 ion  position               nearest neighbor table
   1  0.021  0.863  0.660-  19 1.49
   2  0.026  0.571  0.479-  46 1.51
   3  0.607  0.695  0.544-  72 1.50
   4  0.687  0.232  0.390-  68 1.49
   5  0.648  0.267  0.636-  34 1.48
   6  0.924  0.517  0.552-  27 1.49
   7  0.023  0.371  0.504-  69 1.50
   8  0.241  0.110  0.605-  54 1.50
   9  0.181  0.971  0.527-  54 2.34  31 2.35  53 2.36  17 2.39
  10  0.286  0.558  0.446-  60 2.36  49 2.36  50 2.40  15 2.46  33 2.49
  11  0.178  0.456  0.570-  48 2.29  50 2.34  45 2.36
  12  0.869  0.713  0.494-  16 2.35  28 2.36  27 2.36  74 2.44  71 2.98
  13  0.588  0.390  0.505-  51 2.29  39 2.33  26 2.34  70 2.35
  14  0.963  0.934  0.471-  22 2.29  47 2.29  28 2.30  53 2.37
  15  0.357  0.413  0.417-  70 2.31  56 2.35  10 2.46  60 2.86  50 3.00
  16  0.749  0.618  0.467-  67 2.30  18 2.32  12 2.35  72 2.39
  17  0.217  0.918  0.444-  38 2.34  25 2.37   9 2.39  66 2.45
  18  0.661  0.709  0.413-  30 2.31  16 2.32  21 2.35
  19  0.988  0.826  0.610-   1 1.49  32 2.32  53 2.35  52 2.41
  20  0.445  0.165  0.629-  34 2.37  40 2.40  29 2.41  51 3.06
  21  0.700  0.864  0.423-  37 2.31  18 2.35  22 2.38  61 2.65  74 3.08
  22  0.806  0.952  0.472-  14 2.29  74 2.35  57 2.35  21 2.38  37 3.04
  23  0.434  0.548  0.558-  48 2.31  26 2.35  55 2.38  60 2.45
  24  0.461  0.043  0.424-  37 2.32  63 2.33  25 2.34
  25  0.377  0.923  0.462-  24 2.34  62 2.36  17 2.37  31 2.42  43 3.07
  26  0.583  0.493  0.573-  72 2.33  13 2.34  23 2.35
  27  0.927  0.619  0.559-   6 1.49  32 2.29  71 2.33  12 2.36
  28  0.980  0.786  0.441-  14 2.30  66 2.34  12 2.36
  29  0.382  0.283  0.576-  48 2.25  58 2.31  51 2.34  20 2.41
  30  0.504  0.691  0.423-  62 2.28  18 2.31  60 2.33
  31  0.332  0.932  0.550-  43 2.34   9 2.35  40 2.37  25 2.42
  32  0.050  0.680  0.601-  27 2.29  45 2.32  19 2.32
  33  0.237  0.690  0.499-  45 2.34  66 2.35  43 2.41  10 2.49  49 3.00
  34  0.598  0.201  0.604-   5 1.48  51 2.30  36 2.32  20 2.37
  35  0.828  0.137  0.583-  64 2.25  36 2.28  42 2.32
  36  0.683  0.085  0.566-  35 2.28  34 2.32  65 2.33  57 2.41
  37  0.607  0.988  0.444-  21 2.31  24 2.32  57 2.35  61 2.42  22 3.04
  38  0.172  0.041  0.392-  47 2.26  17 2.34  59 2.35
  39  0.739  0.349  0.488-  67 2.30  13 2.33  68 2.33  42 2.34
  40  0.448  0.038  0.571-  65 2.35  31 2.37  63 2.39  20 2.40
  41  0.016  0.201  0.432-  47 2.28  73 2.29  59 2.33  69 2.37
  42  0.842  0.279  0.544-  69 2.32  35 2.32  39 2.34
  43  0.357  0.773  0.543-  55 2.32  62 2.33  31 2.34  33 2.41  25 3.07
  44  0.934  0.436  0.407-  67 2.25  73 2.32  46 2.40
  45  0.188  0.618  0.574-  32 2.32  33 2.34  11 2.36  55 2.42
  46  0.068  0.515  0.437-   2 1.51  50 2.38  44 2.40  49 2.44
  47  0.025  0.046  0.420-  38 2.26  41 2.28  14 2.29  59 3.10
  48  0.333  0.429  0.576-  29 2.25  11 2.29  23 2.31
  49  0.169  0.629  0.398-  10 2.36  66 2.40  46 2.44  33 3.00
  50  0.189  0.441  0.482-  11 2.34  56 2.35  46 2.38  10 2.40  15 3.00
  51  0.522  0.257  0.534-  13 2.29  34 2.30  29 2.34  63 2.35  20 3.06
  52  0.823  0.830  0.616-  71 2.34  74 2.34  19 2.41
  53  0.028  0.942  0.553-  64 2.33  19 2.35   9 2.36  14 2.37
  54  0.196  0.123  0.554-   8 1.50  75 2.29  58 2.30   9 2.34
  55  0.342  0.657  0.602-  43 2.32  23 2.38  45 2.42
  56  0.253  0.305  0.449-  58 2.32  59 2.34  15 2.35  50 2.35
  57  0.719  0.088  0.477-  37 2.35  22 2.35  36 2.41  68 2.42
  58  0.306  0.206  0.511-  54 2.30  29 2.31  56 2.32  63 2.33
  59  0.166  0.202  0.401-  41 2.33  56 2.34  38 2.35  47 3.10
  60  0.444  0.566  0.467-  30 2.33  70 2.33  10 2.36  23 2.45  15 2.86
  61  0.610  0.875  0.511-  65 2.33  62 2.38  37 2.42  74 2.53  21 2.65
  62  0.473  0.799  0.484-  30 2.28  43 2.33  25 2.36  61 2.38
  63  0.445  0.132  0.497-  24 2.33  58 2.33  51 2.35  40 2.39
  64  0.971  0.080  0.585-  35 2.25  75 2.26  53 2.33
  65  0.588  0.960  0.584-  61 2.33  36 2.33  40 2.35
  66  0.139  0.769  0.443-  28 2.34  33 2.35  49 2.40  17 2.45
  67  0.803  0.473  0.447-  44 2.25  16 2.30  39 2.30
  68  0.756  0.227  0.432-   4 1.49  39 2.33  73 2.41  57 2.42
  69  0.990  0.274  0.511-   7 1.50  75 2.30  42 2.32  41 2.37
  70  0.513  0.437  0.430-  15 2.31  60 2.33  13 2.35
  71  0.794  0.676  0.596-  27 2.33  52 2.34  72 2.35  74 2.90  12 2.98
  72  0.673  0.616  0.547-   3 1.50  26 2.33  71 2.35  16 2.39
  73  0.898  0.281  0.396-  41 2.29  44 2.32  68 2.41
  74  0.776  0.835  0.531-  52 2.34  22 2.35  12 2.44  61 2.53  71 2.90  21 3.08
  75  0.066  0.202  0.576-  64 2.26  54 2.29  69 2.30

  LATTYP: Found a simple tetragonal cell.
 ALAT       =    14.5445998864
 C/A-ratio  =     1.8165417658
  
  Lattice vectors:
  
 A1 = (  14.5445998864,   0.0000000000,   0.0000000000)
 A2 = (   0.0000000000,  14.5445998864,   0.0000000000)
 A3 = (   0.0000000000,   0.0000000000,  26.4208731600)


Analysis of symmetry for initial positions (statically):
=====================================================================
 Subroutine PRICEL returns:
 Original cell was already a primitive cell.
 

 Routine SETGRP: Setting up the symmetry group for a 
 simple tetragonal supercell.


 Subroutine GETGRP returns: Found  1 space group operations
 (whereof  1 operations were pure point group operations)
 out of a pool of 16 trial point group operations.


The static configuration has the point symmetry C_1 .


Analysis of symmetry for dynamics (positions and initial velocities):
=====================================================================
 Subroutine PRICEL returns:
 Original cell was already a primitive cell.
 

 Routine SETGRP: Setting up the symmetry group for a 
 simple tetragonal supercell.


 Subroutine GETGRP returns: Found  1 space group operations
 (whereof  1 operations were pure point group operations)
 out of a pool of 16 trial point group operations.


The dynamic configuration has the point symmetry C_1 .


 Subroutine INISYM returns: Found  1 space group operations
 (whereof  1 operations are pure point group operations),
 and found     1 'primitive' translations


----------------------------------------------------------------------------------------

                                     Primitive cell                                     

  volume of cell :    5589.2138

  direct lattice vectors                    reciprocal lattice vectors
    14.544599886  0.000000000  0.000000000     0.068754040  0.000000000  0.000000000
     0.000000000 14.544599886  0.000000000     0.000000000  0.068754040  0.000000000
     0.000000000  0.000000000 26.420873160     0.000000000  0.000000000  0.037848863

  length of vectors
    14.544599886 14.544599886 26.420873160     0.068754040  0.068754040  0.037848863

  position of ions in fractional coordinates (direct lattice)
     0.020973670  0.863081909  0.659864456
     0.026480768  0.570932116  0.479097362
     0.606993576  0.694793964  0.543556764
     0.687178998  0.232390608  0.389999421
     0.648394294  0.266507890  0.636376312
     0.924135424  0.517462182  0.551990212
     0.023495856  0.370617661  0.504409848
     0.240680907  0.109854253  0.605255615
     0.180843448  0.971036700  0.526966138
     0.286209023  0.557840832  0.446104275
     0.177501931  0.456177487  0.569524343
     0.869472495  0.713456355  0.493501134
     0.587540329  0.389677239  0.504977685
     0.962633047  0.934022550  0.470990929
     0.357364982  0.413368336  0.417472428
     0.749089840  0.617662441  0.466777235
     0.217371928  0.917946351  0.443787645
     0.660818270  0.708882802  0.413428455
     0.988227577  0.826063564  0.610322002
     0.444949906  0.165220698  0.629392227
     0.699760584  0.864403510  0.423424573
     0.806353511  0.952142652  0.472116712
     0.433543984  0.547554988  0.558461300
     0.460926400  0.042757638  0.424460487
     0.376785277  0.923206769  0.461610195
     0.583067542  0.492745631  0.573180889
     0.927399365  0.619015639  0.558895885
     0.979649064  0.785904389  0.441426361
     0.382162819  0.282908790  0.575517766
     0.503991071  0.691189102  0.423239077
     0.331819794  0.931593843  0.549747380
     0.050153373  0.679980637  0.601255772
     0.236997591  0.689911909  0.499438845
     0.597606752  0.200748910  0.604198913
     0.827600838  0.136763999  0.583481032
     0.683253289  0.084933890  0.566257069
     0.606985271  0.988331060  0.443773254
     0.172348363  0.041218481  0.392495062
     0.739168957  0.349103431  0.487905710
     0.448421911  0.038342937  0.571477231
     0.016113925  0.201075615  0.432101844
     0.842042357  0.278793914  0.544183050
     0.357216665  0.773192988  0.542662734
     0.934140697  0.435799015  0.406539844
     0.188307421  0.617853522  0.573932462
     0.067941323  0.515206356  0.436630709
     0.025255610  0.045689070  0.420493010
     0.332569473  0.429378459  0.575605274
     0.169305767  0.628732801  0.397804695
     0.189290445  0.441367217  0.481597127
     0.521881460  0.256990649  0.534364779
     0.822658930  0.830077747  0.615576048
     0.028298309  0.942271754  0.552861082
     0.196182483  0.123273212  0.554486647
     0.341940361  0.657351667  0.602163254
     0.252549300  0.304857885  0.449169318
     0.718623666  0.087608493  0.477205338
     0.305651895  0.206111146  0.511462206
     0.165804683  0.201872069  0.400601163
     0.443805958  0.565639868  0.466542750
     0.609853966  0.874572526  0.510543165
     0.473322453  0.799372520  0.483635878
     0.445340874  0.131861426  0.497025642
     0.971218399  0.079842667  0.585416700
     0.587970341  0.959964427  0.584168255
     0.139382071  0.768600463  0.443235949
     0.803043741  0.473287490  0.446731944
     0.755962996  0.226636069  0.431562355
     0.989606047  0.274293624  0.511097786
     0.512975083  0.437215818  0.430333284
     0.793877681  0.676015513  0.596311516
     0.673475983  0.615928180  0.547077686
     0.898259223  0.281283197  0.395712699
     0.775519402  0.835126288  0.530950443
     0.065611729  0.202036191  0.576142598

  ion indices of the primitive-cell ions
   primitive index   ion index
                 1           1
                 2           2
                 3           3
                 4           4
                 5           5
                 6           6
                 7           7
                 8           8
                 9           9
                10          10
                11          11
                12          12
                13          13
                14          14
                15          15
                16          16
                17          17
                18          18
                19          19
                20          20
                21          21
                22          22
                23          23
                24          24
                25          25
                26          26
                27          27
                28          28
                29          29
                30          30
                31          31
                32          32
                33          33
                34          34
                35          35
                36          36
                37          37
                38          38
                39          39
                40          40
                41          41
                42          42
                43          43
                44          44
                45          45
                46          46
                47          47
                48          48
                49          49
                50          50
                51          51
                52          52
                53          53
                54          54
                55          55
                56          56
                57          57
                58          58
                59          59
                60          60
                61          61
                62          62
                63          63
                64          64
                65          65
                66          66
                67          67
                68          68
                69          69
                70          70
                71          71
                72          72
                73          73
                74          74
                75          75

----------------------------------------------------------------------------------------


 -----------------------------------------------------------------------------
|                                                                             |
|           W    W    AA    RRRRR   N    N  II  N    N   GGGG   !!!           |
|           W    W   A  A   R    R  NN   N  II  NN   N  G    G  !!!           |
|           W    W  A    A  R    R  N N  N  II  N N  N  G       !!!           |
|           W WW W  AAAAAA  RRRRR   N  N N  II  N  N N  G  GGG   !            |
|           WW  WW  A    A  R   R   N   NN  II  N   NN  G    G                |
|           W    W  A    A  R    R  N    N  II  N    N   GGGG   !!!           |
|                                                                             |
|     The requested file  could not be found or opened for reading            |
|     k-point information. Automatic k-point generation is used as a          |
|     fallback, which may lead to unwanted results.                           |
|                                                                             |
 -----------------------------------------------------------------------------



Automatic generation of k-mesh.
 Grid dimensions derived from KSPACING:
 generate k-points for:    2    2    2

 Generating k-lattice:

  Cartesian coordinates                     Fractional coordinates (reciprocal lattice)
     0.034377020  0.000000000  0.000000000     0.500000000  0.000000000  0.000000000
     0.000000000  0.034377020  0.000000000     0.000000000  0.500000000  0.000000000
     0.000000000  0.000000000  0.018924431     0.000000000  0.000000000  0.500000000

  Length of vectors
     0.034377020  0.034377020  0.018924431

  Shift w.r.t. Gamma in fractional coordinates (k-lattice)
     0.000000000  0.000000000  0.000000000

 
 Subroutine IBZKPT returns following result:
 ===========================================
 
 Found      8 irreducible k-points:
 
 Following reciprocal coordinates:
            Coordinates               Weight
  0.000000  0.000000  0.000000      1.000000
  0.500000  0.000000  0.000000      1.000000
  0.000000  0.500000  0.000000      1.000000
  0.500000  0.500000  0.000000      1.000000
  0.000000  0.000000  0.500000      1.000000
  0.500000  0.000000  0.500000      1.000000
  0.000000  0.500000  0.500000      1.000000
  0.500000  0.500000  0.500000      1.000000
 
 Following cartesian coordinates:
            Coordinates               Weight
  0.000000  0.000000  0.000000      1.000000
  0.034377  0.000000  0.000000      1.000000
  0.000000  0.034377  0.000000      1.000000
  0.034377  0.034377  0.000000      1.000000
  0.000000  0.000000  0.018924      1.000000
  0.034377  0.000000  0.018924      1.000000
  0.000000  0.034377  0.018924      1.000000
  0.034377  0.034377  0.018924      1.000000
 


--------------------------------------------------------------------------------------------------------




 Dimension of arrays:
   k-points           NKPTS =      8   k-points in BZ     NKDIM =      8   number of bands    NBANDS=    176
   number of dos      NEDOS =   2000   number of ions     NIONS =     75
   non local maximal  LDIM  =      4   non local SUM 2l+1 LMDIM =      8
   total plane-waves  NPLWV = ******
   max r-space proj   IRMAX =      1   max aug-charges    IRDMAX= 405362
   dimension x,y,z NGX =   168 NGY =  168 NGZ =  300
   dimension x,y,z NGXF=   336 NGYF=  336 NGZF=  600
   support grid    NGXF=   672 NGYF=  672 NGZF= 1200
   ions per type =               8  67
   NGX,Y,Z   is equivalent  to a cutoff of  19.20, 19.20, 18.88 a.u.
   NGXF,Y,Z  is equivalent  to a cutoff of  38.41, 38.41, 37.75 a.u.

 SYSTEM =  a-Si SPC                                
 POSCAR =   H Si                                   

 Startparameter for this run:
   NWRITE =      2    write-flag & timer
   PREC   = accura    normal or accurate (medium, high low for compatibility)
   ISTART =      1    job   : 0-new  1-cont  2-samecut
   ICHARG =      1    charge: 1-file 2-atom 10-const
   ISPIN  =      1    spin polarized calculation?
   LNONCOLLINEAR =      F non collinear calculations
   LSORBIT =      F    spin-orbit coupling
   INIWAV =      1    electr: 0-lowe 1-rand  2-diag
   LASPH  =      T    aspherical Exc in radial PAW
 Electronic Relaxation 1
   ENCUT  = 1200.0 eV  88.20 Ry    9.39 a.u.  41.08 41.08 74.63*2*pi/ulx,y,z
   ENINI  = 1200.0     initial cutoff
   ENAUG  =  400.0 eV  augmentation charge cutoff
   NELM   =    150;   NELMIN=  2; NELMDL=  0     # of ELM steps 
   EDIFF  = 0.1E-05   stopping-criterion for ELM
   LREAL  =      F    real-space projection
   NLSPLINE    = F    spline interpolate recip. space projectors
   LCOMPAT=      F    compatible to vasp.4.4
   GGA_COMPAT  = T    GGA compatible to vasp.4.4-vasp.4.6
   LMAXPAW     = -100 max onsite density
   LMAXMIX     =    2 max onsite mixed and CHGCAR
   VOSKOWN=      0    Vosko Wilk Nusair interpolation
   ROPT   =    0.00000   0.00000
 Ionic relaxation
   EDIFFG = -.1E-01   stopping-criterion for IOM
   NSW    =      0    number of steps for IOM
   NBLOCK =      1;   KBLOCK =      1    inner block; outer block 
   IBRION =     -1    ionic relax: 0-MD 1-quasi-New 2-CG
   NFREE  =      0    steps in history (QN), initial steepest desc. (CG)
   ISIF   =      2    stress and relaxation
   IWAVPR =     10    prediction:  0-non 1-charg 2-wave 3-comb
   ISYM   =      1    0-nonsym 1-usesym 2-fastsym
   LCORR  =      T    Harris-Foulkes like correction to forces

   POTIM  = 0.5000    time-step for ionic-motion
   TEIN   =    0.0    initial temperature
   TEBEG  =    0.0;   TEEND  =   0.0 temperature during run
   SMASS  =  -3.00    Nose mass-parameter (am)
   estimated Nose-frequenzy (Omega)   =  0.10E-29 period in steps = 0.13E+47 mass=  -0.483E-26a.u.
   SCALEE = 1.0000    scale energy and forces
   NPACO  =    256;   APACO  = 10.0  distance and # of slots for P.C.
   PSTRESS=    0.0 pullay stress

  Mass of Ions in am
   POMASS =   1.00 28.09
  Ionic Valenz
   ZVAL   =   1.00  4.00
  Atomic Wigner-Seitz radii
   RWIGS  =  -1.00 -1.00
  virtual crystal weights 
   VCA    =   1.00  1.00
   NELECT =     276.0000    total number of electrons
   NUPDOWN=      -1.0000    fix difference up-down

 DOS related values:
   EMIN   =  10.00;   EMAX   =-10.00  energy-range for DOS
   EFERMI =   0.00;   METHOD = LEGACY      
   ISMEAR =     0;   SIGMA  =   0.10  broadening in eV -4-tet -1-fermi 0-gaus
   EFERMI_NEDOS =   21; number of points for ismear=-14 and -15

 Electronic relaxation 2 (details)
   IALGO  =     38    algorithm
   LDIAG  =      F    sub-space diagonalisation (order eigenvalues)
   LSUBROT=      F    optimize rotation matrix (better conditioning)
   TURBO    =      0    0=normal 1=particle mesh
   IRESTART =      0    0=no restart 2=restart with 2 vectors
   NREBOOT  =      0    no. of reboots
   NMIN     =      0    reboot dimension
   EREF     =   0.00    reference energy to select bands
   IMIX   =      4    mixing-type and parameters
     AMIX     =   0.40;   BMIX     =  1.00
     AMIX_MAG =   1.60;   BMIX_MAG =  1.00
     AMIN     =   0.10
     WC   =   100.;   INIMIX=   1;  MIXPRE=   1;  MAXMIX= -45

 Intra band minimization:
   WEIMIN = 0.0000     energy-eigenvalue tresh-hold
   EBREAK =  0.14E-08  absolut break condition
   DEPER  =   0.30     relativ break condition  

   TIME   =   0.40     timestep for ELM

  volume/ion in A,a.u.               =      74.52       502.91
  Fermi-wavevector in a.u.,A,eV,Ry     =   0.600612  1.134993  4.908101  0.360735
  Thomas-Fermi vector in A             =   1.652536

 Write flags
   LWAVE        =      F    write WAVECAR
   LDOWNSAMPLE  =      F    k-point downsampling of WAVECAR
   LCHARG       =      F    write CHGCAR
   LVTOT        =      F    write LOCPOT, total local potential
   LVHAR        =      F    write LOCPOT, Hartree potential only
   WRT_POTENTIAL= false  ! write potential to hdf5 file
   LELF         =      F    write electronic localiz. function (ELF)
   LORBIT       =     11    0 simple, 1 ext, 2 COOP (PROOUT), +10 PAW based schemes


 Python interface
   PLUGINS active      =      F    recompile with -DPLUGINS to activate

 Dipole corrections
   LMONO      =      F    monopole corrections only (constant potential shift)
   LDIPOL     =      F    correct potential (dipole corrections)
   IDIPOL     =      0    1-x, 2-y, 3-z, 4-all directions 
   EPSILON    =  1.0000000 bulk dielectric constant
   LVACPOTAV  =      F  vacuum potentials using an averaging scheme for the charge density
   VACPOTFLAT =  0.1000000 required flatness to determine vacuum potential

Coulomb truncation method
  LTRUNCATE          =      F  Coulomb kernel truncation to be used
  IDIMENSIONALITY    =      3  Dimensionality of cutoff (0 molecules / 2 surfaces)
  ISURFACE           =     -1  Direction of surface normal
  LCOARSEN           =      F  Coarsen the charge grid before padding, preferred


 Exchange correlation treatment:
   METAGGA = SCAN    functional components
   XC_C    = 1    coefficients multiplying the functional components
   LIBXC   =     F    Libxc                    
   VOSKOWN =     0    Vosko Wilk Nusair interpolation
   LHFCALC =     F    Hartree Fock is set to
   LHFONE  =     F    Hartree Fock one center treatment
   AEXX    =    0.0000 exact exchange contribution

 Parameters of functionals:
   SCAN:
     P1 =  0.000000E+00
     P2 =  0.000000E+00
     P3 =  0.000000E+00

 Accuracy and mixing parameters for tau-dependent meta-GGA functionals:
   LMAXTAU = 6
   LMIXTAU = T

 Van der Waals corrections
   IVDW    =     0    specifies the selected vdW correction

 Linear response parameters
   LEPSILON=     F    determine dielectric tensor
   LRPA    =     F    only Hartree local field effects (RPA)
   LNABLA  =     F    use nabla operator in PAW spheres
   LVEL    =     F    velocity operator in full k-point grid
   CSHIFT  =0.1000    complex shift for real part using Kramers Kronig
   OMEGAMAX=  -1.0    maximum frequency
   DEG_THRESHOLD= 0.2000000E-02 threshold for treating states as degnerate
   RTIME   =   -0.100 relaxation time in fs
  (WPLASMAI=    0.000 imaginary part of plasma frequency in eV, 0.658/RTIME)
   DFIELD  = 0.0000000 0.0000000 0.0000000 field for delta impulse in time

  Optional k-point grid parameters
   LKPOINTS_OPT  =     F    use optional k-point grid
   KPOINTS_OPT_MODE=     1    mode for optional k-point grid

 Orbital magnetization related:
   ORBITALMAG=     F  switch on orbital magnetization
   LCHIMAG   =     F  perturbation theory with respect to B field
   DQ        =  0.001000  dq finite difference perturbation B field
   LLRAUG    =     F  two centre corrections for induced B field
   LBONE     =     F  B-component reconstruction in AE one-centre
   LVGVCALC  =     T  calculate vGv susceptibility
   LVGVAPPL  =     F  apply vGv susceptibility instead of pGv for G=0

 Random number generation:
   RANDOM_GENERATOR = DEFAULT
   PCG_SEED         = not used


--------------------------------------------------------------------------------------------------------


 Static calculation
 charge density and potential will be updated during run
 non-spin polarized calculation
 Variant of blocked Davidson
 perform Loewdin sub-space diagonalisation
    ordering is kept fixed
    before iterative eigenvector-optimisation
 modified Broyden-mixing scheme, WC =      100.0
 initial mixing is a Kerker type mixing with AMIX =  0.4000 and BMIX =      1.0000
 Hartree-type preconditioning will be used
 using additional bands           38
 reciprocal scheme for non local part
 use partial core corrections
 calculate Harris-corrections to forces   (improved forces if not selfconsistent)
 use gradient corrections 
 use of overlap-Matrix (Vanderbilt PP)
 Gauss-broadening in eV      SIGMA  =   0.10


--------------------------------------------------------------------------------------------------------


  energy-cutoff  :     1200.00
  volume of cell :     5589.21
      direct lattice vectors                 reciprocal lattice vectors
    14.544599886  0.000000000  0.000000000     0.068754040  0.000000000  0.000000000
     0.000000000 14.544599886  0.000000000     0.000000000  0.068754040  0.000000000
     0.000000000  0.000000000 26.420873160     0.000000000  0.000000000  0.037848863

  length of vectors
    14.544599886 14.544599886 26.420873160     0.068754040  0.068754040  0.037848863



 old parameters found on file WAVECAR:
  energy-cutoff  :     1200.00
  volume of cell :     5589.21
      direct lattice vectors                 reciprocal lattice vectors
    14.544599886  0.000000000  0.000000000     0.068754040  0.000000000  0.000000000
     0.000000000 14.544599886  0.000000000     0.000000000  0.068754040  0.000000000
     0.000000000  0.000000000 26.420873160     0.000000000  0.000000000  0.037848863

  length of vectors


 k-points in units of 2pi/SCALE and weight: read from INCAR                         
   0.00000000  0.00000000  0.00000000       0.125
   0.03437702  0.00000000  0.00000000       0.125
   0.00000000  0.03437702  0.00000000       0.125
   0.03437702  0.03437702  0.00000000       0.125
   0.00000000  0.00000000  0.01892443       0.125
   0.03437702  0.00000000  0.01892443       0.125
   0.00000000  0.03437702  0.01892443       0.125
   0.03437702  0.03437702  0.01892443       0.125

 k-points in reciprocal lattice and weights: read from INCAR                         
   0.00000000  0.00000000  0.00000000       0.125
   0.50000000  0.00000000  0.00000000       0.125
   0.00000000  0.50000000  0.00000000       0.125
   0.50000000  0.50000000  0.00000000       0.125
   0.00000000  0.00000000  0.50000000       0.125
   0.50000000  0.00000000  0.50000000       0.125
   0.00000000  0.50000000  0.50000000       0.125
   0.50000000  0.50000000  0.50000000       0.125

 position of ions in fractional coordinates (direct lattice) 
   0.02097367  0.86308191  0.65986446
   0.02648077  0.57093212  0.47909736
   0.60699358  0.69479396  0.54355676
   0.68717900  0.23239061  0.38999942
   0.64839429  0.26650789  0.63637631
   0.92413542  0.51746218  0.55199021
   0.02349586  0.37061766  0.50440985
   0.24068091  0.10985425  0.60525561
   0.18084345  0.97103670  0.52696614
   0.28620902  0.55784083  0.44610428
   0.17750193  0.45617749  0.56952434
   0.86947249  0.71345636  0.49350113
   0.58754033  0.38967724  0.50497769
   0.96263305  0.93402255  0.47099093
   0.35736498  0.41336834  0.41747243
   0.74908984  0.61766244  0.46677724
   0.21737193  0.91794635  0.44378764
   0.66081827  0.70888280  0.41342845
   0.98822758  0.82606356  0.61032200
   0.44494991  0.16522070  0.62939223
   0.69976058  0.86440351  0.42342457
   0.80635351  0.95214265  0.47211671
   0.43354398  0.54755499  0.55846130
   0.46092640  0.04275764  0.42446049
   0.37678528  0.92320677  0.46161019
   0.58306754  0.49274563  0.57318089
   0.92739937  0.61901564  0.55889589
   0.97964906  0.78590439  0.44142636
   0.38216282  0.28290879  0.57551777
   0.50399107  0.69118910  0.42323908
   0.33181979  0.93159384  0.54974738
   0.05015337  0.67998064  0.60125577
   0.23699759  0.68991191  0.49943884
   0.59760675  0.20074891  0.60419891
   0.82760084  0.13676400  0.58348103
   0.68325329  0.08493389  0.56625707
   0.60698527  0.98833106  0.44377325
   0.17234836  0.04121848  0.39249506
   0.73916896  0.34910343  0.48790571
   0.44842191  0.03834294  0.57147723
   0.01611392  0.20107561  0.43210184
   0.84204236  0.27879391  0.54418305
   0.35721666  0.77319299  0.54266273
   0.93414070  0.43579902  0.40653984
   0.18830742  0.61785352  0.57393246
   0.06794132  0.51520636  0.43663071
   0.02525561  0.04568907  0.42049301
   0.33256947  0.42937846  0.57560527
   0.16930577  0.62873280  0.39780469
   0.18929045  0.44136722  0.48159713
   0.52188146  0.25699065  0.53436478
   0.82265893  0.83007775  0.61557605
   0.02829831  0.94227175  0.55286108
   0.19618248  0.12327321  0.55448665
   0.34194036  0.65735167  0.60216325
   0.25254930  0.30485789  0.44916932
   0.71862367  0.08760849  0.47720534
   0.30565190  0.20611115  0.51146221
   0.16580468  0.20187207  0.40060116
   0.44380596  0.56563987  0.46654275
   0.60985397  0.87457253  0.51054317
   0.47332245  0.79937252  0.48363588
   0.44534087  0.13186143  0.49702564
   0.97121840  0.07984267  0.58541670
   0.58797034  0.95996443  0.58416826
   0.13938207  0.76860046  0.44323595
   0.80304374  0.47328749  0.44673194
   0.75596300  0.22663607  0.43156235
   0.98960605  0.27429362  0.51109779
   0.51297508  0.43721582  0.43033328
   0.79387768  0.67601551  0.59631152
   0.67347598  0.61592818  0.54707769
   0.89825922  0.28128320  0.39571270
   0.77551940  0.83512629  0.53095044
   0.06561173  0.20203619  0.57614260

 position of ions in cartesian coordinates  (Angst):
   0.30505364 12.55318104 17.43419509
   0.38515218  8.30397919 12.65817062
   8.82847869 10.10550021 14.36124432
   9.99474358  3.38002841 10.30412524
   9.43063557  3.87625063 16.81361783
  13.44117999  7.52628040 14.58406338
   0.34173782  5.39048559 13.32694861
   3.50060749  1.59778616 15.99138183
   2.63029559 14.12334028 13.92290549
   4.16279572  8.11357170 11.78646447
   2.58169456  6.63491902 15.04733044
  12.64612955 10.37693722 13.03873087
   8.54553900  5.66769952 13.34195137
  14.00111250 13.58498427 12.44399160
   5.19773067  6.01227705 11.02998606
  10.89521200  8.98365307 12.33266213
   3.16158772 13.35116239 11.72525707
   9.61133734 10.31041672 10.92314077
  14.37337471 12.01476402 16.12524019
   6.47161835  2.40306894 16.62909219
  10.17773771 12.57240320 11.18724693
  11.72808919 13.84853391 12.47373577
   6.30572378  7.96396822 14.75503517
   6.70399006  0.62189273 11.21461668
   5.48019109 13.42767307 12.19614441
   8.48048410  7.16678805 15.14393956
  13.48865270  9.00333479 14.76651729
  14.24860366 11.43066489 11.66286989
   5.55840530  4.11479515 15.20568189
   7.33034848 10.05306893 11.18234598
   4.82618614 13.54965970 14.52480580
   0.72946074  9.89004629 15.88570248
   3.44703513 10.03449268 13.19561037
   8.69195110  2.91981258 15.96346284
  12.03712306  1.98917765 15.41607834
   9.93764571  1.23532945 14.96100619
   8.82835791 14.37487982 11.72487685
   2.50673798  0.59950631 10.37006225
  10.75091673  5.07756973 12.89089489
   6.52211728  0.55768267 15.09892743
   0.23437059  2.92456436 11.41650800
  12.24716917  4.05494593 14.37779133
   5.19557346 11.24578265 14.33762327
  13.58670267  6.33852231 10.74113765
   2.73885610  8.98643227 15.16379678
   0.98817936  7.49347030 11.53616459
   0.36733274  0.66452924 11.10979248
   4.83708992  6.24513789 15.20799393
   2.46248464  9.14466703 10.51034738
   2.75315379  6.41950958 12.72421660
   7.59055702  3.73782616 14.11838405
  11.96524498 12.07314871 16.26405668
   0.41158758 13.70496565 14.60707252
   2.85339572  1.79295954 14.65002136
   4.97338573  9.56091698 15.90967896
   3.67322852  4.43403596 11.86744559
  10.45209369  1.27423048 12.60818170
   4.44558452  2.99780415 13.51327808
   2.41156278  2.93614847 10.58423252
   6.45498009  8.22700556 12.32646682
   8.87008192 12.72030746 13.48899621
   6.88428570 11.62655347 12.77808220
   6.47730483  1.91787168 13.13185145
  14.12598302  1.16127964 15.46722038
   8.55179335 13.96229849 15.43423538
   2.02725645 11.17898620 11.71068078
  11.67994991  6.88377718 11.80304803
  10.99517930  3.29633094 11.40225424
  14.39342400  3.98949101 13.50364977
   7.46101733  6.35912913 11.36978112
  11.54663323  9.83237515 15.75507094
   9.79543870  8.95842894 14.45427015
  13.06482099  4.09115156 10.45507504
  11.27961941 12.14657772 14.02817432
   0.95429634  2.93853556 15.22219051



--------------------------------------------------------------------------------------------------------


 k-point     1 :   0.0000 0.0000 0.0000  plane waves:  527485
 k-point     2 :   0.5000 0.0000 0.0000  plane waves:  527562
 k-point     3 :   0.0000 0.5000 0.0000  plane waves:  527562
 k-point     4 :   0.5000 0.5000 0.0000  plane waves:  527636
 k-point     5 :   0.0000 0.0000 0.5000  plane waves:  527446
 k-point     6 :   0.5000 0.0000 0.5000  plane waves:  527628
 k-point     7 :   0.0000 0.5000 0.5000  plane waves:  527628
 k-point     8 :   0.5000 0.5000 0.5000  plane waves:  527624

 maximum and minimum number of plane-waves per node :     33048    32896

 maximum number of plane-waves:    527636
 maximum index in each direction: 
   IXMAX=   41   IYMAX=   41   IZMAX=   74
   IXMIN=  -41   IYMIN=  -41   IZMIN=  -75


 parallel 3D FFT for wavefunctions:
    minimum data exchange during FFTs selected (reduces bandwidth)
 parallel 3D FFT for charge:
    minimum data exchange during FFTs selected (reduces bandwidth)


 total amount of memory used by VASP MPI-rank0   377350. kBytes
=======================================================================

   base                                    :      30000. kBytes
   nonl-proj                               :      73427. kBytes
   fftplans                                :     102073. kBytes
   grid                                    :      78750. kBytes
   one-center                              :         15. kBytes
   wavefun                                 :      93085. kBytes

     INWAV:  cpu time     27.3290: real time     27.3448
 Broyden mixing: mesh for mixing (old mesh)
   NGX = 83   NGY = 83   NGZ =149
  (NGX  =336   NGY  =336   NGZ  =600)
  gives a total of ****** points

 initial charge density was supplied:
 number of electron     275.9999999 magnetization 
 keeping initial charge density in first step


--------------------------------------------------------------------------------------------------------


 Maximum index for augmentation-charges        11286 (set IRDMAX)


--------------------------------------------------------------------------------------------------------


 First call to EWALD:  gamma=   0.100
 Maximum number of real-space cells   3x   3x   2
 Maximum number of reciprocal cells   2x   2x   4

    FEWALD:  cpu time      0.0127: real time      0.0131


--------------------------------------- Ionic step        1  -------------------------------------------




--------------------------------------- Iteration      1(   1)  ---------------------------------------


    POTLOK:  cpu time      1.9798: real time      1.9817
    SETDIJ:  cpu time      1.3954: real time      1.3965
    EDDIAG:  cpu time     52.3194: real time     52.3459
     EDDAV:  cpu time    232.4494: real time    232.5714
       DOS:  cpu time      0.0110: real time      0.0115
    CHARGE:  cpu time     29.7219: real time     29.7488
    MIXING:  cpu time      0.0478: real time      0.0484
    --------------------------------------------
      LOOP:  cpu time    317.9248: real time    318.1041

 eigenvalue-minimisations  :  2816
 total energy-change (2. order) :-0.7000202E+03  (-0.7992675E+00)
 number of electron     275.9999999 magnetization 
 augmentation part      -15.0965320 magnetization 

 Broyden mixing:
  rms(total) = 0.10071E+01    rms(broyden)= 0.27199E+02
  rms(prec ) = 0.10447E+01
  weight for this iteration     100.00
  WARNING: grid for Broyden might be to small

 Free energy of the ion-electron system (eV)
  ---------------------------------------------------
  alpha Z        PSCENC =        28.80614646
  Ewald energy   TEWEN  =     34707.71574423
  -Hartree energ DENC   =    -40745.80044568
  -exchange      EXHF   =         0.00000000
  -V(xc)+E(xc)   XCENC  =      -307.28237872
  PAW double counting   =     25402.76114005   -24735.03326699
  entropy T*S    EENTRO =        -0.15589808
  eigenvalues    EBANDS =     -2056.41610061
  atomic energy  EATOM  =      7005.38489372
  Solvation  Ediel_sol  =         0.00000000
  ---------------------------------------------------
  free energy    TOTEN  =      -700.02016561 eV

  energy without entropy =     -699.86426753  energy(sigma->0) =     -699.94221657


--------------------------------------------------------------------------------------------------------




--------------------------------------- Iteration      1(   2)  ---------------------------------------


    POTLOK:  cpu time      1.9669: real time      1.9688
    SETDIJ:  cpu time      1.3844: real time      1.3852
    EDDIAG:  cpu time     52.2710: real time     52.2970
     EDDAV:  cpu time    235.4591: real time    235.5896
       DOS:  cpu time      0.0045: real time      0.0045
    CHARGE:  cpu time     29.6377: real time     29.6636
    MIXING:  cpu time      0.0409: real time      0.0409
    --------------------------------------------
      LOOP:  cpu time    320.7645: real time    320.9497

 eigenvalue-minimisations  :  2880
 total energy-change (2. order) : 0.4844055E+02  (-0.7696773E+00)
 number of electron     275.9999999 magnetization 
 augmentation part      -15.0452155 magnetization 

 Broyden mixing:
  rms(total) = 0.68730E+00    rms(broyden)= 0.15706E+02
  rms(prec ) = 0.70632E+00
  weight for this iteration     100.00
  WARNING: grid for Broyden might be to small

 eigenvalues of (default mixing * dielectric matrix)
  average eigenvalue GAMMA=   0.6340
  0.6340

 Free energy of the ion-electron system (eV)
  ---------------------------------------------------
  alpha Z        PSCENC =        28.80614646
  Ewald energy   TEWEN  =     34707.71574423
  -Hartree energ DENC   =    -40735.48168561
  -exchange      EXHF   =         0.00000000
  -V(xc)+E(xc)   XCENC  =      -301.00540528
  PAW double counting   =     30289.59387021   -29621.69187916
  entropy T*S    EENTRO =        -0.14643075
  eigenvalues    EBANDS =     -2024.75486814
  atomic energy  EATOM  =      7005.38489372
  Solvation  Ediel_sol  =         0.00000000
  ---------------------------------------------------
  free energy    TOTEN  =      -651.57961431 eV

  energy without entropy =     -651.43318357  energy(sigma->0) =     -651.50639894


--------------------------------------------------------------------------------------------------------




--------------------------------------- Iteration      1(   3)  ---------------------------------------


    POTLOK:  cpu time      1.9402: real time      1.9689
    SETDIJ:  cpu time      1.3837: real time      1.3845
    EDDIAG:  cpu time     52.2769: real time     52.3030
     EDDAV:  cpu time    232.5769: real time    232.6950
       DOS:  cpu time      0.0029: real time      0.0029
    CHARGE:  cpu time     29.5976: real time     29.6227
    MIXING:  cpu time      0.0377: real time      0.0377
    --------------------------------------------
      LOOP:  cpu time    317.8159: real time    318.0147

 eigenvalue-minimisations  :  2816
 total energy-change (2. order) :-0.2244796E+01  (-0.6144737E+00)
 number of electron     275.9999999 magnetization 
 augmentation part      -14.9966271 magnetization 

 Broyden mixing:
  rms(total) = 0.31045E+00    rms(broyden)= 0.20409E+02
  rms(prec ) = 0.37386E+00
  weight for this iteration     100.00
  WARNING: grid for Broyden might be to small

 eigenvalues of (default mixing * dielectric matrix)
  average eigenvalue GAMMA=   0.7763
  0.9258  0.6269

 Free energy of the ion-electron system (eV)
  ---------------------------------------------------
  alpha Z        PSCENC =        28.80614646
  Ewald energy   TEWEN  =     34707.71574423
  -Hartree energ DENC   =    -40737.49216125
  -exchange      EXHF   =         0.00000000
  -V(xc)+E(xc)   XCENC  =      -303.04607003
  PAW double counting   =     35668.32302586   -35000.52383878
  entropy T*S    EENTRO =        -0.15459737
  eigenvalues    EBANDS =     -2022.83755314
  atomic energy  EATOM  =      7005.38489372
  Solvation  Ediel_sol  =         0.00000000
  ---------------------------------------------------
  free energy    TOTEN  =      -653.82441029 eV

  energy without entropy =     -653.66981292  energy(sigma->0) =     -653.74711160


--------------------------------------------------------------------------------------------------------




--------------------------------------- Iteration      1(   4)  ---------------------------------------


    POTLOK:  cpu time      1.9412: real time      1.9645
    SETDIJ:  cpu time      1.3810: real time      1.3816
    EDDIAG:  cpu time     52.3401: real time     52.3672
     EDDAV:  cpu time    237.2058: real time    237.3378
       DOS:  cpu time      0.0028: real time      0.0028
    CHARGE:  cpu time     29.5898: real time     29.6147
    MIXING:  cpu time      0.0380: real time      0.0380
    --------------------------------------------
      LOOP:  cpu time    322.4986: real time    322.7067

 eigenvalue-minimisations  :  2912
 total energy-change (2. order) : 0.2070451E+00  (-0.6609337E-01)
 number of electron     275.9999999 magnetization 
 augmentation part      -14.9898574 magnetization 

 Broyden mixing:
  rms(total) = 0.47517E-01    rms(broyden)= 0.17067E+01
  rms(prec ) = 0.55399E-01
  weight for this iteration     100.00
  WARNING: grid for Broyden might be to small

 eigenvalues of (default mixing * dielectric matrix)
  average eigenvalue GAMMA=   1.1067
  2.0276  0.6795  0.6129

 Free energy of the ion-electron system (eV)
  ---------------------------------------------------
  alpha Z        PSCENC =        28.80614646
  Ewald energy   TEWEN  =     34707.71574423
  -Hartree energ DENC   =    -40738.82825337
  -exchange      EXHF   =         0.00000000
  -V(xc)+E(xc)   XCENC  =      -303.37202439
  PAW double counting   =     40595.54727261   -39927.79145873
  entropy T*S    EENTRO =        -0.14931333
  eigenvalues    EBANDS =     -2020.93037236
  atomic energy  EATOM  =      7005.38489372
  Solvation  Ediel_sol  =         0.00000000
  ---------------------------------------------------
  free energy    TOTEN  =      -653.61736516 eV

  energy without entropy =     -653.46805183  energy(sigma->0) =     -653.54270850


--------------------------------------------------------------------------------------------------------




--------------------------------------- Iteration      1(   5)  ---------------------------------------


    POTLOK:  cpu time      1.9626: real time      1.9686
    SETDIJ:  cpu time      1.3876: real time      1.3884
    EDDIAG:  cpu time     52.3187: real time     52.3445
     EDDAV:  cpu time    262.8568: real time    262.9972
       DOS:  cpu time      0.0029: real time      0.0029
    CHARGE:  cpu time     29.6310: real time     29.6552
    MIXING:  cpu time      0.0379: real time      0.0379
    --------------------------------------------
      LOOP:  cpu time    348.1975: real time    348.3947

 eigenvalue-minimisations  :  3472
 total energy-change (2. order) :-0.2581116E-01  (-0.6179029E-02)
 number of electron     275.9999999 magnetization 
 augmentation part      -14.9918335 magnetization 

 Broyden mixing:
  rms(total) = 0.29719E-01    rms(broyden)= 0.31527E+00
  rms(prec ) = 0.33980E-01
  weight for this iteration     100.00
  WARNING: grid for Broyden might be to small

 eigenvalues of (default mixing * dielectric matrix)
  average eigenvalue GAMMA=   1.1458
  2.5385  0.8385  0.6229  0.5833

 Free energy of the ion-electron system (eV)
  ---------------------------------------------------
  alpha Z        PSCENC =        28.80614646
  Ewald energy   TEWEN  =     34707.71574423
  -Hartree energ DENC   =    -40739.06352364
  -exchange      EXHF   =         0.00000000
  -V(xc)+E(xc)   XCENC  =      -304.19059955
  PAW double counting   =     40124.24747537   -39456.46665263
  entropy T*S    EENTRO =        -0.15224391
  eigenvalues    EBANDS =     -2019.92441638
  atomic energy  EATOM  =      7005.38489372
  Solvation  Ediel_sol  =         0.00000000
  ---------------------------------------------------
  free energy    TOTEN  =      -653.64317632 eV

  energy without entropy =     -653.49093241  energy(sigma->0) =     -653.56705437


--------------------------------------------------------------------------------------------------------




--------------------------------------- Iteration      1(   6)  ---------------------------------------


    POTLOK:  cpu time      1.9446: real time      1.9706
    SETDIJ:  cpu time      1.3851: real time      1.3857
    EDDIAG:  cpu time     52.3488: real time     52.3729
     EDDAV:  cpu time    251.1335: real time    251.2678
       DOS:  cpu time      0.0032: real time      0.0032
    CHARGE:  cpu time     29.6313: real time     29.6578
    MIXING:  cpu time      0.0391: real time      0.0391
    --------------------------------------------
      LOOP:  cpu time    336.4855: real time    336.6970

 eigenvalue-minimisations  :  3216
 total energy-change (2. order) :-0.2838948E-02  (-0.1277231E-02)
 number of electron     275.9999999 magnetization 
 augmentation part      -14.9912084 magnetization 

 Broyden mixing:
  rms(total) = 0.20352E-01    rms(broyden)= 0.16470E+00
  rms(prec ) = 0.22028E-01
  weight for this iteration     100.00
  WARNING: grid for Broyden might be to small

 eigenvalues of (default mixing * dielectric matrix)
  average eigenvalue GAMMA=   1.0931
  2.5589  1.0277  0.7064  0.6240  0.5483

 Free energy of the ion-electron system (eV)
  ---------------------------------------------------
  alpha Z        PSCENC =        28.80614646
  Ewald energy   TEWEN  =     34707.71574423
  -Hartree energ DENC   =    -40739.14399457
  -exchange      EXHF   =         0.00000000
  -V(xc)+E(xc)   XCENC  =      -304.33692827
  PAW double counting   =     40038.62083852   -39370.82895212
  entropy T*S    EENTRO =        -0.15098456
  eigenvalues    EBANDS =     -2019.71277869
  atomic energy  EATOM  =      7005.38489372
  Solvation  Ediel_sol  =         0.00000000
  ---------------------------------------------------
  free energy    TOTEN  =      -653.64601527 eV

  energy without entropy =     -653.49503071  energy(sigma->0) =     -653.57052299


--------------------------------------------------------------------------------------------------------




--------------------------------------- Iteration      1(   7)  ---------------------------------------


    POTLOK:  cpu time      1.9679: real time      1.9693
    SETDIJ:  cpu time      1.3831: real time      1.3838
    EDDIAG:  cpu time     52.3088: real time     52.3351
     EDDAV:  cpu time    240.0012: real time    240.1277
       DOS:  cpu time      0.0035: real time      0.0035
    CHARGE:  cpu time     29.6313: real time     29.6573
    MIXING:  cpu time      0.0396: real time      0.0396
    --------------------------------------------
      LOOP:  cpu time    325.3354: real time    325.5163

 eigenvalue-minimisations  :  2976
 total energy-change (2. order) :-0.1096747E-02  (-0.6145986E-03)
 number of electron     275.9999999 magnetization 
 augmentation part      -14.9895674 magnetization 

 Broyden mixing:
  rms(total) = 0.82229E-02    rms(broyden)= 0.55928E-01
  rms(prec ) = 0.92481E-02
  weight for this iteration     100.00
  WARNING: grid for Broyden might be to small

 eigenvalues of (default mixing * dielectric matrix)
  average eigenvalue GAMMA=   1.0745
  2.5518  1.2643  0.8316  0.6338  0.6338  0.5314

 Free energy of the ion-electron system (eV)
  ---------------------------------------------------
  alpha Z        PSCENC =        28.80614646
  Ewald energy   TEWEN  =     34707.71574423
  -Hartree energ DENC   =    -40739.22272507
  -exchange      EXHF   =         0.00000000
  -V(xc)+E(xc)   XCENC  =      -304.22273864
  PAW double counting   =     40034.75582848   -39366.95166300
  entropy T*S    EENTRO =        -0.15122594
  eigenvalues    EBANDS =     -2019.76137226
  atomic energy  EATOM  =      7005.38489372
  Solvation  Ediel_sol  =         0.00000000
  ---------------------------------------------------
  free energy    TOTEN  =      -653.64711201 eV

  energy without entropy =     -653.49588607  energy(sigma->0) =     -653.57149904


--------------------------------------------------------------------------------------------------------




--------------------------------------- Iteration      1(   8)  ---------------------------------------


    POTLOK:  cpu time      1.9434: real time      1.9714
    SETDIJ:  cpu time      1.3858: real time      1.3865
    EDDIAG:  cpu time     52.2920: real time     52.3177
     EDDAV:  cpu time    241.4569: real time    241.5823
       DOS:  cpu time      0.0032: real time      0.0032
    CHARGE:  cpu time     29.5333: real time     29.5584
    MIXING:  cpu time      0.0400: real time      0.0400
    --------------------------------------------
      LOOP:  cpu time    326.6545: real time    326.8595

 eigenvalue-minimisations  :  3008
 total energy-change (2. order) :-0.4039143E-03  (-0.1448485E-03)
 number of electron     275.9999999 magnetization 
 augmentation part      -14.9891992 magnetization 

 Broyden mixing:
  rms(total) = 0.31538E-02    rms(broyden)= 0.43703E-01
  rms(prec ) = 0.38969E-02
  weight for this iteration     100.00
  WARNING: grid for Broyden might be to small

 eigenvalues of (default mixing * dielectric matrix)
  average eigenvalue GAMMA=   1.1309
  2.5132  1.9275  0.9280  0.7649  0.6280  0.6280  0.5268

 Free energy of the ion-electron system (eV)
  ---------------------------------------------------
  alpha Z        PSCENC =        28.80614646
  Ewald energy   TEWEN  =     34707.71574423
  -Hartree energ DENC   =    -40739.15495218
  -exchange      EXHF   =         0.00000000
  -V(xc)+E(xc)   XCENC  =      -304.18470593
  PAW double counting   =     40067.61218774   -39399.80194631
  entropy T*S    EENTRO =        -0.15146285
  eigenvalues    EBANDS =     -2019.87342082
  atomic energy  EATOM  =      7005.38489372
  Solvation  Ediel_sol  =         0.00000000
  ---------------------------------------------------
  free energy    TOTEN  =      -653.64751593 eV

  energy without entropy =     -653.49605308  energy(sigma->0) =     -653.57178450


--------------------------------------------------------------------------------------------------------




--------------------------------------- Iteration      1(   9)  ---------------------------------------


    POTLOK:  cpu time      1.9538: real time      1.9734
    SETDIJ:  cpu time      1.3890: real time      1.3898
    EDDIAG:  cpu time     52.2090: real time     52.2351
     EDDAV:  cpu time    241.8905: real time    242.0150
       DOS:  cpu time      0.0039: real time      0.0039
    CHARGE:  cpu time     29.5754: real time     29.5999
    MIXING:  cpu time      0.0404: real time      0.0404
    --------------------------------------------
      LOOP:  cpu time    327.0623: real time    327.2577

 eigenvalue-minimisations  :  3016
 total energy-change (2. order) : 0.4176043E-05  (-0.4852663E-04)
 number of electron     275.9999999 magnetization 
 augmentation part      -14.9894128 magnetization 

 Broyden mixing:
  rms(total) = 0.17239E-02    rms(broyden)= 0.20287E-01
  rms(prec ) = 0.19613E-02
  weight for this iteration     100.00
  WARNING: grid for Broyden might be to small

 eigenvalues of (default mixing * dielectric matrix)
  average eigenvalue GAMMA=   1.1616
  2.5371  2.5371  1.0171  0.8961  0.6547  0.6291  0.5364  0.4850

 Free energy of the ion-electron system (eV)
  ---------------------------------------------------
  alpha Z        PSCENC =        28.80614646
  Ewald energy   TEWEN  =     34707.71574423
  -Hartree energ DENC   =    -40739.00497255
  -exchange      EXHF   =         0.00000000
  -V(xc)+E(xc)   XCENC  =      -304.21054599
  PAW double counting   =     40072.51871916   -39404.70729103
  entropy T*S    EENTRO =        -0.15128992
  eigenvalues    EBANDS =     -2019.99891583
  atomic energy  EATOM  =      7005.38489372
  Solvation  Ediel_sol  =         0.00000000
  ---------------------------------------------------
  free energy    TOTEN  =      -653.64751175 eV

  energy without entropy =     -653.49622183  energy(sigma->0) =     -653.57186679


--------------------------------------------------------------------------------------------------------




--------------------------------------- Iteration      1(  10)  ---------------------------------------


    POTLOK:  cpu time      1.9408: real time      1.9726
    SETDIJ:  cpu time      1.3883: real time      1.3893
    EDDIAG:  cpu time     52.2760: real time     52.3002
     EDDAV:  cpu time    243.5556: real time    243.6745
       DOS:  cpu time      0.0036: real time      0.0036
    CHARGE:  cpu time     29.5673: real time     29.5920
    MIXING:  cpu time      0.0646: real time      0.0659
    --------------------------------------------
      LOOP:  cpu time    328.7964: real time    328.9983

 eigenvalue-minimisations  :  3056
 total energy-change (2. order) :-0.7992627E-04  (-0.1925511E-04)
 number of electron     275.9999999 magnetization 
 augmentation part      -14.9894645 magnetization 

 Broyden mixing:
  rms(total) = 0.95179E-03    rms(broyden)= 0.12674E-01
  rms(prec ) = 0.11358E-02
  weight for this iteration     100.00
  WARNING: grid for Broyden might be to small

 eigenvalues of (default mixing * dielectric matrix)
  average eigenvalue GAMMA=   1.1969
  2.8670  2.6772  1.0566  1.0566  0.8050  0.6581  0.6251  0.4863  0.5399

 Free energy of the ion-electron system (eV)
  ---------------------------------------------------
  alpha Z        PSCENC =        28.80614646
  Ewald energy   TEWEN  =     34707.71574423
  -Hartree energ DENC   =    -40738.86257343
  -exchange      EXHF   =         0.00000000
  -V(xc)+E(xc)   XCENC  =      -304.21496144
  PAW double counting   =     40071.16499132   -39403.35244358
  entropy T*S    EENTRO =        -0.15133651
  eigenvalues    EBANDS =     -2020.13805246
  atomic energy  EATOM  =      7005.38489372
  Solvation  Ediel_sol  =         0.00000000
  ---------------------------------------------------
  free energy    TOTEN  =      -653.64759168 eV

  energy without entropy =     -653.49625517  energy(sigma->0) =     -653.57192342


--------------------------------------------------------------------------------------------------------




--------------------------------------- Iteration      1(  11)  ---------------------------------------


    POTLOK:  cpu time      1.9463: real time      1.9731
    SETDIJ:  cpu time      1.4005: real time      1.4026
    EDDIAG:  cpu time     52.2873: real time     52.3132
     EDDAV:  cpu time    240.0150: real time    240.1333
       DOS:  cpu time      0.0122: real time      0.0128
    CHARGE:  cpu time     29.6103: real time     29.6352
    MIXING:  cpu time      0.0420: real time      0.0420
    --------------------------------------------
      LOOP:  cpu time    325.3133: real time    325.5120

 eigenvalue-minimisations  :  2976
 total energy-change (2. order) :-0.8094964E-04  (-0.1187830E-04)
 number of electron     275.9999999 magnetization 
 augmentation part      -14.9895319 magnetization 

 Broyden mixing:
  rms(total) = 0.45875E-03    rms(broyden)= 0.79070E-02
  rms(prec ) = 0.61361E-03
  weight for this iteration     100.00
  WARNING: grid for Broyden might be to small

 eigenvalues of (default mixing * dielectric matrix)
  average eigenvalue GAMMA=   1.2783
  3.3204  2.6279  1.8033  1.0850  0.9460  0.6863  0.6491  0.6258  0.4887  0.5506

 Free energy of the ion-electron system (eV)
  ---------------------------------------------------
  alpha Z        PSCENC =        28.80614646
  Ewald energy   TEWEN  =     34707.71574423
  -Hartree energ DENC   =    -40738.71759585
  -exchange      EXHF   =         0.00000000
  -V(xc)+E(xc)   XCENC  =      -304.22170396
  PAW double counting   =     40068.13966750   -39400.32643383
  entropy T*S    EENTRO =        -0.15136719
  eigenvalues    EBANDS =     -2020.27702371
  atomic energy  EATOM  =      7005.38489372
  Solvation  Ediel_sol  =         0.00000000
  ---------------------------------------------------
  free energy    TOTEN  =      -653.64767263 eV

  energy without entropy =     -653.49630544  energy(sigma->0) =     -653.57198903


--------------------------------------------------------------------------------------------------------




--------------------------------------- Iteration      1(  12)  ---------------------------------------


    POTLOK:  cpu time      1.9460: real time      1.9729
    SETDIJ:  cpu time      1.3932: real time      1.3939
    EDDIAG:  cpu time     52.2203: real time     52.2485
     EDDAV:  cpu time    238.5980: real time    238.7225
       DOS:  cpu time      0.0028: real time      0.0028
    CHARGE:  cpu time     29.5483: real time     29.5951
    MIXING:  cpu time      0.0436: real time      0.0437
    --------------------------------------------
      LOOP:  cpu time    323.7522: real time    323.9792

 eigenvalue-minimisations  :  2944
 total energy-change (2. order) :-0.7491218E-04  (-0.7167138E-05)
 number of electron     275.9999999 magnetization 
 augmentation part      -14.9895742 magnetization 

 Broyden mixing:
  rms(total) = 0.27648E-03    rms(broyden)= 0.61071E-02
  rms(prec ) = 0.41999E-03
  weight for this iteration     100.00
  WARNING: grid for Broyden might be to small

 eigenvalues of (default mixing * dielectric matrix)
  average eigenvalue GAMMA=   1.4748
  5.1170  2.5710  2.5710  1.0723  1.0723  0.8764  0.6654  0.4970  0.6246  0.5778
  0.5778

 Free energy of the ion-electron system (eV)
  ---------------------------------------------------
  alpha Z        PSCENC =        28.80614646
  Ewald energy   TEWEN  =     34707.71574423
  -Hartree energ DENC   =    -40738.61758453
  -exchange      EXHF   =         0.00000000
  -V(xc)+E(xc)   XCENC  =      -304.22715415
  PAW double counting   =     40068.49486632   -39400.68169660
  entropy T*S    EENTRO =        -0.15134553
  eigenvalues    EBANDS =     -2020.37161745
  atomic energy  EATOM  =      7005.38489372
  Solvation  Ediel_sol  =         0.00000000
  ---------------------------------------------------
  free energy    TOTEN  =      -653.64774754 eV

  energy without entropy =     -653.49640201  energy(sigma->0) =     -653.57207477


--------------------------------------------------------------------------------------------------------




--------------------------------------- Iteration      1(  13)  ---------------------------------------


    POTLOK:  cpu time      1.9547: real time      1.9794
    SETDIJ:  cpu time      1.3857: real time      1.3865
    EDDIAG:  cpu time     52.2192: real time     52.2455
     EDDAV:  cpu time    238.4958: real time    238.6271
       DOS:  cpu time      0.0105: real time      0.0109
    CHARGE:  cpu time     29.5725: real time     29.5989
    MIXING:  cpu time      0.0611: real time      0.0613
    --------------------------------------------
      LOOP:  cpu time    323.6996: real time    323.9097

 eigenvalue-minimisations  :  2944
 total energy-change (2. order) :-0.7941314E-04  (-0.7791313E-05)
 number of electron     275.9999999 magnetization 
 augmentation part      -14.9895969 magnetization 

 Broyden mixing:
  rms(total) = 0.17423E-03    rms(broyden)= 0.45338E-02
  rms(prec ) = 0.28737E-03
  weight for this iteration     100.00
  WARNING: grid for Broyden might be to small

 eigenvalues of (default mixing * dielectric matrix)
  average eigenvalue GAMMA=   1.6055
  6.8587  2.6480  2.6480  1.1900  1.1900  0.9560  0.8273  0.5002  0.6635  0.6305
  0.5767  0.5767

 Free energy of the ion-electron system (eV)
  ---------------------------------------------------
  alpha Z        PSCENC =        28.80614646
  Ewald energy   TEWEN  =     34707.71574423
  -Hartree energ DENC   =    -40738.51757728
  -exchange      EXHF   =         0.00000000
  -V(xc)+E(xc)   XCENC  =      -304.23071272
  PAW double counting   =     40069.08715615   -39401.27419182
  entropy T*S    EENTRO =        -0.15135905
  eigenvalues    EBANDS =     -2020.46792665
  atomic energy  EATOM  =      7005.38489372
  Solvation  Ediel_sol  =         0.00000000
  ---------------------------------------------------
  free energy    TOTEN  =      -653.64782695 eV

  energy without entropy =     -653.49646791  energy(sigma->0) =     -653.57214743


--------------------------------------------------------------------------------------------------------




--------------------------------------- Iteration      1(  14)  ---------------------------------------


    POTLOK:  cpu time      1.9510: real time      1.9735
    SETDIJ:  cpu time      1.3922: real time      1.3935
    EDDIAG:  cpu time     52.1843: real time     52.2098
     EDDAV:  cpu time    238.5370: real time    238.6595
       DOS:  cpu time      0.0032: real time      0.0032
    CHARGE:  cpu time     29.5748: real time     29.5997
    MIXING:  cpu time      0.0447: real time      0.0447
    --------------------------------------------
      LOOP:  cpu time    323.6872: real time    323.8839

 eigenvalue-minimisations  :  2944
 total energy-change (2. order) :-0.8336848E-04  (-0.8206462E-05)
 number of electron     275.9999999 magnetization 
 augmentation part      -14.9896223 magnetization 

 Broyden mixing:
  rms(total) = 0.11036E-03    rms(broyden)= 0.32393E-02
  rms(prec ) = 0.18805E-03
  weight for this iteration     100.00
  WARNING: grid for Broyden might be to small

 eigenvalues of (default mixing * dielectric matrix)
  average eigenvalue GAMMA=   1.7413
  8.7740  2.7467  2.7467  1.7757  1.0737  1.0587  0.8598  0.5001  0.6652  0.6268
  0.6268  0.5915  0.5915

 Free energy of the ion-electron system (eV)
  ---------------------------------------------------
  alpha Z        PSCENC =        28.80614646
  Ewald energy   TEWEN  =     34707.71574423
  -Hartree energ DENC   =    -40738.40646050
  -exchange      EXHF   =         0.00000000
  -V(xc)+E(xc)   XCENC  =      -304.23398780
  PAW double counting   =     40068.80323433   -39400.99052047
  entropy T*S    EENTRO =        -0.15135813
  eigenvalues    EBANDS =     -2020.57560217
  atomic energy  EATOM  =      7005.38489372
  Solvation  Ediel_sol  =         0.00000000
  ---------------------------------------------------
  free energy    TOTEN  =      -653.64791032 eV

  energy without entropy =     -653.49655219  energy(sigma->0) =     -653.57223126


--------------------------------------------------------------------------------------------------------




--------------------------------------- Iteration      1(  15)  ---------------------------------------


    POTLOK:  cpu time      1.9406: real time      1.9661
    SETDIJ:  cpu time      1.3939: real time      1.3945
    EDDIAG:  cpu time     52.2392: real time     52.2633
     EDDAV:  cpu time    236.9781: real time    237.1004
       DOS:  cpu time      0.0066: real time      0.0066
    CHARGE:  cpu time     29.5143: real time     29.5402
    MIXING:  cpu time      0.0451: real time      0.0451
    --------------------------------------------
      LOOP:  cpu time    322.1178: real time    322.3162

 eigenvalue-minimisations  :  2912
 total energy-change (2. order) :-0.6501630E-04  (-0.5057009E-05)
 number of electron     275.9999999 magnetization 
 augmentation part      -14.9896348 magnetization 

 Broyden mixing:
  rms(total) = 0.77916E-04    rms(broyden)= 0.25329E-02
  rms(prec ) = 0.12507E-03
  weight for this iteration     100.00
  WARNING: grid for Broyden might be to small

 eigenvalues of (default mixing * dielectric matrix)
  average eigenvalue GAMMA=   1.7667
  9.5561  2.8819  2.7557  1.9532  1.1952  1.0075  1.0075  0.8117  0.5003  0.6697
  0.6345  0.5925  0.5842  0.5842

 Free energy of the ion-electron system (eV)
  ---------------------------------------------------
  alpha Z        PSCENC =        28.80614646
  Ewald energy   TEWEN  =     34707.71574423
  -Hartree energ DENC   =    -40738.32667472
  -exchange      EXHF   =         0.00000000
  -V(xc)+E(xc)   XCENC  =      -304.23507871
  PAW double counting   =     40068.83969449   -39401.02710498
  entropy T*S    EENTRO =        -0.15136319
  eigenvalues    EBANDS =     -2020.65423263
  atomic energy  EATOM  =      7005.38489372
  Solvation  Ediel_sol  =         0.00000000
  ---------------------------------------------------
  free energy    TOTEN  =      -653.64797534 eV

  energy without entropy =     -653.49661215  energy(sigma->0) =     -653.57229374


--------------------------------------------------------------------------------------------------------




--------------------------------------- Iteration      1(  16)  ---------------------------------------


    POTLOK:  cpu time      1.9873: real time      1.9886
    SETDIJ:  cpu time      1.3896: real time      1.3902
    EDDIAG:  cpu time     52.2076: real time     52.2326
     EDDAV:  cpu time    238.4394: real time    238.5664
       DOS:  cpu time      0.0039: real time      0.0039
    CHARGE:  cpu time     29.5811: real time     29.6072
    MIXING:  cpu time      0.0473: real time      0.0473
    --------------------------------------------
      LOOP:  cpu time    323.6562: real time    323.8361

 eigenvalue-minimisations  :  2944
 total energy-change (2. order) :-0.3881618E-04  (-0.2970135E-05)
 number of electron     275.9999999 magnetization 
 augmentation part      -14.9896463 magnetization 

 Broyden mixing:
  rms(total) = 0.47584E-04    rms(broyden)= 0.16952E-02
  rms(prec ) = 0.75230E-04
  weight for this iteration     100.00
  WARNING: grid for Broyden might be to small

 eigenvalues of (default mixing * dielectric matrix)
  average eigenvalue GAMMA=   1.7759
  9.8622  3.0501  2.7007  2.1952  1.5536  1.1235  0.9250  0.9250  0.7461  0.5004
  0.6654  0.6280  0.6280  0.5679  0.5679

 Free energy of the ion-electron system (eV)
  ---------------------------------------------------
  alpha Z        PSCENC =        28.80614646
  Ewald energy   TEWEN  =     34707.71574423
  -Hartree energ DENC   =    -40738.26993834
  -exchange      EXHF   =         0.00000000
  -V(xc)+E(xc)   XCENC  =      -304.23573230
  PAW double counting   =     40068.98457882   -39401.17204764
  entropy T*S    EENTRO =        -0.15136568
  eigenvalues    EBANDS =     -2020.71029342
  atomic energy  EATOM  =      7005.38489372
  Solvation  Ediel_sol  =         0.00000000
  ---------------------------------------------------
  free energy    TOTEN  =      -653.64801415 eV

  energy without entropy =     -653.49664847  energy(sigma->0) =     -653.57233131


--------------------------------------------------------------------------------------------------------




--------------------------------------- Iteration      1(  17)  ---------------------------------------


    POTLOK:  cpu time      1.9384: real time      1.9668
    SETDIJ:  cpu time      1.3829: real time      1.3836
    EDDIAG:  cpu time     52.2129: real time     52.2386
     EDDAV:  cpu time    231.8387: real time    231.9606
       DOS:  cpu time      0.0039: real time      0.0039
    CHARGE:  cpu time     29.5657: real time     29.5915
    MIXING:  cpu time      0.0472: real time      0.0472
    --------------------------------------------
      LOOP:  cpu time    316.9897: real time    317.1921

 eigenvalue-minimisations  :  2800
 total energy-change (2. order) :-0.1988436E-04  (-0.1662536E-05)
 number of electron     275.9999999 magnetization 
 augmentation part      -14.9896547 magnetization 

 Broyden mixing:
  rms(total) = 0.32456E-04    rms(broyden)= 0.11885E-02
  rms(prec ) = 0.48928E-04
[...]
   -.247E+01 0.155E+02 0.183E+03   0.436E+01 -.146E+02 -.181E+03   -.156E+01 -.148E+01 -.209E+01   0.102E-04 0.384E-06 -.276E-04
   -.122E+02 0.211E+02 0.261E+03   0.112E+02 -.221E+02 -.259E+03   0.931E+00 0.996E+00 -.165E+01   -.100E-04 -.214E-04 -.234E-04
   -.174E+02 -.112E+00 -.240E+03   0.177E+02 0.633E+00 0.242E+03   -.532E+00 -.543E+00 -.152E+01   0.312E-04 -.445E-04 0.124E-04
   0.265E+02 0.237E+01 -.321E+03   -.257E+02 -.259E+01 0.322E+03   -.668E+00 0.115E+00 -.866E+00   -.109E-05 0.216E-04 -.187E-04
   -.179E+02 0.103E+02 0.260E+03   0.167E+02 -.825E+01 -.259E+03   0.108E+01 -.188E+01 -.130E+01   -.447E-05 -.269E-04 -.232E-04
   -.210E+02 -.229E+02 0.110E+03   0.216E+02 0.221E+02 -.108E+03   -.421E+00 0.775E+00 -.144E+01   0.214E-05 0.179E-06 -.220E-04
   -.244E+02 -.125E+02 -.156E+03   0.236E+02 0.116E+02 0.157E+03   0.665E+00 0.108E+01 -.395E+00   -.118E-06 0.170E-05 -.147E-05
   0.464E+01 -.295E+02 0.260E+03   -.501E+01 0.298E+02 -.260E+03   0.310E+00 -.148E+00 -.585E-02   -.147E-04 0.403E-06 -.403E-04
   0.173E+01 0.387E+01 0.153E+03   -.713E+00 -.385E+01 -.151E+03   -.107E+01 0.634E-01 -.154E+01   0.607E-05 -.181E-04 -.254E-04
   -.305E+02 0.670E+01 -.217E+03   0.302E+02 -.779E+01 0.217E+03   0.227E+00 0.789E+00 -.214E+00   0.507E-05 0.732E-05 -.679E-06
   -.107E+02 0.535E+02 -.137E+03   0.105E+02 -.535E+02 0.139E+03   0.251E+00 -.399E+00 -.132E+01   0.319E-04 -.191E-04 0.253E-04
   0.880E+01 0.245E+02 0.199E+03   -.954E+01 -.230E+02 -.200E+03   0.771E+00 -.155E+01 0.124E+01   0.332E-06 -.241E-04 -.208E-04
   0.237E+02 -.259E+02 -.204E+03   -.225E+02 0.261E+02 0.201E+03   -.106E+01 -.324E+00 0.363E+01   -.200E-04 0.541E-04 -.254E-04
   0.909E+01 0.558E+01 0.245E+03   -.100E+02 -.496E+01 -.242E+03   0.848E+00 -.559E+00 -.242E+01   -.101E-04 -.180E-04 -.219E-04
   0.114E+02 0.914E+01 -.166E+03   -.111E+02 -.993E+01 0.164E+03   -.367E+00 0.693E+00 0.269E+01   -.127E-05 -.283E-04 -.617E-05
   -.168E+02 0.225E+02 -.244E+03   0.155E+02 -.229E+02 0.245E+03   0.126E+01 0.338E+00 -.162E+00   0.504E-05 -.285E-04 0.263E-04
   0.789E+01 -.142E+02 0.157E+02   -.827E+01 0.147E+02 -.138E+02   0.325E+00 -.481E+00 -.159E+01   0.173E-05 -.218E-04 0.353E-05
   -.337E+02 -.233E+02 -.252E+03   0.332E+02 0.240E+02 0.251E+03   0.537E+00 -.759E+00 0.151E+01   0.456E-04 0.346E-04 0.439E-05
   -.680E+01 -.155E+02 -.223E+03   0.653E+01 0.148E+02 0.220E+03   0.177E+00 0.110E+01 0.246E+01   0.383E-05 0.732E-05 0.111E-04
   -.192E+02 0.100E+01 -.161E+03   0.179E+02 -.606E+00 0.162E+03   0.103E+01 -.411E+00 -.101E+01   0.183E-04 -.745E-05 -.449E-05
   0.106E+02 -.252E+02 0.202E+03   -.112E+02 0.259E+02 -.201E+03   0.926E-01 -.410E+00 -.144E+01   -.804E-05 -.757E-05 -.252E-04
   -.339E+02 0.113E+02 0.287E+03   0.314E+02 -.116E+02 -.284E+03   0.229E+01 0.626E+00 -.296E+01   0.542E-05 0.271E-05 -.301E-04
   0.356E+01 -.169E+02 0.240E+02   -.464E+01 0.170E+02 -.259E+02   0.615E+00 -.851E-01 0.180E+01   -.540E-05 0.295E-04 -.156E-04
   0.156E+02 0.271E+02 -.188E+03   -.134E+02 -.263E+02 0.187E+03   -.224E+01 -.793E+00 0.113E+01   -.316E-05 -.439E-04 -.289E-04
   0.899E+01 -.574E+01 0.167E+03   -.921E+01 0.537E+01 -.169E+03   0.674E-01 0.446E+00 0.100E+01   -.134E-05 0.930E-05 -.252E-04
   0.227E+01 -.476E+02 -.140E+03   -.253E+00 0.461E+02 0.140E+03   -.175E+01 0.955E+00 0.103E+01   0.335E-05 0.252E-04 -.317E-05
   -.866E+01 -.213E+01 -.129E+03   0.936E+01 0.155E+01 0.130E+03   -.498E+00 0.534E+00 -.464E+00   0.935E-05 -.194E-04 0.609E-05
   -.563E+01 -.260E+02 0.246E+03   0.276E+01 0.247E+02 -.243E+03   0.242E+01 0.987E+00 -.295E+01   0.497E-05 0.187E-04 -.215E-04
   0.230E+02 0.167E+01 -.198E+03   -.213E+02 -.288E+01 0.196E+03   -.114E+01 0.892E+00 0.178E+01   -.240E-04 -.650E-05 0.231E-04
   0.272E+02 0.727E+01 0.183E+03   -.253E+02 -.500E+01 -.179E+03   -.174E+01 -.167E+01 -.358E+01   0.671E-05 0.952E-05 -.241E-04
   0.364E+02 0.139E+02 0.219E+03   -.333E+02 -.128E+02 -.219E+03   -.255E+01 -.972E+00 -.673E+00   -.597E-06 0.126E-05 -.314E-04
   0.337E+01 0.517E+01 -.206E+03   -.413E+01 -.443E+01 0.205E+03   0.473E+00 -.479E+00 0.129E+01   -.116E-04 0.378E-04 0.924E-05
   0.903E+01 -.107E+02 0.293E+03   -.756E+01 0.111E+02 -.294E+03   -.126E+01 -.277E+00 0.884E+00   0.642E-06 -.195E-04 -.227E-04
   0.271E+02 0.194E+02 0.477E+02   -.270E+02 -.184E+02 -.472E+02   -.144E+00 -.123E+01 -.257E+00   0.844E-05 0.140E-04 -.149E-04
   -.260E+02 -.226E+02 -.360E+02   0.254E+02 0.233E+02 0.379E+02   0.429E+00 -.508E+00 -.170E+01   0.313E-05 0.362E-04 -.373E-04
   0.253E+02 -.217E+02 -.287E+03   -.267E+02 0.239E+02 0.288E+03   0.109E+01 -.185E+01 0.731E-01   0.104E-04 -.171E-04 0.261E-05
   -.101E+02 0.459E+01 -.131E+03   0.104E+02 -.453E+01 0.132E+03   -.103E+00 -.148E+00 -.164E+00   0.871E-05 -.226E-04 0.829E-05
   0.139E+02 -.936E+01 -.133E+03   -.133E+02 0.984E+01 0.134E+03   -.543E+00 -.577E+00 -.169E+01   -.512E-05 0.549E-05 -.367E-05
   -.178E+02 -.130E+02 -.285E+03   0.181E+02 0.149E+02 0.285E+03   -.357E+00 -.180E+01 0.286E-01   -.152E-05 -.762E-05 0.189E-04
   -.435E+01 0.106E+02 0.157E+03   0.464E+01 -.102E+02 -.155E+03   -.198E+00 -.471E+00 -.183E+01   0.113E-04 0.249E-04 -.291E-04
   -.101E+02 -.348E+02 0.950E+02   0.804E+01 0.326E+02 -.946E+02   0.207E+01 0.231E+01 -.446E+00   0.453E-05 0.120E-04 -.197E-04
   0.190E+02 -.434E+01 0.674E+01   -.176E+02 0.429E+01 -.434E+01   -.155E+01 -.204E-01 -.232E+01   -.851E-05 0.177E-04 -.352E-04
   -.272E+02 -.186E+02 0.263E+03   0.249E+02 0.190E+02 -.262E+03   0.202E+01 -.530E+00 -.616E+00   0.109E-04 0.978E-05 -.288E-04
   -.215E+02 -.955E+01 0.100E+03   0.226E+02 0.865E+01 -.102E+03   -.715E+00 0.910E+00 0.140E+01   0.832E-05 -.355E-05 -.250E-04
   0.737E+01 0.288E+02 -.353E+02   -.913E+01 -.268E+02 0.370E+02   0.214E+01 -.259E+01 -.116E+01   -.162E-04 -.200E-04 -.693E-05
   -.620E+01 0.159E+02 0.563E+02   0.543E+01 -.165E+02 -.571E+02   0.802E+00 0.649E+00 0.526E+00   -.766E-05 -.204E-04 -.176E-04
   -.105E+02 -.130E+02 0.706E+02   0.968E+01 0.116E+02 -.702E+02   0.885E+00 0.825E+00 -.757E+00   -.813E-05 0.717E-05 -.423E-04
   0.323E+01 -.402E+00 -.225E+03   -.176E+01 0.325E+01 0.222E+03   -.114E+01 -.258E+01 0.262E+01   -.498E-05 0.604E-05 0.116E-04
   -.109E+01 0.397E+02 -.242E+03   0.113E+01 -.412E+02 0.242E+03   0.745E-01 0.124E+01 -.278E+00   0.491E-05 -.306E-04 -.520E-05
   0.772E+01 -.840E+01 0.170E+03   -.868E+01 0.667E+01 -.168E+03   0.667E+00 0.182E+01 -.170E+01   0.375E-05 -.263E-04 -.245E-04
   0.114E+02 -.130E+02 0.148E+03   -.104E+02 0.120E+02 -.148E+03   -.925E+00 0.104E+01 -.156E+00   -.913E-05 0.137E-04 -.130E-04
   0.128E+02 0.118E+02 0.193E+03   -.157E+02 -.955E+01 -.194E+03   0.282E+01 -.222E+01 0.103E+01   -.635E-05 0.177E-04 -.278E-04
   0.265E+01 -.210E+02 -.359E+02   -.179E+01 0.228E+02 0.377E+02   -.975E+00 -.148E+01 -.140E+01   0.494E-05 0.280E-04 -.363E-05
   -.415E+02 0.243E+02 0.228E+03   0.411E+02 -.232E+02 -.228E+03   0.345E+00 -.145E+01 -.349E+00   -.947E-05 0.183E-04 -.154E-04
   0.254E+02 0.468E+02 -.260E+03   -.239E+02 -.455E+02 0.259E+03   -.104E+01 -.103E+01 0.888E+00   0.579E-05 -.348E-04 0.651E-05
   0.217E+01 0.278E+02 -.129E+03   -.462E+01 -.263E+02 0.129E+03   0.201E+01 -.103E+01 0.471E+00   -.135E-04 -.218E-04 0.441E-06
   0.191E+02 0.219E+01 0.276E+03   -.164E+02 -.361E+01 -.274E+03   -.233E+01 0.152E+01 -.134E+01   0.332E-05 0.117E-04 -.228E-04
   0.101E+02 0.421E+01 -.777E+02   -.899E+01 -.144E+01 0.779E+02   -.164E+01 -.265E+01 -.294E+00   -.849E-05 -.149E-04 -.699E-06
   -.511E+01 -.479E+02 -.218E+03   0.483E+01 0.473E+02 0.217E+03   0.488E+00 0.767E+00 0.154E+01   -.162E-05 0.315E-04 0.966E-05
 -----------------------------------------------------------------------------------------------
   -.296E+01 0.188E+02 0.238E+02   -.133E-13 -.142E-13 -.369E-12   0.294E+01 -.188E+02 -.239E+02   0.741E-04 -.566E-04 -.780E-03


 POSITION                                       TOTAL-FORCE (eV/Angst)
 -----------------------------------------------------------------------------------
      0.30505     12.55318     17.43420         0.043772      0.094473     -0.102969
      0.38515      8.30398     12.65817        -0.126072     -0.163320     -0.126429
      8.82848     10.10550     14.36124         0.054089     -0.094711      0.091936
      9.99474      3.38003     10.30413        -0.068737     -0.032501     -0.045725
      9.43064      3.87625     16.81362         0.097124      0.158423     -0.027894
     13.44118      7.52628     14.58406        -0.023364      0.040429     -0.291572
      0.34174      5.39049     13.32695        -0.023445     -0.087500     -0.163242
      3.50061      1.59779     15.99138         0.015700     -0.115459     -0.124565
      2.63030     14.12334     13.92291         0.128117      0.070075      0.119757
      4.16280      8.11357     11.78646        -0.323981      0.250054     -0.312393
      2.58169      6.63492     15.04733        -0.171490     -0.268912      0.175754
     12.64613     10.37694     13.03873        -0.076574      0.312791     -0.385588
      8.54554      5.66770     13.34195         0.277056     -0.006264      0.160735
     14.00111     13.58498     12.44399        -0.006642     -0.070865     -0.066435
      5.19773      6.01228     11.02999         0.651310      0.118725      0.130580
     10.89521      8.98365     12.33266         0.166487      0.002162      0.014725
      3.16159     13.35116     11.72526         0.231606     -0.618447      0.039433
      9.61134     10.31042     10.92314        -0.075581      0.082703      0.018839
     14.37337     12.01476     16.12524        -0.196504     -0.029889      0.250838
      6.47162      2.40307     16.62909         0.207264     -0.082684     -0.482682
     10.17774     12.57240     11.18725        -0.234073      0.081533     -0.029378
     11.72809     13.84853     12.47374         0.152589     -0.126226      0.181612
      6.30572      7.96397     14.75504        -0.206515      0.225903      0.301053
      6.70399      0.62189     11.21462         0.029556      0.074930     -0.071719
      5.48019     13.42767     12.19614        -0.135379      0.091005      0.101126
      8.48048      7.16679     15.14394        -0.116911     -0.142054     -0.195544
     13.48865      9.00333     14.76652         0.022014     -0.410855      0.706969
     14.24860     11.43066     11.66287         0.138983     -0.077854      0.123374
      5.55841      4.11480     15.20568         0.096353     -0.094126      0.076460
      7.33035     10.05307     11.18235         0.087884      0.047868      0.259613
      4.82619     13.54966     14.52481        -0.022276     -0.072570     -0.159258
      0.72946      9.89005     15.88570        -0.062415      0.024447     -0.204215
      3.44704     10.03449     13.19561        -0.045965     -0.055834      0.139044
      8.69195      2.91981     15.96346         0.075898     -0.086771      0.073087
     12.03712      1.98918     15.41608        -0.054733      0.490373     -0.483171
      9.93765      1.23533     14.96101        -0.216580      0.017013      0.220621
      8.82836     14.37488     11.72488        -0.454022      0.293374     -0.353770
      2.50674      0.59951     10.37006        -0.316072      0.359930      0.140818
     10.75092      5.07757     12.89089        -0.410450      0.009021     -0.041802
      6.52212      0.55768     15.09893        -0.180533      0.055332      0.248668
      0.23437      2.92456     11.41651        -0.135159      0.076410     -0.481392
     12.24717      4.05495     14.37779         0.182612     -0.626306      0.223526
      5.19557     11.24578     14.33762         0.155365     -0.013376      0.195451
     13.58670      6.33852     10.74114        -0.395586     -0.356709      0.275958
      2.73886      8.98643     15.16380         0.462944     -0.249152      0.121194
      0.98818      7.49347     11.53616         0.111315      0.555454     -0.105162
      0.36733      0.66453     11.10979         0.472520      0.196521      0.139521
      4.83709      6.24514     15.20799        -0.255516      0.214955     -0.215278
      2.46248      9.14467     10.51035         0.121408      0.065685      0.008789
      2.75315      6.41951     12.72422         0.000552     -0.259862      0.191235
      7.59056      3.73783     14.11838        -0.205896      0.137748      0.228192
     11.96524     12.07315     16.26406        -0.155013      0.042531      0.394367
      0.41159     13.70497     14.60707         0.087741     -0.050021      0.071058
      2.85340      1.79296     14.65002         0.069004     -0.125027     -0.085619
      4.97339      9.56092     15.90968        -0.079623     -0.039143     -0.228827
      3.67323      4.43404     11.86745         0.081603     -0.145723     -0.135678
     10.45209      1.27423     12.60818         0.171629      0.139527     -0.103007
      4.44558      2.99780     13.51328        -0.212623     -0.052894     -0.015044
      2.41156      2.93615     10.58423        -0.127694     -0.268402      0.336299
      6.45498      8.22701     12.32647         0.331551      0.018043     -0.045699
      8.87008     12.72031     13.48900         0.513773     -0.646910      0.355448
      6.88429     11.62655     12.77808         0.046379      0.142952     -0.237312
      6.47730      1.91787     13.13185         0.124819     -0.412063     -0.277081
     14.12598      1.16128     15.46722         0.245883      0.207345     -0.394580
      8.55179     13.96230     15.43424         0.095902     -0.007782      0.061805
      2.02726     11.17899     11.71068        -0.237957      0.161595     -0.342991
     11.67995      6.88378     11.80305         0.088149      0.084341     -0.134790
     10.99518      3.29633     11.40225        -0.033889      0.008876     -0.113116
     14.39342      3.98949     13.50365        -0.169295      0.342112      0.340630
      7.46102      6.35913     11.36978        -0.312065     -0.295845     -0.011036
     11.54663      9.83238     15.75507         0.470126      0.275312     -0.272831
      9.79544      8.95843     14.45427        -0.333002      0.443867     -0.090752
     13.06482      4.09115     10.45508         0.330446      0.248513      0.423143
     11.27962     12.14658     14.02817        -0.594519     -0.062552     -0.102001
      0.95430      2.93854     15.22219         0.156628     -0.013744      0.118887
 -----------------------------------------------------------------------------------
    total drift:                               -0.016637     -0.005312     -0.009459


--------------------------------------------------------------------------------------------------------



  FREE ENERGIE OF THE ION-ELECTRON SYSTEM (eV)
  ---------------------------------------------------
  free  energy   TOTEN  =      -653.64804358 eV

  energy  without entropy=     -653.49667726  energy(sigma->0) =     -653.57236042



--------------------------------------------------------------------------------------------------------


    POTLOK:  cpu time      3.3214: real time      3.3239


--------------------------------------------------------------------------------------------------------


     LOOP+:  cpu time   6948.2853: real time   6952.7329
    4ORBIT:  cpu time      0.0000: real time      0.0000



 total charge

# of ion       s       p       d       tot
------------------------------------------
    1        0.566   0.015   0.000   0.581
    2        0.559   0.016   0.000   0.575
    3        0.564   0.016   0.000   0.580
    4        0.565   0.016   0.000   0.580
    5        0.568   0.016   0.000   0.584
    6        0.562   0.016   0.000   0.578
    7        0.566   0.016   0.000   0.583
    8        0.564   0.015   0.000   0.579
    9        0.758   0.931   0.000   1.689
   10        0.747   0.925   0.000   1.672
   11        0.808   0.868   0.000   1.676
   12        0.767   0.899   0.000   1.666
   13        0.763   0.938   0.000   1.701
   14        0.752   0.973   0.000   1.724
   15        0.817   0.802   0.000   1.619
   16        0.754   0.937   0.000   1.691
   17        0.765   0.880   0.000   1.645
   18        0.777   0.876   0.000   1.652
   19        0.744   0.957   0.000   1.701
   20        0.824   0.798   0.000   1.622
   21        0.786   0.861   0.000   1.647
   22        0.767   0.928   0.000   1.695
   23        0.761   0.915   0.000   1.676
   24        0.805   0.871   0.000   1.676
   25        0.764   0.920   0.000   1.684
   26        0.804   0.864   0.000   1.668
   27        0.749   0.976   0.000   1.725
   28        0.794   0.874   0.000   1.668
   29        0.761   0.967   0.000   1.729
   30        0.793   0.890   0.000   1.684
   31        0.763   0.923   0.000   1.686
   32        0.783   0.897   0.000   1.680
   33        0.789   0.859   0.000   1.648
   34        0.750   0.987   0.000   1.737
   35        0.780   0.901   0.000   1.681
   36        0.752   0.938   0.000   1.690
   37        0.774   0.903   0.000   1.676
   38        0.791   0.870   0.000   1.661
   39        0.750   0.960   0.000   1.710
   40        0.761   0.908   0.000   1.668
   41        0.758   0.945   0.000   1.703
   42        0.779   0.884   0.000   1.663
   43        0.766   0.907   0.000   1.673
   44        0.769   0.897   0.000   1.665
   45        0.760   0.914   0.000   1.675
   46        0.754   0.912   0.000   1.666
   47        0.791   0.900   0.000   1.692
   48        0.791   0.888   0.000   1.679
   49        0.819   0.810   0.000   1.629
   50        0.770   0.893   0.000   1.662
   51        0.769   0.955   0.000   1.724
   52        0.816   0.840   0.000   1.656
   53        0.756   0.924   0.000   1.680
   54        0.748   0.989   0.000   1.737
   55        0.809   0.837   0.000   1.646
   56        0.749   0.947   0.000   1.696
   57        0.758   0.905   0.000   1.664
   58        0.759   0.969   0.000   1.728
   59        0.792   0.848   0.000   1.640
   60        0.771   0.887   0.000   1.658
   61        0.761   0.882   0.000   1.643
   62        0.765   0.935   0.000   1.700
   63        0.767   0.914   0.000   1.682
   64        0.781   0.911   0.000   1.692
   65        0.816   0.850   0.000   1.666
   66        0.757   0.895   0.000   1.652
   67        0.778   0.904   0.000   1.682
   68        0.739   0.942   0.000   1.681
   69        0.753   0.946   0.000   1.699
   70        0.811   0.860   0.000   1.671
   71        0.801   0.857   0.000   1.658
   72        0.752   0.955   0.000   1.707
   73        0.793   0.865   0.000   1.657
   74        0.763   0.870   0.000   1.633
   75        0.798   0.913   0.000   1.711
--------------------------------------------------
tot         56.388  60.669   0.000 117.057


 total amount of memory used by VASP MPI-rank0   377350. kBytes
=======================================================================

   base                                    :      30000. kBytes
   nonl-proj                               :      73427. kBytes
   fftplans                                :     102073. kBytes
   grid                                    :      78750. kBytes
   one-center                              :         15. kBytes
   wavefun                                 :      93085. kBytes

  
  
 General timing and accounting informations for this job:
 ========================================================
  
                  Total CPU time used (sec):     7096.401
                            User time (sec):     6266.322
                          System time (sec):      830.079
                         Elapsed time (sec):     7101.027
  
                   Maximum memory used (kb):      639056.
                   Average memory used (kb):          N/A
  
                          Minor page faults:     15202316
                          Major page faults:         1187
                 Voluntary context switches:         2969
