 vasp.6.5.0 16Dec24 (build Jan 20 2025 08:32:48) complex                         
 executed on        HPECrayEX_GCC date 2025.08.02  08:36:24
 running  128 mpi-ranks, with    1 threads/rank, on    2 nodes
 distrk:  each k-point on  128 cores,    1 groups
 distr:  one band on NCORE=  16 cores,    8 groups


--------------------------------------------------------------------------------------------------------


 INCAR:
   SYSTEM = a-Si SPC
   NCORE = 16
   ISTART = 1
   ICHARG = 1
   ISPIN = 1
   ISYM = 1
   EDIFF = 1E-6
   NELM = 150
   EDIFFG = -0.01
   NSW = 0
   ISIF = 2
   IBRION = -1
   PREC = Accurate
   ENCUT = 1200
   KSPACING = 0.23
   KGAMMA = .TRUE.
   METAGGA = SCAN
   LASPH = .TRUE.
   LDIAG = .FALSE.
   LMIXTAU = .TRUE.
   ADDGRID = .TRUE.
   ALGO = Normal
   ISMEAR = 0
   SIGMA = 0.1
   LORBIT = 11
   NEDOS = 2000
   LWAVE = .FALSE.
   LCHARG = .FALSE.

 POTCAR:    PAW_PBE H 15Jun2001                   
 POTCAR:    PAW_PBE Si 05Jan2001                  
 POTCAR:    PAW_PBE H 15Jun2001                   
   SHA256 =  030f79b5d3ab3cf0e668861823c8fb652ff669f3e15e46930bd03bfd63a607b6 H/POTCAR              
   COPYR  = (c) Copyright 15Jun2001 Georg Kresse                                                    
   COPYR  = This file is part of the software VASP. Any use, copying, and all other rights are regul
   COPYR  = If you do not have a valid VASP license, you may not use, copy or distribute this file. 
   VRHFIN =H: ultrasoft test                                                                        
   LEXCH  = PE                                                                                      
   EATOM  =    12.4884 eV,    0.9179 Ry                                                             
                                                                                                    
   TITEL  = PAW_PBE H 15Jun2001                                                                     
   LULTRA =        F    use ultrasoft PP ?                                                          
   IUNSCR =        0    unscreen: 0-lin 1-nonlin 2-no                                               
   RPACOR =    0.000    partial core radius                                                         
   POMASS =    1.000; ZVAL   =    1.000    mass and valenz                                          
   RCORE  =    1.100    outmost cutoff radius                                                       
   RWIGS  =    0.700; RWIGS  =    0.370    wigner-seitz radius (au A)                               
   ENMAX  =  250.000; ENMIN  =  200.000 eV                                                          
   RCLOC  =    0.701    cutoff for local pot                                                        
   LCOR   =        T    correct aug charges                                                         
   LPAW   =        T    paw PP                                                                      
   EAUG   =  400.000                                                                                
   RMAX   =    1.123    core radius for proj-oper                                                   
   RAUG   =    1.200    factor for augmentation sphere                                              
   RDEP   =    1.112    radius for radial grids                                                     
   RDEPT  =    0.926    core radius for aug-charge                                                  
                                                                                                    
   Atomic configuration                                                                             
    2 entries                                                                                       
     n  l   j            E        occ.                                                              
     1  0  0.50        -6.4927   1.0000                                                             
     2  1  0.50        -3.4015   0.0000                                                             
   Description                                                                                      
     l       E           TYP  RCUT    TYP  RCUT                                                     
     0     -6.4927494     23  1.100                                                                 
     0      6.8029130     23  1.100                                                                 
     1     -4.0817478     23  1.100                                                                 
  local pseudopotential read in
  atomic valenz-charges read in
  non local Contribution for L=           0  read in
    real space projection operators read in
  non local Contribution for L=           0  read in
    real space projection operators read in
  non local Contribution for L=           1  read in
    real space projection operators read in
    PAW grid and wavefunctions read in

   number of l-projection  operators is LMAX  =           3
   number of lm-projection operators is LMMAX =           5

 POTCAR:    PAW_PBE Si 05Jan2001                  
   SHA256 =  79d9987ad8750f624c4d6acb2a16d13abf6a777132adc04dc6c8399be72b42bb Si/POTCAR             
   COPYR  = (c) Copyright 05Jan2001 Georg Kresse                                                    
   COPYR  = This file is part of the software VASP. Any use, copying, and all other rights are regul
   COPYR  = If you do not have a valid VASP license, you may not use, copy or distribute this file. 
   VRHFIN =Si: s2p2                                                                                 
   LEXCH  = PE                                                                                      
   EATOM  =   103.0669 eV,    7.5752 Ry                                                             
                                                                                                    
   TITEL  = PAW_PBE Si 05Jan2001                                                                    
   LULTRA =        F    use ultrasoft PP ?                                                          
   IUNSCR =        1    unscreen: 0-lin 1-nonlin 2-no                                               
   RPACOR =    1.500    partial core radius                                                         
   POMASS =   28.085; ZVAL   =    4.000    mass and valenz                                          
   RCORE  =    1.900    outmost cutoff radius                                                       
   RWIGS  =    2.480; RWIGS  =    1.312    wigner-seitz radius (au A)                               
   ENMAX  =  245.345; ENMIN  =  184.009 eV                                                          
   ICORE  =        2    local potential                                                             
   LCOR   =        T    correct aug charges                                                         
   LPAW   =        T    paw PP                                                                      
   EAUG   =  322.069                                                                                
   DEXC   =    0.000                                                                                
   RMAX   =    1.950    core radius for proj-oper                                                   
   RAUG   =    1.300    factor for augmentation sphere                                              
   RDEP   =    1.993    radius for radial grids                                                     
   RDEPT  =    1.837    core radius for aug-charge                                                  
                                                                                                    
   Atomic configuration                                                                             
    6 entries                                                                                       
     n  l   j            E        occ.                                                              
     1  0  0.50     -1785.8828   2.0000                                                             
     2  0  0.50      -139.4969   2.0000                                                             
     2  1  1.50       -95.5546   6.0000                                                             
     3  0  0.50       -10.8127   2.0000                                                             
     3  1  0.50        -4.0811   2.0000                                                             
     3  2  1.50        -4.0817   0.0000                                                             
   Description                                                                                      
     l       E           TYP  RCUT    TYP  RCUT                                                     
     0    -10.8127223     23  1.900                                                                 
     0     -7.6451159     23  1.900                                                                 
     1     -4.0811372     23  1.900                                                                 
     1      2.4879257     23  1.900                                                                 
     2     -4.0817478      7  1.900                                                                 
  local pseudopotential read in
  partial core-charges read in
  partial kinetic energy density read in
  atomic valenz-charges read in
  non local Contribution for L=           0  read in
    real space projection operators read in
  non local Contribution for L=           0  read in
    real space projection operators read in
  non local Contribution for L=           1  read in
    real space projection operators read in
  non local Contribution for L=           1  read in
    real space projection operators read in
    PAW grid and wavefunctions read in

   number of l-projection  operators is LMAX  =           4
   number of lm-projection operators is LMMAX =           8

 -----------------------------------------------------------------------------
|                                                                             |
|               ----> ADVICE to this user running VASP <----                  |
|                                                                             |
|     You have a (more or less) 'large supercell' and for larger cells it     |
|     might be more efficient to use real-space projection operators.         |
|     Therefore, try LREAL= Auto in the INCAR file.                           |
|     Mind: For very accurate calculation, you might also keep the            |
|     reciprocal projection scheme (i.e. LREAL=.FALSE.).                      |
|                                                                             |
 -----------------------------------------------------------------------------

 -----------------------------------------------------------------------------
|                                                                             |
|               ----> ADVICE to this user running VASP <----                  |
|                                                                             |
|     You enforced a specific xc type in the INCAR file but a different       |
|     type was found in the POTCAR file.                                      |
|     I HOPE YOU KNOW WHAT YOU ARE DOING!                                     |
|                                                                             |
 -----------------------------------------------------------------------------

  PAW_PBE H 15Jun2001                   :
 energy of atom  1       EATOM=  -12.4884
 kinetic energy error for atom=    0.0000 (will be added to EATOM!!)
  PAW_PBE Si 05Jan2001                  :
 energy of atom  2       EATOM= -103.0669
 kinetic energy error for atom=    0.0001 (will be added to EATOM!!)


 POSCAR:  H Si
  positions in cartesian coordinates
  No initial velocities read in


 exchange-correlation table for SCAN
   RHO(1)=    0.500       N(1)  =     2000
   RHO(2)=  100.500       N(2)  =     4000



--------------------------------------------------------------------------------------------------------


 ion  position               nearest neighbor table
   1  0.358  0.142  0.244-  64 1.49
   2  0.224  0.276  0.217-  64 1.48
   3  0.108  0.392  0.244-  62 1.49
   4  0.474  0.026  0.217- 126 1.48
   5  0.858  0.142  0.244-  61 1.49
   6  0.608  0.392  0.244-  63 1.49
   7  0.974  0.026  0.217- 127 1.48
   8  0.724  0.276  0.217-  61 1.48
   9  0.006  0.494  0.756-  95 1.49
  10  0.139  0.361  0.783-  95 1.48
  11  0.389  0.111  0.783-  96 1.48
  12  0.256  0.244  0.756-  96 1.49
  13  0.987  0.013  0.756-  94 1.49
  14  0.853  0.147  0.783-  94 1.48
  15  0.737  0.263  0.756-  93 1.49
  16  0.603  0.397  0.783-  93 1.48
  17  0.108  0.892  0.244- 127 1.49
  18  0.358  0.642  0.244- 128 1.49
  19  0.224  0.776  0.217- 128 1.48
  20  0.474  0.526  0.217-  63 1.48
  21  0.858  0.642  0.244- 125 1.49
  22  0.724  0.776  0.217- 125 1.48
  23  0.974  0.526  0.217-  62 1.48
  24  0.608  0.892  0.244- 126 1.49
  25  0.103  0.897  0.783- 158 1.48
  26  0.237  0.763  0.756- 158 1.49
  27  0.487  0.513  0.756- 156 1.49
  28  0.353  0.647  0.783- 156 1.48
  29  0.756  0.744  0.756- 159 1.49
  30  0.889  0.611  0.783- 159 1.48
  31  0.639  0.861  0.783- 160 1.48
  32  0.506  0.994  0.756- 160 1.49
  33  0.118  0.132  0.282-  64 2.33 127 2.33  37 2.35  35 2.35
  34  0.368  0.382  0.282-  64 2.33  63 2.33  41 2.35 101 2.35
  35  0.993  0.257  0.316-  44 2.35  36 2.35  40 2.35  33 2.35
  36  0.122  0.378  0.349- 109 2.35  47 2.35  35 2.35 101 2.35
  37  0.243  0.007  0.316- 100 2.35  38 2.35  33 2.35  98 2.35
  38  0.372  0.128  0.349-  47 2.35  53 2.35  41 2.35  37 2.35
  39  0.618  0.132  0.282- 126 2.33  61 2.33  43 2.35  41 2.35
  40  0.868  0.382  0.282-  62 2.33  61 2.33  35 2.35 107 2.35
  41  0.493  0.257  0.316-  42 2.35  38 2.35  34 2.35  39 2.35
  42  0.622  0.378  0.349- 117 2.35  55 2.35 107 2.35  41 2.35
  43  0.743  0.007  0.316-  44 2.35 106 2.35  39 2.35 104 2.35
  44  0.872  0.128  0.349-  55 2.35  45 2.35  35 2.35  43 2.35
  45  0.997  0.003  0.383- 100 2.35 120 2.35  46 2.35  44 2.35
  46  0.121  0.129  0.416-  45 2.35  47 2.35  51 2.35  49 2.35
  47  0.247  0.253  0.383-  38 2.35  48 2.35  46 2.35  36 2.35
  48  0.371  0.379  0.416- 117 2.35  47 2.35  57 2.35 115 2.35
  49  0.996  0.254  0.450-  56 2.35  46 2.35  50 2.35  60 2.35
  50  0.121  0.379  0.483-  67 2.35 115 2.35  49 2.35 157 2.35
  51  0.246  0.004  0.450-  46 2.35 112 2.35  52 2.35 114 2.35
  52  0.371  0.129  0.483-  73 2.35  51 2.35  57 2.35  67 2.35
  53  0.497  0.003  0.383- 106 2.35  54 2.35 112 2.35  38 2.35
  54  0.621  0.129  0.416-  55 2.35  53 2.35  59 2.35  57 2.35
  55  0.747  0.253  0.383-  44 2.35  56 2.35  54 2.35  42 2.35
  56  0.871  0.379  0.416-  55 2.35 109 2.35  49 2.35 123 2.35
  57  0.496  0.254  0.450-  48 2.35  54 2.35  52 2.35  58 2.35
  58  0.622  0.378  0.483- 137 2.35 123 2.35  57 2.35  75 2.35
  59  0.746  0.004  0.450-  54 2.35 120 2.35 122 2.35  60 2.35
  60  0.872  0.128  0.483-  75 2.35  59 2.35  49 2.35  65 2.35
  61  0.762  0.238  0.250-   8 1.48   5 1.49  40 2.33  39 2.33
  62  0.012  0.488  0.250-  23 1.48   3 1.49  40 2.33  97 2.33
  63  0.512  0.488  0.250-  20 1.48   6 1.49  34 2.33 103 2.33
  64  0.262  0.238  0.250-   2 1.48   1 1.49  34 2.33  33 2.33
  65  0.997  0.003  0.517- 114 2.35  66 2.35 140 2.35  60 2.35
  66  0.121  0.129  0.550-  71 2.35  69 2.35  67 2.35  65 2.35
  67  0.246  0.254  0.517-  50 2.35  68 2.35  66 2.35  52 2.35
  68  0.371  0.379  0.550-  77 2.35 135 2.35  67 2.35 137 2.35
  69  0.996  0.254  0.584-  80 2.35  70 2.35  76 2.35  66 2.35
  70  0.123  0.377  0.617- 145 2.34  69 2.35 135 2.35  83 2.35
  71  0.246  0.004  0.584- 134 2.35  72 2.35  66 2.35 132 2.35
  72  0.373  0.127  0.617-  83 2.34  71 2.35  77 2.35  87 2.35
  73  0.496  0.004  0.517-  52 2.35  74 2.35 132 2.35 122 2.35
  74  0.621  0.129  0.550-  79 2.35  77 2.35  73 2.35  75 2.35
  75  0.747  0.253  0.517-  60 2.35  76 2.35  74 2.35  58 2.35
  76  0.871  0.379  0.550-  69 2.35 143 2.35 157 2.35  75 2.35
  77  0.496  0.254  0.584-  78 2.35  72 2.35  68 2.35  74 2.35
  78  0.619  0.381  0.617-  89 2.34 143 2.35  77 2.35 151 2.35
  79  0.746  0.004  0.584-  80 2.35 142 2.35  74 2.35 140 2.35
  80  0.869  0.131  0.617-  81 2.34  69 2.35  79 2.35  89 2.35
  81  0.994  0.006  0.650-  80 2.34 154 2.35  82 2.35 134 2.35
  82  0.121  0.129  0.684-  81 2.35  83 2.35  86 2.35  85 2.35
  83  0.248  0.252  0.650-  72 2.34  84 2.35  82 2.35  70 2.35
  84  0.371  0.379  0.684- 151 2.35  83 2.35  91 2.35 150 2.35
  85  0.996  0.254  0.718-  95 2.34  94 2.34  90 2.35  82 2.35
  86  0.246  0.004  0.718-  96 2.34 158 2.34  82 2.35 148 2.35
  87  0.498  0.002  0.650- 142 2.34  88 2.35 148 2.35  72 2.35
  88  0.621  0.129  0.684-  89 2.35  87 2.35  92 2.35  91 2.35
  89  0.744  0.256  0.650-  78 2.34  88 2.35  90 2.35  80 2.35
  90  0.871  0.379  0.684-  89 2.35 145 2.35  85 2.35 129 2.35
  91  0.496  0.254  0.718-  96 2.34  93 2.34  84 2.35  88 2.35
  92  0.746  0.004  0.718- 160 2.34  94 2.34  88 2.35 154 2.35
  93  0.641  0.359  0.750-  16 1.48  15 1.49  91 2.34 129 2.34
  94  0.891  0.109  0.750-  14 1.48  13 1.49  92 2.34  85 2.34
  95  0.101  0.399  0.750-  10 1.48   9 1.49  85 2.34 150 2.34
  96  0.351  0.149  0.750-  11 1.48  12 1.49  91 2.34  86 2.34
  97  0.118  0.632  0.282-  62 2.33 128 2.33 101 2.35  99 2.35
  98  0.368  0.882  0.282- 126 2.33 128 2.33 105 2.35  37 2.35
  99  0.993  0.757  0.316- 100 2.35 108 2.35 104 2.35  97 2.35
 100  0.122  0.878  0.349-  45 2.35 111 2.35  37 2.35  99 2.35
 101  0.243  0.507  0.316- 102 2.35  36 2.35  97 2.35  34 2.35
 102  0.372  0.628  0.349- 111 2.35 117 2.35 101 2.35 105 2.35
 103  0.618  0.632  0.282- 125 2.33  63 2.33 107 2.35 105 2.35
 104  0.868  0.882  0.282- 125 2.33 127 2.33  99 2.35  43 2.35
 105  0.493  0.757  0.316- 102 2.35 106 2.35  98 2.35 103 2.35
 106  0.622  0.878  0.349-  53 2.35 119 2.35  43 2.35 105 2.35
 107  0.743  0.507  0.316-  42 2.35 108 2.35 103 2.35  40 2.35
 108  0.872  0.628  0.349- 119 2.35 109 2.35  99 2.35 107 2.35
 109  0.997  0.503  0.383-  36 2.35 110 2.35  56 2.35 108 2.35
 110  0.121  0.629  0.416- 111 2.35 109 2.35 115 2.35 113 2.35
 111  0.247  0.753  0.383- 102 2.35 110 2.35 112 2.35 100 2.35
 112  0.371  0.879  0.416- 111 2.35  53 2.35 121 2.35  51 2.35
 113  0.996  0.754  0.450- 120 2.35 110 2.35 124 2.35 114 2.35
 114  0.122  0.878  0.483-  65 2.35 113 2.35  51 2.35 131 2.35
 115  0.246  0.504  0.450- 110 2.35  48 2.35  50 2.35 116 2.35
 116  0.372  0.628  0.483- 131 2.35 115 2.35 121 2.35 137 2.35
 117  0.497  0.503  0.383-  42 2.35  48 2.35 118 2.35 102 2.35
 118  0.621  0.629  0.416- 117 2.35 119 2.35 123 2.35 121 2.35
 119  0.747  0.753  0.383- 108 2.35 120 2.35 118 2.35 106 2.35
 120  0.871  0.879  0.416-  45 2.35 119 2.35 113 2.35  59 2.35
 121  0.496  0.754  0.450- 112 2.35 118 2.35 122 2.35 116 2.35
 122  0.621  0.879  0.483- 139 2.35 121 2.35  59 2.35  73 2.35
 123  0.746  0.504  0.450- 118 2.35  56 2.35 124 2.35  58 2.35
 124  0.871  0.629  0.483- 157 2.35 123 2.35 113 2.35 139 2.35
 125  0.762  0.738  0.250-  22 1.48  21 1.49 104 2.33 103 2.33
 126  0.512  0.988  0.250-   4 1.48  24 1.49  39 2.33  98 2.33
 127  0.012  0.988  0.250-   7 1.48  17 1.49  33 2.33 104 2.33
 128  0.262  0.738  0.250-  19 1.48  18 1.49  97 2.33  98 2.33
 129  0.746  0.504  0.718- 159 2.34  93 2.34 152 2.35  90 2.35
 130  0.121  0.629  0.550- 135 2.35 133 2.35 157 2.35 131 2.35
 131  0.247  0.753  0.517- 116 2.35 132 2.35 130 2.35 114 2.35
 132  0.371  0.879  0.550- 141 2.35  71 2.35  73 2.35 131 2.35
 133  0.996  0.754  0.584- 134 2.35 144 2.35 140 2.35 130 2.35
 134  0.119  0.881  0.617- 147 2.34  71 2.35 133 2.35  81 2.35
 135  0.246  0.504  0.584- 136 2.35  70 2.35 130 2.35  68 2.35
 136  0.369  0.631  0.617- 151 2.34 141 2.35 135 2.35 147 2.35
 137  0.497  0.503  0.517-  58 2.35  68 2.35 138 2.35 116 2.35
 138  0.621  0.629  0.550- 143 2.35 141 2.35 139 2.35 137 2.35
 139  0.746  0.754  0.517- 122 2.35 140 2.35 138 2.35 124 2.35
 140  0.871  0.879  0.550- 133 2.35  79 2.35 139 2.35  65 2.35
 141  0.496  0.754  0.584- 136 2.35 142 2.35 132 2.35 138 2.35
 142  0.623  0.877  0.617-  87 2.34 141 2.35  79 2.35 153 2.35
 143  0.746  0.504  0.584-  78 2.35 144 2.35 138 2.35  76 2.35
 144  0.873  0.627  0.617- 153 2.34 143 2.35 133 2.35 145 2.35
 145  0.998  0.502  0.650-  70 2.34 146 2.35  90 2.35 144 2.35
 146  0.121  0.629  0.684- 147 2.35 145 2.35 150 2.35 149 2.35
 147  0.244  0.756  0.650- 134 2.34 146 2.35 148 2.35 136 2.35
 148  0.371  0.879  0.684- 147 2.35  87 2.35 155 2.35  86 2.35
 149  0.996  0.754  0.718- 159 2.34 158 2.34 154 2.35 146 2.35
 150  0.246  0.504  0.718-  95 2.34 156 2.34 146 2.35  84 2.35
 151  0.494  0.506  0.650- 136 2.34  84 2.35 152 2.35  78 2.35
 152  0.621  0.629  0.684- 151 2.35 153 2.35 129 2.35 155 2.35
 153  0.748  0.752  0.650- 144 2.34 154 2.35 152 2.35 142 2.35
 154  0.871  0.879  0.684-  81 2.35 153 2.35 149 2.35  92 2.35
 155  0.496  0.754  0.718- 160 2.34 156 2.34 148 2.35 152 2.35
 156  0.391  0.609  0.750-  28 1.48  27 1.49 150 2.34 155 2.34
 157  0.996  0.504  0.517- 124 2.35  76 2.35 130 2.35  50 2.35
 158  0.141  0.859  0.750-  25 1.48  26 1.49  86 2.34 149 2.34
 159  0.851  0.649  0.750-  30 1.48  29 1.49 149 2.34 129 2.34
 160  0.601  0.899  0.750-  31 1.48  32 1.49  92 2.34 155 2.34

  LATTYP: Found a simple tetragonal cell.
 ALAT       =    10.8600000000
 C/A-ratio  =     3.7166206262
  
  Lattice vectors:
  
 A1 = (  10.8600000000,   0.0000000000,   0.0000000000)
 A2 = (   0.0000000000,  10.8600000000,   0.0000000000)
 A3 = (   0.0000000000,   0.0000000000,  40.3625000000)


Analysis of symmetry for initial positions (statically):
=====================================================================
 Subroutine PRICEL returns following result:
 
  LATTYP: Found a simple orthorhombic cell.
 ALAT       =     3.8395898222
 B/A-ratio  =     1.9999999992
 C/A-ratio  =    10.5121905905
  
  Lattice vectors:
  
 A1 = (   2.7149999993,  -2.7150000011,   0.0000000000)
 A2 = (   5.4299999986,   5.4299999977,   0.0000000000)
 A3 = (   0.0000000000,   0.0000000000,  40.3625000000)
 
   4 primitive cells build up your supercell.
 

 Routine SETGRP: Setting up the symmetry group for a 
 simple tetragonal supercell.


 Subroutine GETGRP returns: Found  2 space group operations
 (whereof  2 operations were pure point group operations)
 out of a pool of 16 trial point group operations.


The static configuration has the point symmetry C_1h.


Analysis of symmetry for dynamics (positions and initial velocities):
=====================================================================
 Subroutine PRICEL returns following result:
 
  LATTYP: Found a simple orthorhombic cell.
 ALAT       =     3.8395898222
 B/A-ratio  =     1.9999999992
 C/A-ratio  =    10.5121905905
  
  Lattice vectors:
  
 A1 = (   2.7149999993,  -2.7150000011,   0.0000000000)
 A2 = (   5.4299999986,   5.4299999977,   0.0000000000)
 A3 = (   0.0000000000,   0.0000000000,  40.3625000000)
 
   4 primitive cells build up your supercell.
 

 Routine SETGRP: Setting up the symmetry group for a 
 simple tetragonal supercell.


 Subroutine GETGRP returns: Found  2 space group operations
 (whereof  2 operations were pure point group operations)
 out of a pool of 16 trial point group operations.


The dynamic configuration has the point symmetry C_1h.


 Subroutine INISYM returns: Found  2 space group operations
 (whereof  2 operations are pure point group operations),
 and found     4 'primitive' translations


----------------------------------------------------------------------------------------

                                     Primitive cell                                     

  volume of cell :    1190.0843

  direct lattice vectors                    reciprocal lattice vectors
     2.714999999 -2.715000001  0.000000000     0.184162063 -0.184162063  0.000000000
     5.429999999  5.429999998  0.000000000     0.092081031  0.092081031 -0.000000000
     0.000000000  0.000000000 40.362500000    -0.000000000  0.000000000  0.024775472

  length of vectors
     3.839589822  7.679179641 40.362500000     0.260444487  0.130222243  0.024775472

  position of ions in fractional coordinates (direct lattice)
     0.431232139  0.500000000  0.244206769
     0.897097404  0.500000000  0.216591819
     0.431268814  0.000000000  0.244208546
     0.897141338  0.000000000  0.216591906
     0.022030520  0.500000000  0.755629471
     0.557603211  0.500000000  0.783405096
     0.948133456  0.000000001  0.755629038
     0.412562412  0.000000000  0.783405040
     0.971657401  0.249999646  0.282340631
     0.971657401  0.750000354  0.282340631
     0.471551428  0.250000829  0.315930055
     0.488475764  0.500000000  0.349397648
     0.471551428  0.749999172  0.315930055
     0.488208434  0.000000000  0.349398096
     0.988404252  0.000000001  0.382835952
     0.984199430  0.250000484  0.416277165
     0.988703732  0.500000000  0.382835824
     0.984199430  0.749999517  0.416277165
     0.484139372  0.249999715  0.449731802
     0.484371386  0.500000000  0.483199679
     0.484139372  0.750000285  0.449731802
     0.486278063  0.000000000  0.483199462
     0.048570993  0.000000000  0.250274712
     0.048535442  0.500000000  0.250274274
     0.986422039  0.000000001  0.516669268
     0.985017070  0.249999765  0.550137421
     0.984261607  0.500000000  0.516669318
     0.985017070  0.750000235  0.550137421
     0.485012365  0.250000153  0.583592711
     0.492239147  0.500000000  0.617033615
     0.485012365  0.749999847  0.583592711
     0.477963133  0.000000000  0.617033756
     0.977032584  0.000000001  0.650477618
     0.985078634  0.250000209  0.684000167
     0.993172439  0.500000000  0.650477554
     0.985078634  0.749999791  0.684000167
     0.485078106  0.250000049  0.717577328
     0.485078106  0.749999952  0.717577328
     0.564963570  0.000000000  0.749723423
     0.405200134  0.500000000  0.749723577

  ion indices of the primitive-cell ions
   primitive index   ion index
                 1           1
                 2           4
                 3          17
                 4          19
                 5          12
                 6          11
                 7          13
                 8          16
                 9          33
                10          34
                11          37
                12          38
                13          41
                14         100
                15          45
                16          46
                17          47
                18          48
                19          51
                20          52
                21          57
                22         114
                23         127
                24          64
                25          65
                26          66
                27          67
                28          68
                29          71
                30          72
                31          77
                32         134
                33          81
                34          82
                35          83
                36          84
                37          86
                38          91
                39         158
                40          96

----------------------------------------------------------------------------------------


 -----------------------------------------------------------------------------
|                                                                             |
|           W    W    AA    RRRRR   N    N  II  N    N   GGGG   !!!           |
|           W    W   A  A   R    R  NN   N  II  NN   N  G    G  !!!           |
|           W    W  A    A  R    R  N N  N  II  N N  N  G       !!!           |
|           W WW W  AAAAAA  RRRRR   N  N N  II  N  N N  G  GGG   !            |
|           WW  WW  A    A  R   R   N   NN  II  N   NN  G    G                |
|           W    W  A    A  R    R  N    N  II  N    N   GGGG   !!!           |
|                                                                             |
|     The requested file  could not be found or opened for reading            |
|     k-point information. Automatic k-point generation is used as a          |
|     fallback, which may lead to unwanted results.                           |
|                                                                             |
 -----------------------------------------------------------------------------



Automatic generation of k-mesh.
 Grid dimensions derived from KSPACING:
 generate k-points for:    3    3    1

 Generating k-lattice:

  Cartesian coordinates                     Fractional coordinates (reciprocal lattice)
     0.030693677  0.000000000  0.000000000     0.333333333  0.000000000  0.000000000
     0.000000000  0.030693677  0.000000000     0.000000000  0.333333333  0.000000000
     0.000000000  0.000000000  0.024775472     0.000000000  0.000000000  1.000000000

  Length of vectors
     0.030693677  0.030693677  0.024775472

  Shift w.r.t. Gamma in fractional coordinates (k-lattice)
     0.000000000  0.000000000  0.000000000

 
 Subroutine IBZKPT returns following result:
 ===========================================
 
 Found      4 irreducible k-points:
 
 Following reciprocal coordinates:
            Coordinates               Weight
  0.000000  0.000000  0.000000      1.000000
  0.333333  0.000000  0.000000      4.000000
  0.333333  0.333333  0.000000      2.000000
 -0.333333  0.333333  0.000000      2.000000
 
 Following cartesian coordinates:
            Coordinates               Weight
  0.000000  0.000000  0.000000      1.000000
  0.030694  0.000000  0.000000      4.000000
  0.030694  0.030694  0.000000      2.000000
 -0.030694  0.030694  0.000000      2.000000
 


--------------------------------------------------------------------------------------------------------




 Dimension of arrays:
   k-points           NKPTS =      4   k-points in BZ     NKDIM =      4   number of bands    NBANDS=    360
   number of dos      NEDOS =   2000   number of ions     NIONS =    160
   non local maximal  LDIM  =      4   non local SUM 2l+1 LMDIM =      8
   total plane-waves  NPLWV = ******
   max r-space proj   IRMAX =      1   max aug-charges    IRDMAX= 428338
   dimension x,y,z NGX =   126 NGY =  126 NGZ =  480
   dimension x,y,z NGXF=   252 NGYF=  252 NGZF=  960
   support grid    NGXF=   504 NGYF=  504 NGZF= 1920
   ions per type =              32 128
   NGX,Y,Z   is equivalent  to a cutoff of  19.29, 19.29, 19.77 a.u.
   NGXF,Y,Z  is equivalent  to a cutoff of  38.58, 38.58, 39.54 a.u.

 SYSTEM =  a-Si SPC                                
 POSCAR =   H Si                                   

 Startparameter for this run:
   NWRITE =      2    write-flag & timer
   PREC   = accura    normal or accurate (medium, high low for compatibility)
   ISTART =      1    job   : 0-new  1-cont  2-samecut
   ICHARG =      1    charge: 1-file 2-atom 10-const
   ISPIN  =      1    spin polarized calculation?
   LNONCOLLINEAR =      F non collinear calculations
   LSORBIT =      F    spin-orbit coupling
   INIWAV =      1    electr: 0-lowe 1-rand  2-diag
   LASPH  =      T    aspherical Exc in radial PAW
 Electronic Relaxation 1
   ENCUT  = 1200.0 eV  88.20 Ry    9.39 a.u.  30.67 30.67114.01*2*pi/ulx,y,z
   ENINI  = 1200.0     initial cutoff
   ENAUG  =  400.0 eV  augmentation charge cutoff
   NELM   =    150;   NELMIN=  2; NELMDL=  0     # of ELM steps 
   EDIFF  = 0.1E-05   stopping-criterion for ELM
   LREAL  =      F    real-space projection
   NLSPLINE    = F    spline interpolate recip. space projectors
   LCOMPAT=      F    compatible to vasp.4.4
   GGA_COMPAT  = T    GGA compatible to vasp.4.4-vasp.4.6
   LMAXPAW     = -100 max onsite density
   LMAXMIX     =    2 max onsite mixed and CHGCAR
   VOSKOWN=      0    Vosko Wilk Nusair interpolation
   ROPT   =    0.00000   0.00000
 Ionic relaxation
   EDIFFG = -.1E-01   stopping-criterion for IOM
   NSW    =      0    number of steps for IOM
   NBLOCK =      1;   KBLOCK =      1    inner block; outer block 
   IBRION =     -1    ionic relax: 0-MD 1-quasi-New 2-CG
   NFREE  =      0    steps in history (QN), initial steepest desc. (CG)
   ISIF   =      2    stress and relaxation
   IWAVPR =     10    prediction:  0-non 1-charg 2-wave 3-comb
   ISYM   =      1    0-nonsym 1-usesym 2-fastsym
   LCORR  =      T    Harris-Foulkes like correction to forces

   POTIM  = 0.5000    time-step for ionic-motion
   TEIN   =    0.0    initial temperature
   TEBEG  =    0.0;   TEEND  =   0.0 temperature during run
   SMASS  =  -3.00    Nose mass-parameter (am)
   estimated Nose-frequenzy (Omega)   =  0.10E-29 period in steps = 0.13E+47 mass=  -0.270E-26a.u.
   SCALEE = 1.0000    scale energy and forces
   NPACO  =    256;   APACO  = 10.0  distance and # of slots for P.C.
   PSTRESS=    0.0 pullay stress

  Mass of Ions in am
   POMASS =   1.00 28.09
  Ionic Valenz
   ZVAL   =   1.00  4.00
  Atomic Wigner-Seitz radii
   RWIGS  =  -1.00 -1.00
  virtual crystal weights 
   VCA    =   1.00  1.00
   NELECT =     544.0000    total number of electrons
   NUPDOWN=      -1.0000    fix difference up-down

 DOS related values:
   EMIN   =  10.00;   EMAX   =-10.00  energy-range for DOS
   EFERMI =   0.00;   METHOD = LEGACY      
   ISMEAR =     0;   SIGMA  =   0.10  broadening in eV -4-tet -1-fermi 0-gaus
   EFERMI_NEDOS =   21; number of points for ismear=-14 and -15

 Electronic relaxation 2 (details)
   IALGO  =     38    algorithm
   LDIAG  =      F    sub-space diagonalisation (order eigenvalues)
   LSUBROT=      F    optimize rotation matrix (better conditioning)
   TURBO    =      0    0=normal 1=particle mesh
   IRESTART =      0    0=no restart 2=restart with 2 vectors
   NREBOOT  =      0    no. of reboots
   NMIN     =      0    reboot dimension
   EREF     =   0.00    reference energy to select bands
   IMIX   =      4    mixing-type and parameters
     AMIX     =   0.40;   BMIX     =  1.00
     AMIX_MAG =   1.60;   BMIX_MAG =  1.00
     AMIN     =   0.10
     WC   =   100.;   INIMIX=   1;  MIXPRE=   1;  MAXMIX= -45

 Intra band minimization:
   WEIMIN = 0.0000     energy-eigenvalue tresh-hold
   EBREAK =  0.69E-09  absolut break condition
   DEPER  =   0.30     relativ break condition  

   TIME   =   0.40     timestep for ELM

  volume/ion in A,a.u.               =      29.75       200.78
  Fermi-wavevector in a.u.,A,eV,Ry     =   0.794441  1.501277  8.587143  0.631137
  Thomas-Fermi vector in A             =   1.900574

 Write flags
   LWAVE        =      F    write WAVECAR
   LDOWNSAMPLE  =      F    k-point downsampling of WAVECAR
   LCHARG       =      F    write CHGCAR
   LVTOT        =      F    write LOCPOT, total local potential
   LVHAR        =      F    write LOCPOT, Hartree potential only
   WRT_POTENTIAL= false  ! write potential to hdf5 file
   LELF         =      F    write electronic localiz. function (ELF)
   LORBIT       =     11    0 simple, 1 ext, 2 COOP (PROOUT), +10 PAW based schemes


 Python interface
   PLUGINS active      =      F    recompile with -DPLUGINS to activate

 Dipole corrections
   LMONO      =      F    monopole corrections only (constant potential shift)
   LDIPOL     =      F    correct potential (dipole corrections)
   IDIPOL     =      0    1-x, 2-y, 3-z, 4-all directions 
   EPSILON    =  1.0000000 bulk dielectric constant
   LVACPOTAV  =      F  vacuum potentials using an averaging scheme for the charge density
   VACPOTFLAT =  0.1000000 required flatness to determine vacuum potential

Coulomb truncation method
  LTRUNCATE          =      F  Coulomb kernel truncation to be used
  IDIMENSIONALITY    =      3  Dimensionality of cutoff (0 molecules / 2 surfaces)
  ISURFACE           =     -1  Direction of surface normal
  LCOARSEN           =      F  Coarsen the charge grid before padding, preferred


 Exchange correlation treatment:
   METAGGA = SCAN    functional components
   XC_C    = 1    coefficients multiplying the functional components
   LIBXC   =     F    Libxc                    
   VOSKOWN =     0    Vosko Wilk Nusair interpolation
   LHFCALC =     F    Hartree Fock is set to
   LHFONE  =     F    Hartree Fock one center treatment
   AEXX    =    0.0000 exact exchange contribution

 Parameters of functionals:
   SCAN:
     P1 =  0.000000E+00
     P2 =  0.000000E+00
     P3 =  0.000000E+00

 Accuracy and mixing parameters for tau-dependent meta-GGA functionals:
   LMAXTAU = 6
   LMIXTAU = T

 Van der Waals corrections
   IVDW    =     0    specifies the selected vdW correction

 Linear response parameters
   LEPSILON=     F    determine dielectric tensor
   LRPA    =     F    only Hartree local field effects (RPA)
   LNABLA  =     F    use nabla operator in PAW spheres
   LVEL    =     F    velocity operator in full k-point grid
   CSHIFT  =0.1000    complex shift for real part using Kramers Kronig
   OMEGAMAX=  -1.0    maximum frequency
   DEG_THRESHOLD= 0.2000000E-02 threshold for treating states as degnerate
   RTIME   =   -0.100 relaxation time in fs
  (WPLASMAI=    0.000 imaginary part of plasma frequency in eV, 0.658/RTIME)
   DFIELD  = 0.0000000 0.0000000 0.0000000 field for delta impulse in time

  Optional k-point grid parameters
   LKPOINTS_OPT  =     F    use optional k-point grid
   KPOINTS_OPT_MODE=     1    mode for optional k-point grid

 Orbital magnetization related:
   ORBITALMAG=     F  switch on orbital magnetization
   LCHIMAG   =     F  perturbation theory with respect to B field
   DQ        =  0.001000  dq finite difference perturbation B field
   LLRAUG    =     F  two centre corrections for induced B field
   LBONE     =     F  B-component reconstruction in AE one-centre
   LVGVCALC  =     T  calculate vGv susceptibility
   LVGVAPPL  =     F  apply vGv susceptibility instead of pGv for G=0

 Random number generation:
   RANDOM_GENERATOR = DEFAULT
   PCG_SEED         = not used


--------------------------------------------------------------------------------------------------------


 Static calculation
 charge density and potential will be updated during run
 non-spin polarized calculation
 Variant of blocked Davidson
 perform Loewdin sub-space diagonalisation
    ordering is kept fixed
    before iterative eigenvector-optimisation
 modified Broyden-mixing scheme, WC =      100.0
 initial mixing is a Kerker type mixing with AMIX =  0.4000 and BMIX =      1.0000
 Hartree-type preconditioning will be used
 using additional bands           88
 reciprocal scheme for non local part
 use partial core corrections
 calculate Harris-corrections to forces   (improved forces if not selfconsistent)
 use gradient corrections 
 use of overlap-Matrix (Vanderbilt PP)
 Gauss-broadening in eV      SIGMA  =   0.10


--------------------------------------------------------------------------------------------------------


  energy-cutoff  :     1200.00
  volume of cell :     4760.34
      direct lattice vectors                 reciprocal lattice vectors
    10.860000000  0.000000000  0.000000000     0.092081031  0.000000000  0.000000000
     0.000000000 10.860000000  0.000000000     0.000000000  0.092081031  0.000000000
     0.000000000  0.000000000 40.362500000     0.000000000  0.000000000  0.024775472

  length of vectors
    10.860000000 10.860000000 40.362500000     0.092081031  0.092081031  0.024775472



 old parameters found on file WAVECAR:
  energy-cutoff  :     1200.00
  volume of cell :     4760.34
      direct lattice vectors                 reciprocal lattice vectors
    10.860000000  0.000000000  0.000000000     0.092081031  0.000000000  0.000000000
     0.000000000 10.860000000  0.000000000     0.000000000  0.092081031  0.000000000
     0.000000000  0.000000000 40.362500000     0.000000000  0.000000000  0.024775472

  length of vectors


 k-points in units of 2pi/SCALE and weight: read from INCAR                         
   0.00000000  0.00000000  0.00000000       0.111
   0.03069368  0.00000000  0.00000000       0.444
   0.03069368  0.03069368  0.00000000       0.222
  -0.03069368  0.03069368  0.00000000       0.222

 k-points in reciprocal lattice and weights: read from INCAR                         
   0.00000000  0.00000000  0.00000000       0.111
   0.33333333  0.00000000  0.00000000       0.444
   0.33333333  0.33333333  0.00000000       0.222
  -0.33333333  0.33333333  0.00000000       0.222

 position of ions in fractional coordinates (direct lattice) 
   0.35780803  0.14219197  0.24420677
   0.22427435  0.27572565  0.21659182
   0.10780803  0.39219197  0.24420677
   0.47427435  0.02572565  0.21659182
   0.85781720  0.14218280  0.24420855
   0.60781720  0.39218280  0.24420855
   0.97428533  0.02571467  0.21659191
   0.72428533  0.27571467  0.21659191
   0.00550763  0.49449237  0.75562947
   0.13940080  0.36059920  0.78340510
   0.38940080  0.11059920  0.78340510
   0.25550763  0.24449237  0.75562947
   0.98703336  0.01296664  0.75562904
   0.85314060  0.14685940  0.78340504
   0.73703336  0.26296664  0.75562904
   0.60314060  0.39685940  0.78340504
   0.10781720  0.89218280  0.24420855
   0.35781720  0.64218280  0.24420855
   0.22428533  0.77571467  0.21659191
   0.47428533  0.52571467  0.21659191
   0.85780803  0.64219197  0.24420677
   0.72427435  0.77572565  0.21659182
   0.97427435  0.52572565  0.21659182
   0.60780803  0.89219197  0.24420677
   0.10314060  0.89685940  0.78340504
   0.23703336  0.76296664  0.75562904
   0.48703336  0.51296664  0.75562904
   0.35314060  0.64685940  0.78340504
   0.75550763  0.74449237  0.75562947
   0.88940080  0.61059920  0.78340510
   0.63940080  0.86059920  0.78340510
   0.50550763  0.99449237  0.75562947
   0.11791417  0.13208547  0.28234063
   0.36791453  0.38208583  0.28234063
   0.99288827  0.25711256  0.31593005
   0.12211894  0.37788106  0.34939765
   0.24288827  0.00711256  0.31593005
   0.37211894  0.12788106  0.34939765
   0.61791453  0.13208583  0.28234063
   0.86791417  0.38208547  0.28234063
   0.49288744  0.25711173  0.31593005
   0.62205211  0.37794789  0.34939810
   0.74288744  0.00711173  0.31593005
   0.87205211  0.12794789  0.34939810
   0.99710106  0.00289894  0.38283595
   0.12105010  0.12895038  0.41627716
   0.24717593  0.25282407  0.38283582
   0.37104962  0.37894990  0.41627716
   0.99603470  0.25396501  0.44973180
   0.12109285  0.37890715  0.48319968
   0.24603470  0.00396501  0.44973180
   0.37109285  0.12890715  0.48319968
   0.49717593  0.00282407  0.38283582
   0.62104962  0.12894990  0.41627716
   0.74710106  0.25289894  0.38283595
   0.87105010  0.37895038  0.41627716
   0.49603499  0.25396530  0.44973180
   0.62156952  0.37843048  0.48319946
   0.74603499  0.00396530  0.44973180
   0.87156952  0.12843048  0.48319946
   0.76214275  0.23785725  0.25027471
   0.01213386  0.48786614  0.25027427
   0.51214275  0.48785725  0.25027471
   0.26213386  0.23786614  0.25027427
   0.99660551  0.00339449  0.51666927
   0.12125415  0.12874561  0.55013742
   0.24606540  0.25393460  0.51666932
   0.37125439  0.37874585  0.55013742
   0.99625317  0.25374699  0.58359271
   0.12305979  0.37694021  0.61703361
   0.24625317  0.00374699  0.58359271
   0.37305979  0.12694021  0.61703361
   0.49606540  0.00393460  0.51666932
   0.62125439  0.12874585  0.55013742
   0.74660551  0.25339449  0.51666927
   0.87125415  0.37874561  0.55013742
   0.49625301  0.25374683  0.58359271
   0.61949078  0.38050922  0.61703376
   0.74625301  0.00374683  0.58359271
   0.86949078  0.13050922  0.61703376
   0.99425815  0.00574185  0.65047762
   0.12126976  0.12873045  0.68400017
   0.24829311  0.25170689  0.65047755
   0.37126955  0.37873024  0.68400017
   0.99626955  0.25373050  0.71757733
   0.24626955  0.00373050  0.71757733
   0.49829311  0.00170689  0.65047755
   0.62126955  0.12873024  0.68400017
   0.74425815  0.25574185  0.65047762
   0.87126976  0.37873045  0.68400017
   0.49626950  0.25373045  0.71757733
   0.74626950  0.00373045  0.71757733
   0.64124089  0.35875911  0.74972342
   0.89124089  0.10875911  0.74972342
   0.10130003  0.39869997  0.74972358
   0.35130003  0.14869997  0.74972358
   0.11791453  0.63208583  0.28234063
   0.36791417  0.88208547  0.28234063
   0.99288744  0.75711173  0.31593005
   0.12205211  0.87794789  0.34939810
   0.24288744  0.50711173  0.31593005
   0.37205211  0.62794789  0.34939810
   0.61791417  0.63208547  0.28234063
   0.86791453  0.88208583  0.28234063
   0.49288827  0.75711256  0.31593005
   0.62211894  0.87788106  0.34939765
   0.74288827  0.50711256  0.31593005
   0.87211894  0.62788106  0.34939765
   0.99717593  0.50282407  0.38283582
   0.12104962  0.62894990  0.41627716
   0.24710106  0.75289894  0.38283595
   0.37105010  0.87895038  0.41627716
   0.99603499  0.75396530  0.44973180
   0.12156952  0.87843048  0.48319946
   0.24603499  0.50396530  0.44973180
   0.37156952  0.62843048  0.48319946
   0.49710106  0.50289894  0.38283595
   0.62105010  0.62895038  0.41627716
   0.74717593  0.75282407  0.38283582
   0.87104962  0.87894990  0.41627716
   0.49603470  0.75396501  0.44973180
   0.62109285  0.87890715  0.48319968
   0.74603470  0.50396501  0.44973180
   0.87109285  0.62890715  0.48319968
   0.76213386  0.73786614  0.25027427
   0.51213386  0.98786614  0.25027427
   0.01214275  0.98785725  0.25027471
   0.26214275  0.73785725  0.25027471
   0.74626955  0.50373050  0.71757733
   0.12125439  0.62874585  0.55013742
   0.24660551  0.75339449  0.51666927
   0.37125415  0.87874561  0.55013742
   0.99625301  0.75374683  0.58359271
   0.11949078  0.88050922  0.61703376
   0.24625301  0.50374683  0.58359271
   0.36949078  0.63050922  0.61703376
   0.49660551  0.50339449  0.51666927
   0.62125415  0.62874561  0.55013742
   0.74606540  0.75393460  0.51666932
   0.87125439  0.87874585  0.55013742
   0.49625317  0.75374699  0.58359271
   0.62305979  0.87694021  0.61703361
   0.74625317  0.50374699  0.58359271
   0.87305979  0.62694021  0.61703361
   0.99829311  0.50170689  0.65047755
   0.12126955  0.62873024  0.68400017
   0.24425815  0.75574185  0.65047762
   0.37126976  0.87873045  0.68400017
   0.99626950  0.75373045  0.71757733
   0.24626950  0.50373045  0.71757733
   0.49425815  0.50574185  0.65047762
   0.62126976  0.62873045  0.68400017
   0.74829311  0.75170689  0.65047755
   0.87126955  0.87873024  0.68400017
   0.49626955  0.75373050  0.71757733
   0.39124089  0.60875911  0.74972342
   0.99606540  0.50393460  0.51666932
   0.14124089  0.85875911  0.74972342
   0.85130003  0.64869997  0.74972358
   0.60130003  0.89869997  0.74972358

 position of ions in cartesian coordinates  (Angst):
   3.88579526  1.54420474  9.85679571
   2.43561945  2.99438055  8.74218731
   1.17079526  4.25920474  9.85679571
   5.15061945  0.27938055  8.74218731
   9.31589483  1.54410517  9.85686745
   6.60089483  4.25910517  9.85686745
  10.58073873  0.27926127  8.74219080
   7.86573873  2.99426127  8.74219080
   0.05981286  5.37018714 30.49909451
   1.51389272  3.91610728 31.62018820
   4.22889272  1.20110728 31.62018820
   2.77481286  2.65518714 30.49909451
  10.71918233  0.14081766 30.49907705
   9.26510695  1.59489305 31.62018594
   8.00418234  2.85581767 30.49907705
   6.55010695  4.30989305 31.62018594
   1.17089483  9.68910517  9.85686745
   3.88589483  6.97410517  9.85686745
   2.43573873  8.42426127  8.74219080
   5.15073873  5.70926127  8.74219080
   9.31579526  6.97420474  9.85679571
   7.86561945  8.42438055  8.74218731
  10.58061945  5.70938055  8.74218731
   6.60079526  9.68920474  9.85679571
   1.12010695  9.73989305 31.62018594
   2.57418234  8.28581767 30.49907705
   5.28918234  5.57081766 30.49907705
   3.83510695  7.02489305 31.62018594
   8.20481286  8.08518714 30.49909451
   9.65889272  6.63110728 31.62018820
   6.94389272  9.34610728 31.62018820
   5.48981286 10.80018714 30.49909451
   1.28054792  1.43444823 11.39597371
   3.99555177  4.14945208 11.39597371
  10.78276663  2.79224237 12.75172684
   1.32621170  4.10378830 14.10256255
   2.63776663  0.07724237 12.75172684
   4.04121170  1.38878830 14.10256255
   6.71055177  1.43445208 11.39597371
   9.42554792  4.14944823 11.39597371
   5.35275763  2.79223337 12.75172684
   6.75548590  4.10451410 14.10258064
   8.06775763  0.07723337 12.75172684
   9.47048590  1.38951410 14.10258064
  10.82851755  0.03148245 15.45221611
   1.31460408  1.40040117 16.80198706
   2.68433063  2.74566937 15.45221094
   4.02959883  4.11539592 16.80198706
  10.81693685  2.75806006 18.15229988
   1.31506831  4.11493169 19.50314706
   2.67193685  0.04306006 18.15229988
   4.03006831  1.39993169 19.50314706
   5.39933063  0.03066937 15.45221094
   6.74459883  1.40039592 16.80198706
   8.11351755  2.74648245 15.45221611
   9.45960408  4.11540117 16.80198706
   5.38693994  2.75806315 18.15229988
   6.75024494  4.10975506 19.50313829
   8.10193994  0.04306315 18.15229988
   9.46524494  1.39475506 19.50313829
   8.27687025  2.58312975 10.10171307
   0.13177373  5.29822627 10.10169539
   5.56187025  5.29812975 10.10171307
   2.84677373  2.58322627 10.10169539
  10.82313584  0.03686416 20.85406335
   1.31682007  1.39817738 22.20492166
   2.67227026  2.75772974 20.85406535
   4.03182262  4.11317993 22.20492166
  10.81930940  2.75569226 23.55526080
   1.33642928  4.09357072 24.90501928
   2.67430940  0.04069226 23.55526080
   4.05142928  1.37857072 24.90501928
   5.38727026  0.04272974 20.85406535
   6.74682262  1.39817993 22.20492166
   8.10813584  2.75186416 20.85406335
   9.46182007  4.11317738 22.20492166
   5.38930774  2.75569060 23.55526080
   6.72766990  4.13233010 24.90502499
   8.10430774  0.04069060 23.55526080
   9.44266991  1.41733010 24.90502499
  10.79764347  0.06235653 26.25490284
   1.31698963  1.39801264 27.60795674
   2.69646317  2.73353683 26.25490027
   4.03198736  4.11301037 27.60795674
  10.81948732  2.75551321 28.96321489
   2.67448732  0.04051321 28.96321489
   5.41146317  0.01853683 26.25490027
   6.74698736  1.39801037 27.60795674
   8.08264347  2.77735653 26.25490284
   9.46198963  4.11301264 27.60795674
   5.38948679  2.75551268 28.96321489
   8.10448679  0.04051268 28.96321489
   6.96387609  3.89612391 30.26071164
   9.67887609  1.18112391 30.26071164
   1.10011836  4.32988164 30.26071788
   3.81511836  1.61488164 30.26071788
   1.28055177  6.86445208 11.39597371
   3.99554792  9.57944823 11.39597371
  10.78275763  8.22223337 12.75172684
   1.32548590  9.53451410 14.10258064
   2.63775763  5.50723337 12.75172684
   4.04048590  6.81951410 14.10258064
   6.71054792  6.86444823 11.39597371
   9.42555177  9.57945208 11.39597371
   5.35276663  8.22224237 12.75172684
   6.75621170  9.53378830 14.10256255
   8.06776663  5.50724237 12.75172684
   9.47121170  6.81878830 14.10256255
  10.82933063  5.46066937 15.45221094
   1.31459883  6.83039592 16.80198706
   2.68351755  8.17648245 15.45221611
   4.02960408  9.54540117 16.80198706
  10.81693994  8.18806315 18.15229988
   1.32024494  9.53975506 19.50313829
   2.67193994  5.47306315 18.15229988
   4.03524494  6.82475506 19.50313829
   5.39851755  5.46148245 15.45221611
   6.74460408  6.83040117 16.80198706
   8.11433063  8.17566937 15.45221094
   9.45959883  9.54539592 16.80198706
   5.38693685  8.18806006 18.15229988
   6.74506831  9.54493169 19.50314706
   8.10193685  5.47306006 18.15229988
   9.46006831  6.82993169 19.50314706
   8.27677373  8.01322627 10.10169539
   5.56177373 10.72822627 10.10169539
   0.13187025 10.72812975 10.10171307
   2.84687025  8.01312975 10.10171307
   8.10448732  5.47051321 28.96321489
   1.31682262  6.82817993 22.20492166
   2.67813584  8.18186416 20.85406335
   4.03182007  9.54317738 22.20492166
  10.81930774  8.18569060 23.55526080
   1.29766990  9.56233010 24.90502499
   2.67430774  5.47069060 23.55526080
   4.01266990  6.84733010 24.90502499
   5.39313584  5.46686416 20.85406335
   6.74682007  6.82817738 22.20492166
   8.10227026  8.18772974 20.85406535
   9.46182262  9.54317993 22.20492166
   5.38930940  8.18569226 23.55526080
   6.76642928  9.52357072 24.90501928
   8.10430940  5.47069226 23.55526080
   9.48142928  6.80857072 24.90501928
  10.84146317  5.44853683 26.25490027
   1.31698736  6.82801037 27.60795674
   2.65264347  8.20735653 26.25490284
   4.03198963  9.54301264 27.60795674
  10.81948679  8.18551268 28.96321489
   2.67448679  5.47051268 28.96321489
   5.36764347  5.49235653 26.25490284
   6.74698963  6.82801264 27.60795674
   8.12646317  8.16353683 26.25490027
   9.46198736  9.54301037 27.60795674
   5.38948732  8.18551321 28.96321489
   4.24887609  6.61112391 30.26071164
  10.81727026  5.47272974 20.85406535
   1.53387609  9.32612391 30.26071164
   9.24511836  7.04488164 30.26071788
   6.53011836  9.75988164 30.26071788



--------------------------------------------------------------------------------------------------------


 k-point     1 :   0.0000 0.0000 0.0000  plane waves:  449425
 k-point     2 :   0.3333 0.0000 0.0000  plane waves:  449230
 k-point     3 :   0.3333 0.3333 0.0000  plane waves:  449286
 k-point     4 :  -0.3333 0.3333 0.0000  plane waves:  449286

 maximum and minimum number of plane-waves per node :     28157    28027

 maximum number of plane-waves:    449425
 maximum index in each direction: 
   IXMAX=   31   IYMAX=   30   IZMAX=  114
   IXMIN=  -31   IYMIN=  -31   IZMIN= -114


 parallel 3D FFT for wavefunctions:
    minimum data exchange during FFTs selected (reduces bandwidth)
 parallel 3D FFT for charge:
    minimum data exchange during FFTs selected (reduces bandwidth)


 total amount of memory used by VASP MPI-rank0   348024. kBytes
=======================================================================

   base                                    :      30000. kBytes
   nonl-proj                               :      86433. kBytes
   fftplans                                :      84433. kBytes
   grid                                    :      65866. kBytes
   one-center                              :         30. kBytes
   wavefun                                 :      81262. kBytes

     INWAV:  cpu time     24.3193: real time     26.1836
 Broyden mixing: mesh for mixing (old mesh)
   NGX = 61   NGY = 61   NGZ =229
  (NGX  =252   NGY  =252   NGZ  =960)
  gives a total of 852109 points

 initial charge density was supplied:
 number of electron     543.9999999 magnetization 
 keeping initial charge density in first step


--------------------------------------------------------------------------------------------------------


 Maximum index for augmentation-charges         6789 (set IRDMAX)


--------------------------------------------------------------------------------------------------------


 First call to EWALD:  gamma=   0.105
 Maximum number of real-space cells   4x   4x   1
 Maximum number of reciprocal cells   2x   2x   6

    FEWALD:  cpu time      0.0287: real time      0.0288


--------------------------------------- Ionic step        1  -------------------------------------------




--------------------------------------- Iteration      1(   1)  ---------------------------------------


    POTLOK:  cpu time      1.4811: real time      1.4821
    SETDIJ:  cpu time      2.3593: real time      2.3607
    EDDIAG:  cpu time     49.7197: real time     49.7461
     EDDAV:  cpu time    239.1661: real time    239.2953
       DOS:  cpu time      0.0057: real time      0.0064
    CHARGE:  cpu time     57.2348: real time     57.2672
    MIXING:  cpu time      0.0365: real time      0.0369
    --------------------------------------------
      LOOP:  cpu time    350.0034: real time    350.1947

 eigenvalue-minimisations  :  2968
 total energy-change (2. order) :-0.1479182E+04  (-0.1511058E+01)
 number of electron     543.9999999 magnetization 
 augmentation part      -27.5785887 magnetization 

 Broyden mixing:
  rms(total) = 0.15461E+01    rms(broyden)= 0.38544E+02
  rms(prec ) = 0.15942E+01
  weight for this iteration     100.00
  WARNING: grid for Broyden might be to small

 Free energy of the ion-electron system (eV)
  ---------------------------------------------------
  alpha Z        PSCENC =       132.01094186
  Ewald energy   TEWEN  =    129624.86181488
  -Hartree energ DENC   =   -143168.42776826
  -exchange      EXHF   =         0.00000000
  -V(xc)+E(xc)   XCENC  =      -503.04961840
  PAW double counting   =     57227.06634503   -55954.10245009
  entropy T*S    EENTRO =        -0.00000002
  eigenvalues    EBANDS =     -2429.72353038
  atomic energy  EATOM  =     13592.18256620
  Solvation  Ediel_sol  =         0.00000000
  ---------------------------------------------------
  free energy    TOTEN  =     -1479.18169919 eV

  energy without entropy =    -1479.18169917  energy(sigma->0) =    -1479.18169918


--------------------------------------------------------------------------------------------------------




--------------------------------------- Iteration      1(   2)  ---------------------------------------


    POTLOK:  cpu time      1.4748: real time      1.4802
    SETDIJ:  cpu time      2.3587: real time      2.3614
    EDDIAG:  cpu time     49.7179: real time     49.7471
     EDDAV:  cpu time    238.1367: real time    238.2720
       DOS:  cpu time      0.0047: real time      0.0047
    CHARGE:  cpu time     57.4277: real time     57.4594
    MIXING:  cpu time      0.0340: real time      0.0342
    --------------------------------------------
      LOOP:  cpu time    349.1545: real time    349.3590

 eigenvalue-minimisations  :  2944
 total energy-change (2. order) : 0.9744633E+02  (-0.1421681E+01)
 number of electron     543.9999999 magnetization 
 augmentation part      -27.4888043 magnetization 

 Broyden mixing:
  rms(total) = 0.10291E+01    rms(broyden)= 0.22244E+02
  rms(prec ) = 0.10532E+01
  weight for this iteration     100.00
  WARNING: grid for Broyden might be to small

 eigenvalues of (default mixing * dielectric matrix)
  average eigenvalue GAMMA=   0.6341
  0.6341

 Free energy of the ion-electron system (eV)
  ---------------------------------------------------
  alpha Z        PSCENC =       132.01094186
  Ewald energy   TEWEN  =    129624.86181488
  -Hartree energ DENC   =   -143134.11987621
  -exchange      EXHF   =         0.00000000
  -V(xc)+E(xc)   XCENC  =      -491.39784561
  PAW double counting   =     68387.36189207   -67113.92489395
  entropy T*S    EENTRO =        -0.00000000
  eigenvalues    EBANDS =     -2378.70996411
  atomic energy  EATOM  =     13592.18256620
  Solvation  Ediel_sol  =         0.00000000
  ---------------------------------------------------
  free energy    TOTEN  =     -1381.73536489 eV

  energy without entropy =    -1381.73536489  energy(sigma->0) =    -1381.73536489


--------------------------------------------------------------------------------------------------------




--------------------------------------- Iteration      1(   3)  ---------------------------------------


    POTLOK:  cpu time      1.4791: real time      1.4804
    SETDIJ:  cpu time      2.3557: real time      2.3570
    EDDIAG:  cpu time     49.5730: real time     49.6004
     EDDAV:  cpu time    239.6022: real time    239.7355
       DOS:  cpu time      0.0042: real time      0.0042
    CHARGE:  cpu time     57.7990: real time     57.8307
    MIXING:  cpu time      0.0344: real time      0.0344
    --------------------------------------------
      LOOP:  cpu time    350.8478: real time    351.0427

 eigenvalue-minimisations  :  2976
 total energy-change (2. order) :-0.5994875E+01  (-0.1112395E+01)
 number of electron     543.9999999 magnetization 
 augmentation part      -27.4101811 magnetization 

 Broyden mixing:
  rms(total) = 0.43229E+00    rms(broyden)= 0.32574E+02
  rms(prec ) = 0.54161E+00
  weight for this iteration     100.00
  WARNING: grid for Broyden might be to small

 eigenvalues of (default mixing * dielectric matrix)
  average eigenvalue GAMMA=   0.7858
  0.9441  0.6274

 Free energy of the ion-electron system (eV)
  ---------------------------------------------------
  alpha Z        PSCENC =       132.01094186
  Ewald energy   TEWEN  =    129624.86181488
  -Hartree energ DENC   =   -143141.75015629
  -exchange      EXHF   =         0.00000000
  -V(xc)+E(xc)   XCENC  =      -498.10243806
  PAW double counting   =     81385.29153329   -80111.96333199
  entropy T*S    EENTRO =        -0.00000000
  eigenvalues    EBANDS =     -2370.26117026
  atomic energy  EATOM  =     13592.18256620
  Solvation  Ediel_sol  =         0.00000000
  ---------------------------------------------------
  free energy    TOTEN  =     -1387.73024038 eV

  energy without entropy =    -1387.73024038  energy(sigma->0) =    -1387.73024038


--------------------------------------------------------------------------------------------------------




--------------------------------------- Iteration      1(   4)  ---------------------------------------


    POTLOK:  cpu time      1.4812: real time      1.4824
    SETDIJ:  cpu time      2.3589: real time      2.3601
    EDDIAG:  cpu time     49.7734: real time     49.8009
     EDDAV:  cpu time    254.2812: real time    254.4259
       DOS:  cpu time      0.0038: real time      0.0038
    CHARGE:  cpu time     57.6775: real time     57.7158
    MIXING:  cpu time      0.0344: real time      0.0344
    --------------------------------------------
      LOOP:  cpu time    365.6104: real time    365.8233

 eigenvalue-minimisations  :  3280
 total energy-change (2. order) : 0.5805214E+00  (-0.1137658E+00)
 number of electron     543.9999999 magnetization 
 augmentation part      -27.3982753 magnetization 

 Broyden mixing:
  rms(total) = 0.51088E-01    rms(broyden)= 0.28270E+01
  rms(prec ) = 0.58875E-01
  weight for this iteration     100.00
  WARNING: grid for Broyden might be to small

 eigenvalues of (default mixing * dielectric matrix)
  average eigenvalue GAMMA=   1.1514
  2.0906  0.7397  0.6239

 Free energy of the ion-electron system (eV)
  ---------------------------------------------------
  alpha Z        PSCENC =       132.01094186
  Ewald energy   TEWEN  =    129624.86181488
  -Hartree energ DENC   =   -143151.76578813
  -exchange      EXHF   =         0.00000000
  -V(xc)+E(xc)   XCENC  =      -498.23095980
  PAW double counting   =     91719.89450183   -90446.59158090
  entropy T*S    EENTRO =        -0.00000000
  eigenvalues    EBANDS =     -2359.51121495
  atomic energy  EATOM  =     13592.18256620
  Solvation  Ediel_sol  =         0.00000000
  ---------------------------------------------------
  free energy    TOTEN  =     -1387.14971902 eV

  energy without entropy =    -1387.14971902  energy(sigma->0) =    -1387.14971902


--------------------------------------------------------------------------------------------------------




--------------------------------------- Iteration      1(   5)  ---------------------------------------


    POTLOK:  cpu time      1.4785: real time      1.4824
    SETDIJ:  cpu time      2.3564: real time      2.3573
    EDDIAG:  cpu time     49.7038: real time     49.7265
     EDDAV:  cpu time    267.3484: real time    267.5051
       DOS:  cpu time      0.0051: real time      0.0051
    CHARGE:  cpu time     57.6220: real time     57.6952
    MIXING:  cpu time      0.0346: real time      0.0346
    --------------------------------------------
      LOOP:  cpu time    378.5488: real time    378.8062

 eigenvalue-minimisations  :  3560
 total energy-change (2. order) :-0.4867400E-01  (-0.8448729E-02)
 number of electron     543.9999999 magnetization 
 augmentation part      -27.3990142 magnetization 

 Broyden mixing:
  rms(total) = 0.30694E-01    rms(broyden)= 0.42369E+00
  rms(prec ) = 0.31491E-01
  weight for this iteration     100.00
  WARNING: grid for Broyden might be to small

 eigenvalues of (default mixing * dielectric matrix)
  average eigenvalue GAMMA=   1.2038
  2.5681  0.9577  0.6612  0.6281

 Free energy of the ion-electron system (eV)
  ---------------------------------------------------
  alpha Z        PSCENC =       132.01094186
  Ewald energy   TEWEN  =    129624.86181488
  -Hartree energ DENC   =   -143153.85889570
  -exchange      EXHF   =         0.00000000
  -V(xc)+E(xc)   XCENC  =      -499.81211580
  PAW double counting   =     90740.62477759   -89467.27634350
  entropy T*S    EENTRO =        -0.00000000
  eigenvalues    EBANDS =     -2355.93113854
  atomic energy  EATOM  =     13592.18256620
  Solvation  Ediel_sol  =         0.00000000
  ---------------------------------------------------
  free energy    TOTEN  =     -1387.19839302 eV

  energy without entropy =    -1387.19839302  energy(sigma->0) =    -1387.19839302


--------------------------------------------------------------------------------------------------------




--------------------------------------- Iteration      1(   6)  ---------------------------------------


    POTLOK:  cpu time      1.4780: real time      1.4845
    SETDIJ:  cpu time      2.3577: real time      2.3589
    EDDIAG:  cpu time     49.7365: real time     49.7642
     EDDAV:  cpu time    253.3993: real time    253.5483
       DOS:  cpu time      0.0075: real time      0.0074
    CHARGE:  cpu time     57.7397: real time     57.7718
    MIXING:  cpu time      0.0352: real time      0.0352
    --------------------------------------------
      LOOP:  cpu time    364.7537: real time    364.9704

 eigenvalue-minimisations  :  3264
 total energy-change (2. order) :-0.9728202E-02  (-0.2226012E-02)
 number of electron     543.9999999 magnetization 
 augmentation part      -27.3917013 magnetization 

 Broyden mixing:
  rms(total) = 0.89087E-02    rms(broyden)= 0.62436E+00
  rms(prec ) = 0.10963E-01
  weight for this iteration     100.00
  WARNING: grid for Broyden might be to small

 eigenvalues of (default mixing * dielectric matrix)
  average eigenvalue GAMMA=   1.1770
  2.5829  1.2101  0.8174  0.6426  0.6318

 Free energy of the ion-electron system (eV)
  ---------------------------------------------------
  alpha Z        PSCENC =       132.01094186
  Ewald energy   TEWEN  =    129624.86181488
  -Hartree energ DENC   =   -143158.47055291
  -exchange      EXHF   =         0.00000000
  -V(xc)+E(xc)   XCENC  =      -499.52844386
  PAW double counting   =     90612.23672439   -89338.83255650
  entropy T*S    EENTRO =        -0.00000000
  eigenvalues    EBANDS =     -2351.66861527
  atomic energy  EATOM  =     13592.18256620
  Solvation  Ediel_sol  =         0.00000000
  ---------------------------------------------------
  free energy    TOTEN  =     -1387.20812122 eV

  energy without entropy =    -1387.20812122  energy(sigma->0) =    -1387.20812122


--------------------------------------------------------------------------------------------------------




--------------------------------------- Iteration      1(   7)  ---------------------------------------


    POTLOK:  cpu time      1.4792: real time      1.4803
    SETDIJ:  cpu time      2.3565: real time      2.3581
    EDDIAG:  cpu time     49.7433: real time     49.7744
     EDDAV:  cpu time    266.6899: real time    266.8412
       DOS:  cpu time      0.0044: real time      0.0044
    CHARGE:  cpu time     57.6697: real time     57.7008
    MIXING:  cpu time      0.0358: real time      0.0358
    --------------------------------------------
      LOOP:  cpu time    377.9787: real time    378.1949

 eigenvalue-minimisations  :  3544
 total energy-change (2. order) :-0.2947068E-03  (-0.2762657E-03)
 number of electron     543.9999999 magnetization 
 augmentation part      -27.3912695 magnetization 

 Broyden mixing:
  rms(total) = 0.34369E-02    rms(broyden)= 0.15699E+00
  rms(prec ) = 0.39324E-02
  weight for this iteration     100.00
  WARNING: grid for Broyden might be to small

 eigenvalues of (default mixing * dielectric matrix)
  average eigenvalue GAMMA=   1.3260
  2.7121  2.1979  1.0227  0.7532  0.6289  0.6413

 Free energy of the ion-electron system (eV)
  ---------------------------------------------------
  alpha Z        PSCENC =       132.01094186
  Ewald energy   TEWEN  =    129624.86181488
  -Hartree energ DENC   =   -143159.60654739
  -exchange      EXHF   =         0.00000000
  -V(xc)+E(xc)   XCENC  =      -499.57399103
  PAW double counting   =     90706.60549285   -89433.18081902
  entropy T*S    EENTRO =        -0.00000000
  eigenvalues    EBANDS =     -2350.50787426
  atomic energy  EATOM  =     13592.18256620
  Solvation  Ediel_sol  =         0.00000000
  ---------------------------------------------------
  free energy    TOTEN  =     -1387.20841593 eV

  energy without entropy =    -1387.20841593  energy(sigma->0) =    -1387.20841593


--------------------------------------------------------------------------------------------------------




--------------------------------------- Iteration      1(   8)  ---------------------------------------


    POTLOK:  cpu time      1.4790: real time      1.4801
    SETDIJ:  cpu time      2.3581: real time      2.3595
    EDDIAG:  cpu time     49.6719: real time     49.7012
     EDDAV:  cpu time    261.8930: real time    262.0436
       DOS:  cpu time      0.0048: real time      0.0048
    CHARGE:  cpu time     57.6548: real time     57.6852
    MIXING:  cpu time      0.0357: real time      0.0357
    --------------------------------------------
      LOOP:  cpu time    373.0974: real time    373.3101

 eigenvalue-minimisations  :  3448
 total energy-change (2. order) :-0.1055538E-03  (-0.5141344E-04)
 number of electron     543.9999999 magnetization 
 augmentation part      -27.3930656 magnetization 

 Broyden mixing:
  rms(total) = 0.27226E-02    rms(broyden)= 0.90007E-01
  rms(prec ) = 0.29259E-02
  weight for this iteration     100.00
  WARNING: grid for Broyden might be to small

 eigenvalues of (default mixing * dielectric matrix)
  average eigenvalue GAMMA=   1.6141
  4.6824  2.5598  1.1732  0.9043  0.7135  0.6399  0.6257

 Free energy of the ion-electron system (eV)
  ---------------------------------------------------
  alpha Z        PSCENC =       132.01094186
  Ewald energy   TEWEN  =    129624.86181488
  -Hartree energ DENC   =   -143158.84965186
  -exchange      EXHF   =         0.00000000
  -V(xc)+E(xc)   XCENC  =      -499.76103018
  PAW double counting   =     90727.10834827   -89453.68373220
  entropy T*S    EENTRO =        -0.00000000
  eigenvalues    EBANDS =     -2351.07777846
  atomic energy  EATOM  =     13592.18256620
  Solvation  Ediel_sol  =         0.00000000
  ---------------------------------------------------
  free energy    TOTEN  =     -1387.20852148 eV

  energy without entropy =    -1387.20852148  energy(sigma->0) =    -1387.20852148


--------------------------------------------------------------------------------------------------------




--------------------------------------- Iteration      1(   9)  ---------------------------------------


    POTLOK:  cpu time      1.4813: real time      1.4823
    SETDIJ:  cpu time      2.3552: real time      2.3565
    EDDIAG:  cpu time     49.6433: real time     49.6706
     EDDAV:  cpu time    246.1470: real time    246.2947
       DOS:  cpu time      0.0040: real time      0.0040
    CHARGE:  cpu time     57.4375: real time     57.4731
    MIXING:  cpu time      0.0386: real time      0.0386
    --------------------------------------------
      LOOP:  cpu time    357.1072: real time    357.3198

 eigenvalue-minimisations  :  3112
 total energy-change (2. order) :-0.2448396E-03  (-0.2196262E-04)
 number of electron     543.9999999 magnetization 
 augmentation part      -27.3927969 magnetization 

 Broyden mixing:
  rms(total) = 0.83266E-03    rms(broyden)= 0.66754E-01
  rms(prec ) = 0.11361E-02
  weight for this iteration     100.00
  WARNING: grid for Broyden might be to small

 eigenvalues of (default mixing * dielectric matrix)
  average eigenvalue GAMMA=   1.9205
  7.3157  2.5940  1.6707  1.0244  0.8129  0.6878  0.6240  0.6344

 Free energy of the ion-electron system (eV)
  ---------------------------------------------------
  alpha Z        PSCENC =       132.01094186
  Ewald energy   TEWEN  =    129624.86181488
  -Hartree energ DENC   =   -143158.97871356
  -exchange      EXHF   =         0.00000000
  -V(xc)+E(xc)   XCENC  =      -499.73433171
  PAW double counting   =     90691.65447495   -89418.22293702
  entropy T*S    EENTRO =        -0.00000000
  eigenvalues    EBANDS =     -2350.98258191
  atomic energy  EATOM  =     13592.18256620
  Solvation  Ediel_sol  =         0.00000000
  ---------------------------------------------------
  free energy    TOTEN  =     -1387.20876632 eV

  energy without entropy =    -1387.20876632  energy(sigma->0) =    -1387.20876632


--------------------------------------------------------------------------------------------------------




--------------------------------------- Iteration      1(  10)  ---------------------------------------


    POTLOK:  cpu time      1.4828: real time      1.4832
    SETDIJ:  cpu time      2.3551: real time      2.3562
    EDDIAG:  cpu time     49.4709: real time     49.4921
     EDDAV:  cpu time    267.4257: real time    267.5812
       DOS:  cpu time      0.0030: real time      0.0030
    CHARGE:  cpu time     57.6906: real time     57.7252
    MIXING:  cpu time      0.0367: real time      0.0367
    --------------------------------------------
      LOOP:  cpu time    378.4645: real time    378.6775

 eigenvalue-minimisations  :  3568
 total energy-change (2. order) :-0.1011606E-03  (-0.3728511E-05)
 number of electron     543.9999999 magnetization 
 augmentation part      -27.3926972 magnetization 

 Broyden mixing:
  rms(total) = 0.46003E-03    rms(broyden)= 0.55182E-01
  rms(prec ) = 0.77578E-03
  weight for this iteration     100.00
  WARNING: grid for Broyden might be to small

 eigenvalues of (default mixing * dielectric matrix)
  average eigenvalue GAMMA=   2.0175
  8.7716  2.6135  2.0138  1.0408  0.9893  0.7890  0.6826  0.6259  0.6313

 Free energy of the ion-electron system (eV)
  ---------------------------------------------------
  alpha Z        PSCENC =       132.01094186
  Ewald energy   TEWEN  =    129624.86181488
  -Hartree energ DENC   =   -143159.16976425
  -exchange      EXHF   =         0.00000000
  -V(xc)+E(xc)   XCENC  =      -499.72344384
  PAW double counting   =     90697.36016953   -89423.92714493
  entropy T*S    EENTRO =        -0.00000000
  eigenvalues    EBANDS =     -2350.80400693
  atomic energy  EATOM  =     13592.18256620
  Solvation  Ediel_sol  =         0.00000000
  ---------------------------------------------------
  free energy    TOTEN  =     -1387.20886748 eV

  energy without entropy =    -1387.20886748  energy(sigma->0) =    -1387.20886748


--------------------------------------------------------------------------------------------------------




--------------------------------------- Iteration      1(  11)  ---------------------------------------


    POTLOK:  cpu time      1.4780: real time      1.4793
    SETDIJ:  cpu time      2.3569: real time      2.3582
    EDDIAG:  cpu time     49.6185: real time     49.6482
     EDDAV:  cpu time    242.6395: real time    242.7749
       DOS:  cpu time      0.0082: real time      0.0083
    CHARGE:  cpu time     57.5227: real time     57.5637
    MIXING:  cpu time      0.0409: real time      0.0414
    --------------------------------------------
      LOOP:  cpu time    353.6647: real time    353.8741

 eigenvalue-minimisations  :  3040
 total energy-change (2. order) :-0.7495320E-04  (-0.2410466E-05)
 number of electron     543.9999999 magnetization 
 augmentation part      -27.3928134 magnetization 

 Broyden mixing:
  rms(total) = 0.28680E-03    rms(broyden)= 0.44657E-01
  rms(prec ) = 0.57430E-03
  weight for this iteration     100.00
  WARNING: grid for Broyden might be to small

 eigenvalues of (default mixing * dielectric matrix)
  average eigenvalue GAMMA=   2.0789
  9.6581  2.5337  2.5337  1.4560  1.0759  0.8788  0.7349  0.6273  0.6273  0.6637

 Free energy of the ion-electron system (eV)
  ---------------------------------------------------
  alpha Z        PSCENC =       132.01094186
  Ewald energy   TEWEN  =    129624.86181488
  -Hartree energ DENC   =   -143159.21032102
  -exchange      EXHF   =         0.00000000
  -V(xc)+E(xc)   XCENC  =      -499.74401997
  PAW double counting   =     90702.45944082   -89429.02762625
  entropy T*S    EENTRO =        -0.00000000
  eigenvalues    EBANDS =     -2350.74173895
  atomic energy  EATOM  =     13592.18256620
  Solvation  Ediel_sol  =         0.00000000
  ---------------------------------------------------
  free energy    TOTEN  =     -1387.20894244 eV

  energy without entropy =    -1387.20894244  energy(sigma->0) =    -1387.20894244


--------------------------------------------------------------------------------------------------------




--------------------------------------- Iteration      1(  12)  ---------------------------------------


    POTLOK:  cpu time      1.4821: real time      1.4863
    SETDIJ:  cpu time      2.3628: real time      2.3640
    EDDIAG:  cpu time     49.4508: real time     49.4828
     EDDAV:  cpu time    251.1034: real time    251.2386
       DOS:  cpu time      0.0049: real time      0.0049
    CHARGE:  cpu time     57.7063: real time     57.7459
    MIXING:  cpu time      0.0411: real time      0.0411
    --------------------------------------------
      LOOP:  cpu time    362.1514: real time    362.3634

 eigenvalue-minimisations  :  3224
 total energy-change (2. order) :-0.8126034E-04  (-0.4996116E-05)
 number of electron     543.9999999 magnetization 
 augmentation part      -27.3928394 magnetization 

 Broyden mixing:
  rms(total) = 0.25020E-03    rms(broyden)= 0.29853E-01
  rms(prec ) = 0.41208E-03
  weight for this iteration     100.00
  WARNING: grid for Broyden might be to small

 eigenvalues of (default mixing * dielectric matrix)
  average eigenvalue GAMMA=   2.0401
  9.9341  2.6954  2.6954  1.5987  1.0784  1.0027  0.8169  0.7121  0.6265  0.6275
  0.6537

 Free energy of the ion-electron system (eV)
  ---------------------------------------------------
  alpha Z        PSCENC =       132.01094186
  Ewald energy   TEWEN  =    129624.86181488
  -Hartree energ DENC   =   -143159.25087528
  -exchange      EXHF   =         0.00000000
  -V(xc)+E(xc)   XCENC  =      -499.74835473
  PAW double counting   =     90696.09199545   -89422.66006212
  entropy T*S    EENTRO =        -0.00000000
  eigenvalues    EBANDS =     -2350.69704996
  atomic energy  EATOM  =     13592.18256620
  Solvation  Ediel_sol  =         0.00000000
  ---------------------------------------------------
  free energy    TOTEN  =     -1387.20902370 eV

  energy without entropy =    -1387.20902370  energy(sigma->0) =    -1387.20902370


--------------------------------------------------------------------------------------------------------




--------------------------------------- Iteration      1(  13)  ---------------------------------------


    POTLOK:  cpu time      1.4819: real time      1.4825
    SETDIJ:  cpu time      2.3593: real time      2.3603
    EDDIAG:  cpu time     49.4790: real time     49.5023
     EDDAV:  cpu time    248.1508: real time    248.2918
       DOS:  cpu time      0.0053: real time      0.0053
    CHARGE:  cpu time     57.7378: real time     57.7685
    MIXING:  cpu time      0.0385: real time      0.0385
    --------------------------------------------
      LOOP:  cpu time    359.2526: real time    359.4493

 eigenvalue-minimisations  :  3160
 total energy-change (2. order) :-0.3416797E-04  (-0.3292521E-05)
 number of electron     543.9999999 magnetization 
 augmentation part      -27.3927720 magnetization 

 Broyden mixing:
[...]
      3.99555      4.14945     11.39597        -0.115042      0.115025     -0.014100
     10.78277      2.79224     12.75173         0.086998     -0.087011     -0.059938
      1.32621      4.10379     14.10256        -0.051265      0.051265     -0.031632
      2.63777      0.07724     12.75173         0.086998     -0.087011     -0.059938
      4.04121      1.38879     14.10256        -0.051265      0.051265     -0.031632
      6.71055      1.43445     11.39597        -0.115042      0.115025     -0.014100
      9.42555      4.14945     11.39597        -0.115025      0.115042     -0.014100
      5.35276      2.79223     12.75173         0.087011     -0.086998     -0.059938
      6.75549      4.10451     14.10258        -0.050115      0.050115     -0.031689
      8.06776      0.07723     12.75173         0.087011     -0.086998     -0.059938
      9.47049      1.38951     14.10258        -0.050115      0.050115     -0.031689
     10.82852      0.03148     15.45222        -0.014164      0.014164     -0.001901
      1.31460      1.40040     16.80199         0.003494     -0.003488      0.004253
      2.68433      2.74567     15.45221        -0.013657      0.013657     -0.001867
      4.02960      4.11540     16.80199         0.003488     -0.003494      0.004253
     10.81694      2.75806     18.15230         0.005766     -0.005751      0.006835
      1.31507      4.11493     19.50315        -0.000254      0.000254      0.001978
      2.67194      0.04306     18.15230         0.005766     -0.005751      0.006835
      4.03007      1.39993     19.50315        -0.000254      0.000254      0.001978
      5.39933      0.03067     15.45221        -0.013657      0.013657     -0.001867
      6.74460      1.40040     16.80199         0.003488     -0.003494      0.004253
      8.11352      2.74648     15.45222        -0.014164      0.014164     -0.001901
      9.45960      4.11540     16.80199         0.003494     -0.003488      0.004253
      5.38694      2.75806     18.15230         0.005751     -0.005766      0.006835
      6.75024      4.10976     19.50314        -0.006220      0.006220      0.001349
      8.10194      0.04306     18.15230         0.005751     -0.005766      0.006835
      9.46524      1.39476     19.50314        -0.006220      0.006220      0.001349
      8.27687      2.58313     10.10171         0.155448     -0.155448      0.012863
      0.13177      5.29823     10.10170         0.155341     -0.155341      0.012796
      5.56187      5.29813     10.10171         0.155448     -0.155448      0.012863
      2.84677      2.58323     10.10170         0.155341     -0.155341      0.012796
     10.82314      0.03686     20.85406        -0.000921      0.000921     -0.000542
      1.31682      1.39818     22.20492        -0.000134      0.000139     -0.006649
      2.67227      2.75773     20.85407        -0.002096      0.002096     -0.000903
      4.03182      4.11318     22.20492        -0.000139      0.000134     -0.006649
     10.81931      2.75569     23.55526         0.000573     -0.000585     -0.003767
      1.33643      4.09357     24.90502        -0.014641      0.014641      0.006335
      2.67431      0.04069     23.55526         0.000573     -0.000585     -0.003767
      4.05143      1.37857     24.90502        -0.014641      0.014641      0.006335
      5.38727      0.04273     20.85407        -0.002096      0.002096     -0.000903
      6.74682      1.39818     22.20492        -0.000139      0.000134     -0.006649
      8.10814      2.75186     20.85406        -0.000921      0.000921     -0.000542
      9.46182      4.11318     22.20492        -0.000134      0.000139     -0.006649
      5.38931      2.75569     23.55526         0.000585     -0.000573     -0.003767
      6.72767      4.13233     24.90502         0.014494     -0.014494      0.007017
      8.10431      0.04069     23.55526         0.000585     -0.000573     -0.003767
      9.44267      1.41733     24.90502         0.014494     -0.014494      0.007017
     10.79764      0.06236     26.25490         0.027362     -0.027362      0.037072
      1.31699      1.39801     27.60796         0.000359     -0.000363      0.034160
      2.69646      2.73354     26.25490        -0.026595      0.026595      0.036957
      4.03199      4.11301     27.60796         0.000363     -0.000359      0.034160
     10.81949      2.75551     28.96321        -0.000371      0.000317      0.037423
      2.67449      0.04051     28.96321        -0.000371      0.000317      0.037423
      5.41146      0.01854     26.25490        -0.026595      0.026595      0.036957
      6.74699      1.39801     27.60796         0.000363     -0.000359      0.034160
      8.08264      2.77736     26.25490         0.027362     -0.027362      0.037072
      9.46199      4.11301     27.60796         0.000359     -0.000363      0.034160
      5.38949      2.75551     28.96321        -0.000317      0.000371      0.037423
      8.10449      0.04051     28.96321        -0.000317      0.000371      0.037423
      6.96388      3.89612     30.26071         0.089921     -0.089921     -0.005909
      9.67888      1.18112     30.26071         0.089921     -0.089921     -0.005909
      1.10012      4.32988     30.26072        -0.089416      0.089416     -0.005424
      3.81512      1.61488     30.26072        -0.089416      0.089416     -0.005424
      1.28055      6.86445     11.39597        -0.115042      0.115025     -0.014100
      3.99555      9.57945     11.39597        -0.115025      0.115042     -0.014100
     10.78276      8.22223     12.75173         0.087011     -0.086998     -0.059938
      1.32549      9.53451     14.10258        -0.050115      0.050115     -0.031689
      2.63776      5.50723     12.75173         0.087011     -0.086998     -0.059938
      4.04049      6.81951     14.10258        -0.050115      0.050115     -0.031689
      6.71055      6.86445     11.39597        -0.115025      0.115042     -0.014100
      9.42555      9.57945     11.39597        -0.115042      0.115025     -0.014100
      5.35277      8.22224     12.75173         0.086998     -0.087011     -0.059938
      6.75621      9.53379     14.10256        -0.051265      0.051265     -0.031632
      8.06777      5.50724     12.75173         0.086998     -0.087011     -0.059938
      9.47121      6.81879     14.10256        -0.051265      0.051265     -0.031632
     10.82933      5.46067     15.45221        -0.013657      0.013657     -0.001867
      1.31460      6.83040     16.80199         0.003488     -0.003494      0.004253
      2.68352      8.17648     15.45222        -0.014164      0.014164     -0.001901
      4.02960      9.54540     16.80199         0.003494     -0.003488      0.004253
     10.81694      8.18806     18.15230         0.005751     -0.005766      0.006835
      1.32024      9.53976     19.50314        -0.006220      0.006220      0.001349
      2.67194      5.47306     18.15230         0.005751     -0.005766      0.006835
      4.03524      6.82476     19.50314        -0.006220      0.006220      0.001349
      5.39852      5.46148     15.45222        -0.014164      0.014164     -0.001901
      6.74460      6.83040     16.80199         0.003494     -0.003488      0.004253
      8.11433      8.17567     15.45221        -0.013657      0.013657     -0.001867
      9.45960      9.54540     16.80199         0.003488     -0.003494      0.004253
      5.38694      8.18806     18.15230         0.005766     -0.005751      0.006835
      6.74507      9.54493     19.50315        -0.000254      0.000254      0.001978
      8.10194      5.47306     18.15230         0.005766     -0.005751      0.006835
      9.46007      6.82993     19.50315        -0.000254      0.000254      0.001978
      8.27677      8.01323     10.10170         0.155341     -0.155341      0.012796
      5.56177     10.72823     10.10170         0.155341     -0.155341      0.012796
      0.13187     10.72813     10.10171         0.155448     -0.155448      0.012863
      2.84687      8.01313     10.10171         0.155448     -0.155448      0.012863
      8.10449      5.47051     28.96321        -0.000371      0.000317      0.037423
      1.31682      6.82818     22.20492        -0.000139      0.000134     -0.006649
      2.67814      8.18186     20.85406        -0.000921      0.000921     -0.000542
      4.03182      9.54318     22.20492        -0.000134      0.000139     -0.006649
     10.81931      8.18569     23.55526         0.000585     -0.000573     -0.003767
      1.29767      9.56233     24.90502         0.014494     -0.014494      0.007017
      2.67431      5.47069     23.55526         0.000585     -0.000573     -0.003767
      4.01267      6.84733     24.90502         0.014494     -0.014494      0.007017
      5.39314      5.46686     20.85406        -0.000921      0.000921     -0.000542
      6.74682      6.82818     22.20492        -0.000134      0.000139     -0.006649
      8.10227      8.18773     20.85407        -0.002096      0.002096     -0.000903
      9.46182      9.54318     22.20492        -0.000139      0.000134     -0.006649
      5.38931      8.18569     23.55526         0.000573     -0.000585     -0.003767
      6.76643      9.52357     24.90502        -0.014641      0.014641      0.006335
      8.10431      5.47069     23.55526         0.000573     -0.000585     -0.003767
      9.48143      6.80857     24.90502        -0.014641      0.014641      0.006335
     10.84146      5.44854     26.25490        -0.026595      0.026595      0.036957
      1.31699      6.82801     27.60796         0.000363     -0.000359      0.034160
      2.65264      8.20736     26.25490         0.027362     -0.027362      0.037072
      4.03199      9.54301     27.60796         0.000359     -0.000363      0.034160
     10.81949      8.18551     28.96321        -0.000317      0.000371      0.037423
      2.67449      5.47051     28.96321        -0.000317      0.000371      0.037423
      5.36764      5.49236     26.25490         0.027362     -0.027362      0.037072
      6.74699      6.82801     27.60796         0.000359     -0.000363      0.034160
      8.12646      8.16354     26.25490        -0.026595      0.026595      0.036957
      9.46199      9.54301     27.60796         0.000363     -0.000359      0.034160
      5.38949      8.18551     28.96321        -0.000371      0.000317      0.037423
      4.24888      6.61112     30.26071         0.089921     -0.089921     -0.005909
     10.81727      5.47273     20.85407        -0.002096      0.002096     -0.000903
      1.53388      9.32612     30.26071         0.089921     -0.089921     -0.005909
      9.24512      7.04488     30.26072        -0.089416      0.089416     -0.005424
      6.53012      9.75988     30.26072        -0.089416      0.089416     -0.005424
 -----------------------------------------------------------------------------------
    total drift:                                0.006497     -0.006497      0.006364


--------------------------------------------------------------------------------------------------------



  FREE ENERGIE OF THE ION-ELECTRON SYSTEM (eV)
  ---------------------------------------------------
  free  energy   TOTEN  =     -1387.20906246 eV

  energy  without entropy=    -1387.20906246  energy(sigma->0) =    -1387.20906246



--------------------------------------------------------------------------------------------------------


    POTLOK:  cpu time      3.8300: real time      3.8339


--------------------------------------------------------------------------------------------------------


     LOOP+:  cpu time   7890.8191: real time   7895.5466
    4ORBIT:  cpu time      0.0000: real time      0.0000



 total charge

# of ion       s       p       d       tot
------------------------------------------
    1        0.584   0.016   0.000   0.600
    2        0.574   0.016   0.000   0.590
    3        0.584   0.016   0.000   0.600
    4        0.574   0.016   0.000   0.590
    5        0.584   0.016   0.000   0.600
    6        0.584   0.016   0.000   0.600
    7        0.574   0.016   0.000   0.590
    8        0.574   0.016   0.000   0.590
    9        0.583   0.016   0.000   0.599
   10        0.574   0.016   0.000   0.589
   11        0.574   0.016   0.000   0.589
   12        0.583   0.016   0.000   0.599
   13        0.583   0.016   0.000   0.599
   14        0.574   0.016   0.000   0.589
   15        0.583   0.016   0.000   0.599
   16        0.574   0.016   0.000   0.589
   17        0.584   0.016   0.000   0.600
   18        0.584   0.016   0.000   0.600
   19        0.574   0.016   0.000   0.590
   20        0.574   0.016   0.000   0.590
   21        0.584   0.016   0.000   0.600
   22        0.574   0.016   0.000   0.590
   23        0.574   0.016   0.000   0.590
   24        0.584   0.016   0.000   0.600
   25        0.574   0.016   0.000   0.589
   26        0.583   0.016   0.000   0.599
   27        0.583   0.016   0.000   0.599
   28        0.574   0.016   0.000   0.589
   29        0.583   0.016   0.000   0.599
   30        0.574   0.016   0.000   0.589
   31        0.574   0.016   0.000   0.589
   32        0.583   0.016   0.000   0.599
   33        0.741   0.982   0.000   1.723
   34        0.741   0.982   0.000   1.723
   35        0.742   0.966   0.000   1.708
   36        0.743   0.967   0.000   1.710
   37        0.742   0.966   0.000   1.708
   38        0.743   0.967   0.000   1.710
   39        0.741   0.982   0.000   1.723
   40        0.741   0.982   0.000   1.723
   41        0.742   0.966   0.000   1.708
   42        0.743   0.967   0.000   1.711
   43        0.742   0.966   0.000   1.708
   44        0.743   0.967   0.000   1.711
   45        0.743   0.968   0.000   1.711
   46        0.744   0.967   0.000   1.711
   47        0.743   0.968   0.000   1.711
   48        0.744   0.967   0.000   1.711
   49        0.744   0.967   0.000   1.711
   50        0.744   0.967   0.000   1.711
   51        0.744   0.967   0.000   1.711
   52        0.744   0.967   0.000   1.711
   53        0.743   0.968   0.000   1.711
   54        0.744   0.967   0.000   1.711
   55        0.743   0.968   0.000   1.711
   56        0.744   0.967   0.000   1.711
   57        0.744   0.967   0.000   1.711
   58        0.744   0.967   0.000   1.711
   59        0.744   0.967   0.000   1.711
   60        0.744   0.967   0.000   1.711
   61        0.737   1.008   0.000   1.745
   62        0.737   1.008   0.000   1.745
   63        0.737   1.008   0.000   1.745
   64        0.737   1.008   0.000   1.745
   65        0.744   0.967   0.000   1.711
   66        0.744   0.967   0.000   1.711
   67        0.744   0.967   0.000   1.711
   68        0.744   0.967   0.000   1.711
   69        0.744   0.967   0.000   1.711
   70        0.743   0.967   0.000   1.711
   71        0.744   0.967   0.000   1.711
   72        0.743   0.967   0.000   1.711
   73        0.744   0.967   0.000   1.711
   74        0.744   0.967   0.000   1.711
   75        0.744   0.967   0.000   1.711
   76        0.744   0.967   0.000   1.711
   77        0.744   0.967   0.000   1.711
   78        0.743   0.967   0.000   1.711
   79        0.744   0.967   0.000   1.711
   80        0.743   0.967   0.000   1.711
   81        0.743   0.967   0.000   1.710
   82        0.742   0.966   0.000   1.709
   83        0.743   0.967   0.000   1.710
   84        0.742   0.966   0.000   1.709
   85        0.741   0.981   0.000   1.722
   86        0.741   0.981   0.000   1.722
   87        0.743   0.967   0.000   1.710
   88        0.742   0.966   0.000   1.709
   89        0.743   0.967   0.000   1.710
   90        0.742   0.966   0.000   1.709
   91        0.741   0.981   0.000   1.722
   92        0.741   0.981   0.000   1.722
   93        0.737   1.005   0.000   1.743
   94        0.737   1.005   0.000   1.743
   95        0.737   1.005   0.000   1.743
   96        0.737   1.005   0.000   1.743
   97        0.741   0.982   0.000   1.723
   98        0.741   0.982   0.000   1.723
   99        0.742   0.966   0.000   1.708
  100        0.743   0.967   0.000   1.711
  101        0.742   0.966   0.000   1.708
  102        0.743   0.967   0.000   1.711
  103        0.741   0.982   0.000   1.723
  104        0.741   0.982   0.000   1.723
  105        0.742   0.966   0.000   1.708
  106        0.743   0.967   0.000   1.710
  107        0.742   0.966   0.000   1.708
  108        0.743   0.967   0.000   1.710
  109        0.743   0.968   0.000   1.711
  110        0.744   0.967   0.000   1.711
  111        0.743   0.968   0.000   1.711
  112        0.744   0.967   0.000   1.711
  113        0.744   0.967   0.000   1.711
  114        0.744   0.967   0.000   1.711
  115        0.744   0.967   0.000   1.711
  116        0.744   0.967   0.000   1.711
  117        0.743   0.968   0.000   1.711
  118        0.744   0.967   0.000   1.711
  119        0.743   0.968   0.000   1.711
  120        0.744   0.967   0.000   1.711
  121        0.744   0.967   0.000   1.711
  122        0.744   0.967   0.000   1.711
  123        0.744   0.967   0.000   1.711
  124        0.744   0.967   0.000   1.711
  125        0.737   1.008   0.000   1.745
  126        0.737   1.008   0.000   1.745
  127        0.737   1.008   0.000   1.745
  128        0.737   1.008   0.000   1.745
  129        0.741   0.981   0.000   1.722
  130        0.744   0.967   0.000   1.711
  131        0.744   0.967   0.000   1.711
  132        0.744   0.967   0.000   1.711
  133        0.744   0.967   0.000   1.711
  134        0.743   0.967   0.000   1.711
  135        0.744   0.967   0.000   1.711
  136        0.743   0.967   0.000   1.711
  137        0.744   0.967   0.000   1.711
  138        0.744   0.967   0.000   1.711
  139        0.744   0.967   0.000   1.711
  140        0.744   0.967   0.000   1.711
  141        0.744   0.967   0.000   1.711
  142        0.743   0.967   0.000   1.711
  143        0.744   0.967   0.000   1.711
  144        0.743   0.967   0.000   1.711
  145        0.743   0.967   0.000   1.710
  146        0.742   0.966   0.000   1.709
  147        0.743   0.967   0.000   1.710
  148        0.742   0.966   0.000   1.709
  149        0.741   0.981   0.000   1.722
  150        0.741   0.981   0.000   1.722
  151        0.743   0.967   0.000   1.710
  152        0.742   0.966   0.000   1.709
  153        0.743   0.967   0.000   1.710
  154        0.742   0.966   0.000   1.709
  155        0.741   0.981   0.000   1.722
  156        0.737   1.005   0.000   1.743
  157        0.744   0.967   0.000   1.711
  158        0.737   1.005   0.000   1.743
  159        0.737   1.005   0.000   1.743
  160        0.737   1.005   0.000   1.743
--------------------------------------------------
tot        113.517 125.158   0.000 238.675


 total amount of memory used by VASP MPI-rank0   348024. kBytes
=======================================================================

   base                                    :      30000. kBytes
   nonl-proj                               :      86433. kBytes
   fftplans                                :      84433. kBytes
   grid                                    :      65866. kBytes
   one-center                              :         30. kBytes
   wavefun                                 :      81262. kBytes

  
  
 General timing and accounting informations for this job:
 ========================================================
  
                  Total CPU time used (sec):     8041.712
                            User time (sec):     7170.472
                          System time (sec):      871.240
                         Elapsed time (sec):     8052.402
  
                   Maximum memory used (kb):     1960624.
                   Average memory used (kb):          N/A
  
                          Minor page faults:     26207665
                          Major page faults:         1248
                 Voluntary context switches:         4045
