 vasp.6.5.0 16Dec24 (build Jan 20 2025 08:32:48) complex                         
 executed on        HPECrayEX_GCC date 2025.07.21  19:53:46
 running  128 mpi-ranks, with    1 threads/rank, on    1 nodes
 distrk:  each k-point on  128 cores,    1 groups
 distr:  one band on NCORE=  16 cores,    8 groups


--------------------------------------------------------------------------------------------------------


 INCAR:
   SYSTEM = a-Si SPC
   NCORE = 16
   ISTART = 1
   ICHARG = 1
   ISPIN = 1
   ISYM = 1
   EDIFF = 1E-6
   NELM = 150
   EDIFFG = -0.01
   NSW = 0
   ISIF = 2
   IBRION = -1
   PREC = Accurate
   ENCUT = 1200
   KSPACING = 0.23
   KGAMMA = .TRUE.
   METAGGA = SCAN
   LASPH = .TRUE.
   LDIAG = .FALSE.
   LMIXTAU = .TRUE.
   ADDGRID = .TRUE.
   ALGO = Normal
   ISMEAR = 0
   SIGMA = 0.1
   LORBIT = 11
   NEDOS = 2000
   LWAVE = .FALSE.
   LCHARG = .FALSE.

 POTCAR:    PAW_PBE H 15Jun2001                   
 POTCAR:    PAW_PBE Si 05Jan2001                  
 POTCAR:    PAW_PBE H 15Jun2001                   
   SHA256 =  030f79b5d3ab3cf0e668861823c8fb652ff669f3e15e46930bd03bfd63a607b6 H/POTCAR              
   COPYR  = (c) Copyright 15Jun2001 Georg Kresse                                                    
   COPYR  = This file is part of the software VASP. Any use, copying, and all other rights are regul
   COPYR  = If you do not have a valid VASP license, you may not use, copy or distribute this file. 
   VRHFIN =H: ultrasoft test                                                                        
   LEXCH  = PE                                                                                      
   EATOM  =    12.4884 eV,    0.9179 Ry                                                             
                                                                                                    
   TITEL  = PAW_PBE H 15Jun2001                                                                     
   LULTRA =        F    use ultrasoft PP ?                                                          
   IUNSCR =        0    unscreen: 0-lin 1-nonlin 2-no                                               
   RPACOR =    0.000    partial core radius                                                         
   POMASS =    1.000; ZVAL   =    1.000    mass and valenz                                          
   RCORE  =    1.100    outmost cutoff radius                                                       
   RWIGS  =    0.700; RWIGS  =    0.370    wigner-seitz radius (au A)                               
   ENMAX  =  250.000; ENMIN  =  200.000 eV                                                          
   RCLOC  =    0.701    cutoff for local pot                                                        
   LCOR   =        T    correct aug charges                                                         
   LPAW   =        T    paw PP                                                                      
   EAUG   =  400.000                                                                                
   RMAX   =    1.123    core radius for proj-oper                                                   
   RAUG   =    1.200    factor for augmentation sphere                                              
   RDEP   =    1.112    radius for radial grids                                                     
   RDEPT  =    0.926    core radius for aug-charge                                                  
                                                                                                    
   Atomic configuration                                                                             
    2 entries                                                                                       
     n  l   j            E        occ.                                                              
     1  0  0.50        -6.4927   1.0000                                                             
     2  1  0.50        -3.4015   0.0000                                                             
   Description                                                                                      
     l       E           TYP  RCUT    TYP  RCUT                                                     
     0     -6.4927494     23  1.100                                                                 
     0      6.8029130     23  1.100                                                                 
     1     -4.0817478     23  1.100                                                                 
  local pseudopotential read in
  atomic valenz-charges read in
  non local Contribution for L=           0  read in
    real space projection operators read in
  non local Contribution for L=           0  read in
    real space projection operators read in
  non local Contribution for L=           1  read in
    real space projection operators read in
    PAW grid and wavefunctions read in

   number of l-projection  operators is LMAX  =           3
   number of lm-projection operators is LMMAX =           5

 POTCAR:    PAW_PBE Si 05Jan2001                  
   SHA256 =  79d9987ad8750f624c4d6acb2a16d13abf6a777132adc04dc6c8399be72b42bb Si/POTCAR             
   COPYR  = (c) Copyright 05Jan2001 Georg Kresse                                                    
   COPYR  = This file is part of the software VASP. Any use, copying, and all other rights are regul
   COPYR  = If you do not have a valid VASP license, you may not use, copy or distribute this file. 
   VRHFIN =Si: s2p2                                                                                 
   LEXCH  = PE                                                                                      
   EATOM  =   103.0669 eV,    7.5752 Ry                                                             
                                                                                                    
   TITEL  = PAW_PBE Si 05Jan2001                                                                    
   LULTRA =        F    use ultrasoft PP ?                                                          
   IUNSCR =        1    unscreen: 0-lin 1-nonlin 2-no                                               
   RPACOR =    1.500    partial core radius                                                         
   POMASS =   28.085; ZVAL   =    4.000    mass and valenz                                          
   RCORE  =    1.900    outmost cutoff radius                                                       
   RWIGS  =    2.480; RWIGS  =    1.312    wigner-seitz radius (au A)                               
   ENMAX  =  245.345; ENMIN  =  184.009 eV                                                          
   ICORE  =        2    local potential                                                             
   LCOR   =        T    correct aug charges                                                         
   LPAW   =        T    paw PP                                                                      
   EAUG   =  322.069                                                                                
   DEXC   =    0.000                                                                                
   RMAX   =    1.950    core radius for proj-oper                                                   
   RAUG   =    1.300    factor for augmentation sphere                                              
   RDEP   =    1.993    radius for radial grids                                                     
   RDEPT  =    1.837    core radius for aug-charge                                                  
                                                                                                    
   Atomic configuration                                                                             
    6 entries                                                                                       
     n  l   j            E        occ.                                                              
     1  0  0.50     -1785.8828   2.0000                                                             
     2  0  0.50      -139.4969   2.0000                                                             
     2  1  1.50       -95.5546   6.0000                                                             
     3  0  0.50       -10.8127   2.0000                                                             
     3  1  0.50        -4.0811   2.0000                                                             
     3  2  1.50        -4.0817   0.0000                                                             
   Description                                                                                      
     l       E           TYP  RCUT    TYP  RCUT                                                     
     0    -10.8127223     23  1.900                                                                 
     0     -7.6451159     23  1.900                                                                 
     1     -4.0811372     23  1.900                                                                 
     1      2.4879257     23  1.900                                                                 
     2     -4.0817478      7  1.900                                                                 
  local pseudopotential read in
  partial core-charges read in
  partial kinetic energy density read in
  atomic valenz-charges read in
  non local Contribution for L=           0  read in
    real space projection operators read in
  non local Contribution for L=           0  read in
    real space projection operators read in
  non local Contribution for L=           1  read in
    real space projection operators read in
  non local Contribution for L=           1  read in
    real space projection operators read in
    PAW grid and wavefunctions read in

   number of l-projection  operators is LMAX  =           4
   number of lm-projection operators is LMMAX =           8

 -----------------------------------------------------------------------------
|                                                                             |
|               ----> ADVICE to this user running VASP <----                  |
|                                                                             |
|     You have a (more or less) 'large supercell' and for larger cells it     |
|     might be more efficient to use real-space projection operators.         |
|     Therefore, try LREAL= Auto in the INCAR file.                           |
|     Mind: For very accurate calculation, you might also keep the            |
|     reciprocal projection scheme (i.e. LREAL=.FALSE.).                      |
|                                                                             |
 -----------------------------------------------------------------------------

 -----------------------------------------------------------------------------
|                                                                             |
|               ----> ADVICE to this user running VASP <----                  |
|                                                                             |
|     You enforced a specific xc type in the INCAR file but a different       |
|     type was found in the POTCAR file.                                      |
|     I HOPE YOU KNOW WHAT YOU ARE DOING!                                     |
|                                                                             |
 -----------------------------------------------------------------------------

  PAW_PBE H 15Jun2001                   :
 energy of atom  1       EATOM=  -12.4884
 kinetic energy error for atom=    0.0000 (will be added to EATOM!!)
  PAW_PBE Si 05Jan2001                  :
 energy of atom  2       EATOM= -103.0669
 kinetic energy error for atom=    0.0001 (will be added to EATOM!!)


 POSCAR:  H Si
  positions in cartesian coordinates
  No initial velocities read in


 exchange-correlation table for SCAN
   RHO(1)=    0.500       N(1)  =     2000
   RHO(2)=  100.500       N(2)  =     4000



--------------------------------------------------------------------------------------------------------


 ion  position               nearest neighbor table
   1  0.253  0.360  0.609-  14 0.80
   2  0.347  0.414  0.471-  30 1.48
   3  0.167  0.247  0.532-  51 1.54
   4  0.457  0.576  0.590-  44 1.47
   5  0.186  0.305  0.452-  20 0.74
   6  0.208  0.469  0.426-  86 1.48
   7  0.127  0.293  0.649- 111 1.48
   8  0.380  0.356  0.619-  83 1.38
   9  0.100  0.479  0.591-  53 1.50
  10  0.481  0.763  0.354-
  11  0.294  0.337  0.508-  98 1.44
  12  0.442  0.519  0.648-
  13  0.064  0.422  0.464-  67 1.44
  14  0.203  0.382  0.607-   1 0.80
  15  0.139  0.397  0.524-  22 0.73
  16  0.058  0.587  0.482- 104 1.43
  17  0.072  0.441  0.377-  86 1.52
  18  0.199  0.334  0.384-  89 1.46
  19  0.206  0.535  0.510-  82 1.45
  20  0.143  0.290  0.462-   5 0.74
  21  0.010  0.609  0.592- 117 1.48
  22  0.188  0.387  0.527-  15 0.73
  23  0.253  0.528  0.640-  87 1.44
  24  0.413  0.951  0.635-  85 2.29  31 2.37  73 2.40  38 3.13
  25  0.847  0.905  0.653-  80 2.14 119 2.35  28 3.12
  26  0.840  0.190  0.428-  81 2.17  66 2.26  95 2.31  40 2.40
  27  0.513  0.060  0.506- 112 2.27  96 2.29  31 2.46  33 2.49  84 3.15
  28  0.049  0.903  0.618- 119 2.19  76 2.23  92 2.31  25 3.12
  29  0.638  0.675  0.405-  42 2.31  46 2.34  36 2.43  71 2.67
  30  0.413  0.448  0.436-   2 1.48  37 2.44 103 2.47  36 2.51
  31  0.430  0.070  0.580-  61 2.29  58 2.32  24 2.37  27 2.46 112 3.10
  32  0.993  0.005  0.399- 102 2.20  66 2.28  39 2.31
  33  0.441  0.202  0.475-  98 2.31  37 2.41  45 2.49  27 2.49
  34  0.662  0.506  0.548- 107 2.29  35 2.35  56 2.35 113 2.43
  35  0.667  0.555  0.625-  34 2.35  55 2.40  68 2.41
  36  0.498  0.598  0.430-  56 2.28 114 2.33  29 2.43  30 2.51  71 2.61
  37  0.522  0.320  0.433- 101 2.32  33 2.41  30 2.44 116 2.52  71 3.14
  38  0.396  0.828  0.547- 112 2.30  85 2.33  97 2.37 108 2.38  24 3.13
  39  0.956  0.871  0.437-  52 2.30  32 2.31 110 2.35  77 2.44
  40  0.722  0.182  0.486-  90 2.14 101 2.21  96 2.25  26 2.40
  41  0.221  0.101  0.628- 111 2.21  76 2.37  58 2.42
  42  0.790  0.693  0.426-  72 2.25  29 2.31  52 2.37  64 2.51
  43  0.258  0.981  0.371-  49 2.28  47 2.32  50 2.50
  44  0.429  0.514  0.552-   4 1.47  83 2.33  56 2.33  82 2.43
  45  0.342  0.194  0.406-  49 2.26  89 2.31 106 2.33  33 2.49
  46  0.606  0.800  0.453-  74 2.29  29 2.34  70 2.36  78 2.38
  47  0.412  0.940  0.373-  43 2.32 106 2.34  74 2.37
  48  0.864  0.478  0.462-  91 2.24  72 2.25  67 2.33 113 2.35
  49  0.235  0.089  0.426-  62 2.14  45 2.26  43 2.28 102 2.28
  50  0.183  0.828  0.378- 118 2.32  77 2.35  43 2.50
  51  0.080  0.201  0.552-   3 1.54  93 2.28 111 2.31  57 2.34
  52  0.857  0.813  0.383- 105 2.21  39 2.30  42 2.37
  53  0.017  0.428  0.608-   9 1.50  99 2.30  93 2.39
  54  0.875  0.527  0.345-  72 2.14
  55  0.769  0.438  0.652-  99 2.40  35 2.40 109 3.12
  56  0.543  0.571  0.504-  36 2.28  44 2.33  34 2.35  70 2.41
  57  0.058  0.071  0.506- 102 2.28  60 2.31  51 2.34  65 2.48
  58  0.293  0.134  0.555-  62 2.31  31 2.32  98 2.36  41 2.42
  59  0.697  0.059  0.600-  90 2.23  84 2.28  61 2.29
  60  0.160  0.951  0.517-  62 2.29  94 2.31  57 2.31  76 2.32
  61  0.560  0.133  0.610-  79 2.24  59 2.29  31 2.29
  62  0.282  0.037  0.492-  49 2.14  60 2.29  58 2.31 112 2.32
  63  0.881  0.793  0.549- 110 2.26  80 2.29  92 2.44  64 2.45
  64  0.770  0.690  0.512- 113 2.28  70 2.39  63 2.45  42 2.51
  65  0.903  0.032  0.536- 110 2.26 119 2.28  90 2.36  57 2.48
  66  0.851  0.063  0.383-  26 2.26  32 2.28 105 2.54
  67  0.980  0.371  0.471-  13 1.44  95 2.32  48 2.33  93 2.42
  68  0.722  0.708  0.641-  80 2.32  35 2.41
  69  0.824  0.278  0.578-  90 2.31 109 2.33  93 2.43 107 2.48
  70  0.609  0.718  0.523- 108 2.31  46 2.36  64 2.39  56 2.41
  71  0.626  0.493  0.395-  91 2.41  36 2.61  29 2.67  37 3.14
  72  0.899  0.588  0.411-  54 2.14  42 2.25  48 2.25 104 2.31
  73  0.538  0.852  0.655- 108 2.31  24 2.40
  74  0.460  0.850  0.437- 112 2.26  46 2.29  47 2.37 114 2.47
  75  0.309  0.717  0.653-  87 2.33  85 2.35
  76  0.186  0.955  0.596-  28 2.23  85 2.27  60 2.32  41 2.37
  77  0.088  0.767  0.437-  94 2.31 104 2.34  50 2.35  39 2.44
  78  0.717  0.918  0.464- 110 2.23  96 2.23  46 2.38 105 2.49  84 2.92
  79  0.564  0.285  0.599- 107 2.23  61 2.24  83 2.31
  80  0.770  0.837  0.601-  25 2.14  63 2.29  68 2.32  84 2.52
  81  0.774  0.293  0.386-  26 2.17  91 2.30 116 2.32
  82  0.278  0.577  0.537-  19 1.45  97 2.20  87 2.29  44 2.43
  83  0.432  0.363  0.580-   8 1.38  98 2.19  79 2.31  44 2.33
  84  0.652  0.933  0.559-  59 2.28 108 2.34  80 2.52  78 2.92  27 3.15
  85  0.300  0.853  0.610-  76 2.27  24 2.29  38 2.33  75 2.35
  86  0.137  0.512  0.397-   6 1.48  17 1.52 104 2.21
  87  0.232  0.605  0.611-  23 1.44  82 2.29  75 2.33 117 2.49
  88  0.588  0.093  0.389- 106 2.21 116 2.35  96 2.42
  89  0.282  0.308  0.359-  18 1.46 103 2.25  45 2.31
  90  0.782  0.136  0.550-  40 2.14  59 2.23  69 2.31  65 2.36
  91  0.738  0.406  0.438-  48 2.24 101 2.26  81 2.30  71 2.41
  92  0.045  0.784  0.565- 117 2.23  28 2.31  94 2.35  63 2.44
  93  0.976  0.318  0.550-  51 2.28  53 2.39  67 2.42  69 2.43
  94  0.158  0.794  0.507-  77 2.31  60 2.31  97 2.32  92 2.35
  95  0.991  0.238  0.428- 100 2.25 102 2.27  26 2.31  67 2.32
  96  0.647  0.054  0.465-  78 2.23  40 2.25  27 2.29  88 2.42
  97  0.298  0.719  0.512-  82 2.20  94 2.32  38 2.37 114 2.52
  98  0.356  0.276  0.532-  11 1.44  83 2.19  33 2.31  58 2.36
  99  0.883  0.512  0.605-  53 2.30 113 2.37  55 2.40
 100  0.989  0.267  0.351-  95 2.25
 101  0.648  0.314  0.482-  40 2.21  91 2.26 107 2.31  37 2.32
 102  0.080  0.110  0.431-  32 2.20  95 2.27  57 2.28  49 2.28
 103  0.342  0.450  0.359-  89 2.25  30 2.47
 104  0.049  0.611  0.434-  16 1.43  86 2.21  72 2.31  77 2.34
 105  0.751  0.921  0.380-  52 2.21  78 2.49  66 2.54
 106  0.443  0.097  0.367-  88 2.21  45 2.33  47 2.34
 107  0.676  0.351  0.558-  79 2.23  34 2.29 101 2.31  69 2.48
 108  0.548  0.816  0.577-  70 2.31  73 2.31  84 2.34  38 2.38
 109  0.853  0.241  0.655-  69 2.33 115 2.34  55 3.12
 110  0.855  0.907  0.498-  78 2.23  65 2.26  63 2.26  39 2.35
 111  0.107  0.201  0.630-   7 1.48  41 2.21 115 2.26  51 2.31
 112  0.411  0.944  0.494-  74 2.26  27 2.27  38 2.30  62 2.32  31 3.10
 113  0.821  0.548  0.532-  64 2.28  48 2.35  99 2.37  34 2.43
 114  0.377  0.702  0.435-  36 2.33 118 2.34  74 2.47  97 2.52
 115  0.974  0.136  0.654- 111 2.26 119 2.31 109 2.34
 116  0.623  0.247  0.373-  81 2.32  88 2.35  37 2.52
 117  0.074  0.672  0.615-  21 1.48  92 2.23  87 2.49
 118  0.281  0.703  0.370-  50 2.32 114 2.34
 119  0.941  0.006  0.611-  28 2.19  65 2.28 115 2.31  25 2.35

  LATTYP: Found a simple tetragonal cell.
 ALAT       =    14.5699491063
 C/A-ratio  =     1.9893191382
  
  Lattice vectors:
  
 A1 = (  14.5699491063,   0.0000000000,   0.0000000000)
 A2 = (   0.0000000000,  14.5699491063,   0.0000000000)
 A3 = (   0.0000000000,   0.0000000000,  28.9842786000)


Analysis of symmetry for initial positions (statically):
=====================================================================
 Subroutine PRICEL returns:
 Original cell was already a primitive cell.
 

 Routine SETGRP: Setting up the symmetry group for a 
 simple tetragonal supercell.


 Subroutine GETGRP returns: Found  1 space group operations
 (whereof  1 operations were pure point group operations)
 out of a pool of 16 trial point group operations.


The static configuration has the point symmetry C_1 .


Analysis of symmetry for dynamics (positions and initial velocities):
=====================================================================
 Subroutine PRICEL returns:
 Original cell was already a primitive cell.
 

 Routine SETGRP: Setting up the symmetry group for a 
 simple tetragonal supercell.


 Subroutine GETGRP returns: Found  1 space group operations
 (whereof  1 operations were pure point group operations)
 out of a pool of 16 trial point group operations.


The dynamic configuration has the point symmetry C_1 .


 Subroutine INISYM returns: Found  1 space group operations
 (whereof  1 operations are pure point group operations),
 and found     1 'primitive' translations


----------------------------------------------------------------------------------------

                                     Primitive cell                                     

  volume of cell :    6152.8817

  direct lattice vectors                    reciprocal lattice vectors
    14.569949106  0.000000000  0.000000000     0.068634420  0.000000000  0.000000000
     0.000000000 14.569949106  0.000000000     0.000000000  0.068634420  0.000000000
     0.000000000  0.000000000 28.984278600     0.000000000  0.000000000  0.034501462

  length of vectors
    14.569949106 14.569949106 28.984278600     0.068634420  0.068634420  0.034501462

  position of ions in fractional coordinates (direct lattice)
     0.252569860  0.360340998  0.608596779
     0.347058179  0.414469533  0.470819674
     0.167175601  0.246771624  0.531897613
     0.456508115  0.575735710  0.589837989
     0.186126251  0.304808889  0.452032593
     0.208141427  0.468595322  0.426172711
     0.127207720  0.293478719  0.649054919
     0.380034958  0.356403441  0.619396082
     0.099923479  0.479005791  0.590711566
     0.481152676  0.763448103  0.353946418
     0.293952297  0.336537208  0.507814902
     0.442305594  0.519134277  0.647808381
     0.063810724  0.422048832  0.464362380
     0.202739212  0.382430986  0.606597074
     0.139116478  0.396568990  0.523551019
     0.057840284  0.586851055  0.481883258
     0.071845138  0.441098315  0.376645793
     0.199099529  0.334090391  0.383935676
     0.205634898  0.534946275  0.509625884
     0.142524863  0.289569302  0.462241575
     0.009701269  0.608967124  0.591916357
     0.187942317  0.387442671  0.526772766
     0.253381805  0.528014885  0.639788516
     0.413164793  0.950813205  0.635072511
     0.847182094  0.905329175  0.653442470
     0.839652899  0.189796133  0.428119974
     0.513010028  0.059756832  0.506177463
     0.049106486  0.902528890  0.617822470
     0.637801816  0.674949509  0.405029870
     0.413443448  0.447871846  0.435909369
     0.429641858  0.069862289  0.579755972
     0.992961602  0.005148954  0.398793731
     0.441122337  0.202269753  0.475276228
     0.662042120  0.506066970  0.547515045
     0.666517771  0.554959385  0.624668940
     0.498191171  0.597674016  0.429576626
     0.521786311  0.320332622  0.433430784
     0.395962948  0.827998774  0.547088607
     0.956276504  0.871238459  0.437271142
     0.722219407  0.181501664  0.486084846
     0.220708389  0.100924169  0.627755096
     0.789590953  0.692610518  0.426420087
     0.258101794  0.981314341  0.370546280
     0.428989831  0.513615384  0.552368021
     0.341762347  0.193599853  0.405678153
     0.605628746  0.800174380  0.452859593
     0.411541589  0.939948376  0.373068095
     0.863571994  0.478358569  0.462288842
     0.235109263  0.088672925  0.426456313
     0.182503726  0.827751690  0.378432693
     0.079908996  0.201286908  0.551703522
     0.857484121  0.812885475  0.383012417
     0.017154144  0.428313782  0.607604862
     0.874814312  0.526824764  0.345014625
     0.768918266  0.437750328  0.652052406
     0.542999838  0.570712357  0.503589853
     0.057818047  0.070799836  0.505911111
     0.292979060  0.133717694  0.554575079
     0.697174707  0.058707892  0.600467544
     0.160101451  0.951362280  0.517156173
     0.560450139  0.133226958  0.609900589
     0.281731938  0.036959909  0.491562298
     0.880888458  0.793036401  0.549245293
     0.769844830  0.690228904  0.512330799
     0.903235825  0.032445824  0.536005357
     0.851059939  0.063388622  0.383149043
     0.980229917  0.370833828  0.471100516
     0.721862508  0.707751271  0.641038504
     0.824354287  0.277854093  0.577749367
     0.609162732  0.717600310  0.522932408
     0.626195736  0.492916615  0.394992360
     0.899234438  0.588365816  0.410769189
     0.538496047  0.852034548  0.654985375
     0.459629608  0.849584299  0.436821933
     0.309342879  0.716701199  0.653375882
     0.186296464  0.955068539  0.596244565
     0.087936477  0.767202405  0.436849189
     0.717051235  0.917717687  0.464422413
     0.564439858  0.285189054  0.599018483
     0.769899738  0.836564350  0.600848441
     0.774052120  0.293064853  0.385519293
     0.277986558  0.577254590  0.536575321
     0.432001509  0.363140596  0.579605200
     0.652222594  0.933036890  0.559323170
     0.300279017  0.852816980  0.610308052
     0.136774671  0.511994239  0.397335354
     0.231801771  0.605170268  0.610839719
     0.587663000  0.093427231  0.389218540
     0.281963922  0.307819195  0.359164040
     0.782027440  0.136000475  0.549652066
     0.737545473  0.405647951  0.437819715
     0.044841886  0.784203151  0.565040753
     0.976331482  0.318219368  0.550114385
     0.157646398  0.793853150  0.507121768
     0.991081019  0.237900625  0.427594517
     0.646685169  0.053889207  0.464539028
     0.297821905  0.718794549  0.511585222
     0.356113118  0.275558958  0.531621946
     0.883427931  0.511579000  0.605474742
     0.989193572  0.266908963  0.351289737
     0.648289842  0.313655866  0.481867732
     0.080357178  0.110487002  0.430831444
     0.342259260  0.449959019  0.358639273
     0.048796258  0.611325402  0.434425806
     0.751162541  0.920826827  0.380300602
     0.442947326  0.096920723  0.366504157
     0.676073741  0.351041720  0.558043166
     0.547590794  0.816269152  0.577307748
     0.852796390  0.240798370  0.654547552
     0.854663246  0.906708727  0.497751171
     0.106948898  0.201116008  0.630379277
     0.411294505  0.943977216  0.493874241
     0.820805887  0.547979265  0.532378908
     0.377023280  0.701807530  0.434736319
     0.973977321  0.135925664  0.653886159
     0.623297991  0.247143622  0.373230700
     0.074434714  0.672077845  0.615387702
     0.280733994  0.703255717  0.370181875
     0.941094571  0.006441237  0.611211990

  ion indices of the primitive-cell ions
   primitive index   ion index
                 1           1
                 2           2
                 3           3
                 4           4
                 5           5
                 6           6
                 7           7
                 8           8
                 9           9
                10          10
                11          11
                12          12
                13          13
                14          14
                15          15
                16          16
                17          17
                18          18
                19          19
                20          20
                21          21
                22          22
                23          23
                24          24
                25          25
                26          26
                27          27
                28          28
                29          29
                30          30
                31          31
                32          32
                33          33
                34          34
                35          35
                36          36
                37          37
                38          38
                39          39
                40          40
                41          41
                42          42
                43          43
                44          44
                45          45
                46          46
                47          47
                48          48
                49          49
                50          50
                51          51
                52          52
                53          53
                54          54
                55          55
                56          56
                57          57
                58          58
                59          59
                60          60
                61          61
                62          62
                63          63
                64          64
                65          65
                66          66
                67          67
                68          68
                69          69
                70          70
                71          71
                72          72
                73          73
                74          74
                75          75
                76          76
                77          77
                78          78
                79          79
                80          80
                81          81
                82          82
                83          83
                84          84
                85          85
                86          86
                87          87
                88          88
                89          89
                90          90
                91          91
                92          92
                93          93
                94          94
                95          95
                96          96
                97          97
                98          98
                99          99
               100         100
               101         101
               102         102
               103         103
               104         104
               105         105
               106         106
               107         107
               108         108
               109         109
               110         110
               111         111
               112         112
               113         113
               114         114
               115         115
               116         116
               117         117
               118         118
               119         119

----------------------------------------------------------------------------------------


 -----------------------------------------------------------------------------
|                                                                             |
|           W    W    AA    RRRRR   N    N  II  N    N   GGGG   !!!           |
|           W    W   A  A   R    R  NN   N  II  NN   N  G    G  !!!           |
|           W    W  A    A  R    R  N N  N  II  N N  N  G       !!!           |
|           W WW W  AAAAAA  RRRRR   N  N N  II  N  N N  G  GGG   !            |
|           WW  WW  A    A  R   R   N   NN  II  N   NN  G    G                |
|           W    W  A    A  R    R  N    N  II  N    N   GGGG   !!!           |
|                                                                             |
|     The requested file  could not be found or opened for reading            |
|     k-point information. Automatic k-point generation is used as a          |
|     fallback, which may lead to unwanted results.                           |
|                                                                             |
 -----------------------------------------------------------------------------



Automatic generation of k-mesh.
 Grid dimensions derived from KSPACING:
 generate k-points for:    2    2    1

 Generating k-lattice:

  Cartesian coordinates                     Fractional coordinates (reciprocal lattice)
     0.034317210  0.000000000  0.000000000     0.500000000  0.000000000  0.000000000
     0.000000000  0.034317210  0.000000000     0.000000000  0.500000000  0.000000000
     0.000000000  0.000000000  0.034501462     0.000000000  0.000000000  1.000000000

  Length of vectors
     0.034317210  0.034317210  0.034501462

  Shift w.r.t. Gamma in fractional coordinates (k-lattice)
     0.000000000  0.000000000  0.000000000

 
 Subroutine IBZKPT returns following result:
 ===========================================
 
 Found      4 irreducible k-points:
 
 Following reciprocal coordinates:
            Coordinates               Weight
  0.000000  0.000000  0.000000      1.000000
  0.500000  0.000000  0.000000      1.000000
  0.000000  0.500000  0.000000      1.000000
  0.500000  0.500000  0.000000      1.000000
 
 Following cartesian coordinates:
            Coordinates               Weight
  0.000000  0.000000  0.000000      1.000000
  0.034317  0.000000  0.000000      1.000000
  0.000000  0.034317  0.000000      1.000000
  0.034317  0.034317  0.000000      1.000000
 


--------------------------------------------------------------------------------------------------------




 Dimension of arrays:
   k-points           NKPTS =      4   k-points in BZ     NKDIM =      4   number of bands    NBANDS=    264
   number of dos      NEDOS =   2000   number of ions     NIONS =    119
   non local maximal  LDIM  =      4   non local SUM 2l+1 LMDIM =      8
   total plane-waves  NPLWV = ******
   max r-space proj   IRMAX =      1   max aug-charges    IRDMAX= 412410
   dimension x,y,z NGX =   168 NGY =  168 NGZ =  336
   dimension x,y,z NGXF=   336 NGYF=  336 NGZF=  672
   support grid    NGXF=   672 NGYF=  672 NGZF= 1344
   ions per type =              23  96
   NGX,Y,Z   is equivalent  to a cutoff of  19.17, 19.17, 19.27 a.u.
   NGXF,Y,Z  is equivalent  to a cutoff of  38.34, 38.34, 38.54 a.u.

 SYSTEM =  a-Si SPC                                
 POSCAR =   H Si                                   

 Startparameter for this run:
   NWRITE =      2    write-flag & timer
   PREC   = accura    normal or accurate (medium, high low for compatibility)
   ISTART =      1    job   : 0-new  1-cont  2-samecut
   ICHARG =      1    charge: 1-file 2-atom 10-const
   ISPIN  =      1    spin polarized calculation?
   LNONCOLLINEAR =      F non collinear calculations
   LSORBIT =      F    spin-orbit coupling
   INIWAV =      1    electr: 0-lowe 1-rand  2-diag
   LASPH  =      T    aspherical Exc in radial PAW
 Electronic Relaxation 1
   ENCUT  = 1200.0 eV  88.20 Ry    9.39 a.u.  41.15 41.15 81.87*2*pi/ulx,y,z
   ENINI  = 1200.0     initial cutoff
   ENAUG  =  400.0 eV  augmentation charge cutoff
   NELM   =    150;   NELMIN=  2; NELMDL=  0     # of ELM steps 
   EDIFF  = 0.1E-05   stopping-criterion for ELM
   LREAL  =      F    real-space projection
   NLSPLINE    = F    spline interpolate recip. space projectors
   LCOMPAT=      F    compatible to vasp.4.4
   GGA_COMPAT  = T    GGA compatible to vasp.4.4-vasp.4.6
   LMAXPAW     = -100 max onsite density
   LMAXMIX     =    2 max onsite mixed and CHGCAR
   VOSKOWN=      0    Vosko Wilk Nusair interpolation
   ROPT   =    0.00000   0.00000
 Ionic relaxation
   EDIFFG = -.1E-01   stopping-criterion for IOM
   NSW    =      0    number of steps for IOM
   NBLOCK =      1;   KBLOCK =      1    inner block; outer block 
   IBRION =     -1    ionic relax: 0-MD 1-quasi-New 2-CG
   NFREE  =      0    steps in history (QN), initial steepest desc. (CG)
   ISIF   =      2    stress and relaxation
   IWAVPR =     10    prediction:  0-non 1-charg 2-wave 3-comb
   ISYM   =      1    0-nonsym 1-usesym 2-fastsym
   LCORR  =      T    Harris-Foulkes like correction to forces

   POTIM  = 0.5000    time-step for ionic-motion
   TEIN   =    0.0    initial temperature
   TEBEG  =    0.0;   TEEND  =   0.0 temperature during run
   SMASS  =  -3.00    Nose mass-parameter (am)
   estimated Nose-frequenzy (Omega)   =  0.10E-29 period in steps = 0.13E+47 mass=  -0.485E-26a.u.
   SCALEE = 1.0000    scale energy and forces
   NPACO  =    256;   APACO  = 10.0  distance and # of slots for P.C.
   PSTRESS=    0.0 pullay stress

  Mass of Ions in am
   POMASS =   1.00 28.09
  Ionic Valenz
   ZVAL   =   1.00  4.00
  Atomic Wigner-Seitz radii
   RWIGS  =  -1.00 -1.00
  virtual crystal weights 
   VCA    =   1.00  1.00
   NELECT =     407.0000    total number of electrons
   NUPDOWN=      -1.0000    fix difference up-down

 DOS related values:
   EMIN   =  10.00;   EMAX   =-10.00  energy-range for DOS
   EFERMI =   0.00;   METHOD = LEGACY      
   ISMEAR =     0;   SIGMA  =   0.10  broadening in eV -4-tet -1-fermi 0-gaus
   EFERMI_NEDOS =   21; number of points for ismear=-14 and -15

 Electronic relaxation 2 (details)
   IALGO  =     38    algorithm
   LDIAG  =      F    sub-space diagonalisation (order eigenvalues)
   LSUBROT=      F    optimize rotation matrix (better conditioning)
   TURBO    =      0    0=normal 1=particle mesh
   IRESTART =      0    0=no restart 2=restart with 2 vectors
   NREBOOT  =      0    no. of reboots
   NMIN     =      0    reboot dimension
   EREF     =   0.00    reference energy to select bands
   IMIX   =      4    mixing-type and parameters
     AMIX     =   0.40;   BMIX     =  1.00
     AMIX_MAG =   1.60;   BMIX_MAG =  1.00
     AMIN     =   0.10
     WC   =   100.;   INIMIX=   1;  MIXPRE=   1;  MAXMIX= -45

 Intra band minimization:
   WEIMIN = 0.0000     energy-eigenvalue tresh-hold
   EBREAK =  0.95E-09  absolut break condition
   DEPER  =   0.30     relativ break condition  

   TIME   =   0.40     timestep for ELM

  volume/ion in A,a.u.               =      51.70       348.92
  Fermi-wavevector in a.u.,A,eV,Ry     =   0.662085  1.251158  5.964195  0.438356
  Thomas-Fermi vector in A             =   1.735044

 Write flags
   LWAVE        =      F    write WAVECAR
   LDOWNSAMPLE  =      F    k-point downsampling of WAVECAR
   LCHARG       =      F    write CHGCAR
   LVTOT        =      F    write LOCPOT, total local potential
   LVHAR        =      F    write LOCPOT, Hartree potential only
   WRT_POTENTIAL= false  ! write potential to hdf5 file
   LELF         =      F    write electronic localiz. function (ELF)
   LORBIT       =     11    0 simple, 1 ext, 2 COOP (PROOUT), +10 PAW based schemes


 Python interface
   PLUGINS active      =      F    recompile with -DPLUGINS to activate

 Dipole corrections
   LMONO      =      F    monopole corrections only (constant potential shift)
   LDIPOL     =      F    correct potential (dipole corrections)
   IDIPOL     =      0    1-x, 2-y, 3-z, 4-all directions 
   EPSILON    =  1.0000000 bulk dielectric constant
   LVACPOTAV  =      F  vacuum potentials using an averaging scheme for the charge density
   VACPOTFLAT =  0.1000000 required flatness to determine vacuum potential

Coulomb truncation method
  LTRUNCATE          =      F  Coulomb kernel truncation to be used
  IDIMENSIONALITY    =      3  Dimensionality of cutoff (0 molecules / 2 surfaces)
  ISURFACE           =     -1  Direction of surface normal
  LCOARSEN           =      F  Coarsen the charge grid before padding, preferred


 Exchange correlation treatment:
   METAGGA = SCAN    functional components
   XC_C    = 1    coefficients multiplying the functional components
   LIBXC   =     F    Libxc                    
   VOSKOWN =     0    Vosko Wilk Nusair interpolation
   LHFCALC =     F    Hartree Fock is set to
   LHFONE  =     F    Hartree Fock one center treatment
   AEXX    =    0.0000 exact exchange contribution

 Parameters of functionals:
   SCAN:
     P1 =  0.000000E+00
     P2 =  0.000000E+00
     P3 =  0.000000E+00

 Accuracy and mixing parameters for tau-dependent meta-GGA functionals:
   LMAXTAU = 6
   LMIXTAU = T

 Van der Waals corrections
   IVDW    =     0    specifies the selected vdW correction

 Linear response parameters
   LEPSILON=     F    determine dielectric tensor
   LRPA    =     F    only Hartree local field effects (RPA)
   LNABLA  =     F    use nabla operator in PAW spheres
   LVEL    =     F    velocity operator in full k-point grid
   CSHIFT  =0.1000    complex shift for real part using Kramers Kronig
   OMEGAMAX=  -1.0    maximum frequency
   DEG_THRESHOLD= 0.2000000E-02 threshold for treating states as degnerate
   RTIME   =   -0.100 relaxation time in fs
  (WPLASMAI=    0.000 imaginary part of plasma frequency in eV, 0.658/RTIME)
   DFIELD  = 0.0000000 0.0000000 0.0000000 field for delta impulse in time

  Optional k-point grid parameters
   LKPOINTS_OPT  =     F    use optional k-point grid
   KPOINTS_OPT_MODE=     1    mode for optional k-point grid

 Orbital magnetization related:
   ORBITALMAG=     F  switch on orbital magnetization
   LCHIMAG   =     F  perturbation theory with respect to B field
   DQ        =  0.001000  dq finite difference perturbation B field
   LLRAUG    =     F  two centre corrections for induced B field
   LBONE     =     F  B-component reconstruction in AE one-centre
   LVGVCALC  =     T  calculate vGv susceptibility
   LVGVAPPL  =     F  apply vGv susceptibility instead of pGv for G=0

 Random number generation:
   RANDOM_GENERATOR = DEFAULT
   PCG_SEED         = not used


--------------------------------------------------------------------------------------------------------


 Static calculation
 charge density and potential will be updated during run
 non-spin polarized calculation
 Variant of blocked Davidson
 perform Loewdin sub-space diagonalisation
    ordering is kept fixed
    before iterative eigenvector-optimisation
 modified Broyden-mixing scheme, WC =      100.0
 initial mixing is a Kerker type mixing with AMIX =  0.4000 and BMIX =      1.0000
 Hartree-type preconditioning will be used
 using additional bands           60
 reciprocal scheme for non local part
 use partial core corrections
 calculate Harris-corrections to forces   (improved forces if not selfconsistent)
 use gradient corrections 
 use of overlap-Matrix (Vanderbilt PP)
 Gauss-broadening in eV      SIGMA  =   0.10


--------------------------------------------------------------------------------------------------------


  energy-cutoff  :     1200.00
  volume of cell :     6152.88
      direct lattice vectors                 reciprocal lattice vectors
    14.569949106  0.000000000  0.000000000     0.068634420  0.000000000  0.000000000
     0.000000000 14.569949106  0.000000000     0.000000000  0.068634420  0.000000000
     0.000000000  0.000000000 28.984278600     0.000000000  0.000000000  0.034501462

  length of vectors
    14.569949106 14.569949106 28.984278600     0.068634420  0.068634420  0.034501462



 old parameters found on file WAVECAR:
  energy-cutoff  :     1200.00
  volume of cell :     6152.88
      direct lattice vectors                 reciprocal lattice vectors
    14.569949106  0.000000000  0.000000000     0.068634420  0.000000000  0.000000000
     0.000000000 14.569949106  0.000000000     0.000000000  0.068634420  0.000000000
     0.000000000  0.000000000 28.984278600     0.000000000  0.000000000  0.034501462

  length of vectors


 k-points in units of 2pi/SCALE and weight: read from INCAR                         
   0.00000000  0.00000000  0.00000000       0.250
   0.03431721  0.00000000  0.00000000       0.250
   0.00000000  0.03431721  0.00000000       0.250
   0.03431721  0.03431721  0.00000000       0.250

 k-points in reciprocal lattice and weights: read from INCAR                         
   0.00000000  0.00000000  0.00000000       0.250
   0.50000000  0.00000000  0.00000000       0.250
   0.00000000  0.50000000  0.00000000       0.250
   0.50000000  0.50000000  0.00000000       0.250

 position of ions in fractional coordinates (direct lattice) 
   0.25256986  0.36034100  0.60859678
   0.34705818  0.41446953  0.47081967
   0.16717560  0.24677162  0.53189761
   0.45650811  0.57573571  0.58983799
   0.18612625  0.30480889  0.45203259
   0.20814143  0.46859532  0.42617271
   0.12720772  0.29347872  0.64905492
   0.38003496  0.35640344  0.61939608
   0.09992348  0.47900579  0.59071157
   0.48115268  0.76344810  0.35394642
   0.29395230  0.33653721  0.50781490
   0.44230559  0.51913428  0.64780838
   0.06381072  0.42204883  0.46436238
   0.20273921  0.38243099  0.60659707
   0.13911648  0.39656899  0.52355102
   0.05784028  0.58685105  0.48188326
   0.07184514  0.44109831  0.37664579
   0.19909953  0.33409039  0.38393568
   0.20563490  0.53494627  0.50962588
   0.14252486  0.28956930  0.46224158
   0.00970127  0.60896712  0.59191636
   0.18794232  0.38744267  0.52677277
   0.25338180  0.52801488  0.63978852
   0.41316479  0.95081320  0.63507251
   0.84718209  0.90532917  0.65344247
   0.83965290  0.18979613  0.42811997
   0.51301003  0.05975683  0.50617746
   0.04910649  0.90252889  0.61782247
   0.63780182  0.67494951  0.40502987
   0.41344345  0.44787185  0.43590937
   0.42964186  0.06986229  0.57975597
   0.99296160  0.00514895  0.39879373
   0.44112234  0.20226975  0.47527623
   0.66204212  0.50606697  0.54751504
   0.66651777  0.55495939  0.62466894
   0.49819117  0.59767402  0.42957663
   0.52178631  0.32033262  0.43343078
   0.39596295  0.82799877  0.54708861
   0.95627650  0.87123846  0.43727114
   0.72221941  0.18150166  0.48608485
   0.22070839  0.10092417  0.62775510
   0.78959095  0.69261052  0.42642009
   0.25810179  0.98131434  0.37054628
   0.42898983  0.51361538  0.55236802
   0.34176235  0.19359985  0.40567815
   0.60562875  0.80017438  0.45285959
   0.41154159  0.93994838  0.37306809
   0.86357199  0.47835857  0.46228884
   0.23510926  0.08867292  0.42645631
   0.18250373  0.82775169  0.37843269
   0.07990900  0.20128691  0.55170352
   0.85748412  0.81288547  0.38301242
   0.01715414  0.42831378  0.60760486
   0.87481431  0.52682476  0.34501462
   0.76891827  0.43775033  0.65205241
   0.54299984  0.57071236  0.50358985
   0.05781805  0.07079984  0.50591111
   0.29297906  0.13371769  0.55457508
   0.69717471  0.05870789  0.60046754
   0.16010145  0.95136228  0.51715617
   0.56045014  0.13322696  0.60990059
   0.28173194  0.03695991  0.49156230
   0.88088846  0.79303640  0.54924529
   0.76984483  0.69022890  0.51233080
   0.90323582  0.03244582  0.53600536
   0.85105994  0.06338862  0.38314904
   0.98022992  0.37083383  0.47110052
   0.72186251  0.70775127  0.64103850
   0.82435429  0.27785409  0.57774937
   0.60916273  0.71760031  0.52293241
   0.62619574  0.49291662  0.39499236
   0.89923444  0.58836582  0.41076919
   0.53849605  0.85203455  0.65498538
   0.45962961  0.84958430  0.43682193
   0.30934288  0.71670120  0.65337588
   0.18629646  0.95506854  0.59624457
   0.08793648  0.76720241  0.43684919
   0.71705123  0.91771769  0.46442241
   0.56443986  0.28518905  0.59901848
   0.76989974  0.83656435  0.60084844
   0.77405212  0.29306485  0.38551929
   0.27798656  0.57725459  0.53657532
   0.43200151  0.36314060  0.57960520
   0.65222259  0.93303689  0.55932317
   0.30027902  0.85281698  0.61030805
   0.13677467  0.51199424  0.39733535
   0.23180177  0.60517027  0.61083972
   0.58766300  0.09342723  0.38921854
   0.28196392  0.30781919  0.35916404
   0.78202744  0.13600048  0.54965207
   0.73754547  0.40564795  0.43781972
   0.04484189  0.78420315  0.56504075
   0.97633148  0.31821937  0.55011439
   0.15764640  0.79385315  0.50712177
   0.99108102  0.23790063  0.42759452
   0.64668517  0.05388921  0.46453903
   0.29782191  0.71879455  0.51158522
   0.35611312  0.27555896  0.53162195
   0.88342793  0.51157900  0.60547474
   0.98919357  0.26690896  0.35128974
   0.64828984  0.31365587  0.48186773
   0.08035718  0.11048700  0.43083144
   0.34225926  0.44995902  0.35863927
   0.04879626  0.61132540  0.43442581
   0.75116254  0.92082683  0.38030060
   0.44294733  0.09692072  0.36650416
   0.67607374  0.35104172  0.55804317
   0.54759079  0.81626915  0.57730775
   0.85279639  0.24079837  0.65454755
   0.85466325  0.90670873  0.49775117
   0.10694890  0.20111601  0.63037928
   0.41129450  0.94397722  0.49387424
   0.82080589  0.54797926  0.53237891
   0.37702328  0.70180753  0.43473632
   0.97397732  0.13592566  0.65388616
   0.62329799  0.24714362  0.37323070
   0.07443471  0.67207785  0.61538770
   0.28073399  0.70325572  0.37018188
   0.94109457  0.00644124  0.61121199

 position of ions in cartesian coordinates  (Angst):
   3.67993000  5.25015000 17.63973860
   5.05662000  6.03880000 13.64636860
   2.43574000  3.59545000 15.41666860
   6.65130000  8.38844000 17.09602860
   2.71185000  4.44105000 13.10183860
   3.03261000  6.82741000 12.35230860
   1.85341000  4.27597000 18.81238860
   5.53709000  5.19278000 17.95274860
   1.45588000  6.97909000 17.12134860
   7.01037000 11.12340000 10.25888160
   4.28287000  4.90333000 14.71864860
   6.44437000  7.56376000 18.77625860
   0.92971900  6.14923000 13.45920860
   2.95390000  5.57200000 17.58177860
   2.02692000  5.77799000 15.17474860
   0.84273000  8.55039000 13.96703860
   1.04678000  6.42678000 10.91680660
   2.90087000  4.86768000 11.12809860
   2.99609000  7.79414000 14.77113860
   2.07658000  4.21901000 13.39773860
   0.14134700  8.87262000 17.15626860
   2.73831000  5.64502000 15.26812860
   3.69176000  7.69315000 18.54380860
   6.01979000 13.85330000 18.40711860
  12.34340000 13.19060000 18.93955860
  12.23370000  2.76532000 12.40874860
   7.47453000  0.87065400 14.67118860
   0.71547900 13.14980000 17.90713860
   9.29274000  9.83398000 11.73949860
   6.02385000  6.52547000 12.63451860
   6.25986000  1.01789000 16.80380860
  14.46740000  0.07502000 11.55874860
   6.42713000  2.94706000 13.77553860
   9.64592000  7.37337000 15.86932860
   9.71113000  8.08573000 18.10557860
   7.25862000  8.70808000 12.45096860
   7.60240000  4.66723000 12.56267860
   5.76916000 12.06390000 15.85696860
  13.93290000 12.69390000 12.67398860
  10.52270000  2.64447000 14.08881860
   3.21571000  1.47046000 18.19502860
  11.50430000 10.09130000 12.35947860
   3.76053000 14.29770000 10.74001660
   6.25036000  7.48335000 16.00998860
   4.97946000  2.82074000 11.75828860
   8.82398000 11.65850000 13.12580860
   5.99614000 13.69500000 10.81310960
  12.58220000  6.96966000 13.39910860
   3.42553000  1.29196000 12.36052860
   2.65907000 12.06030000 10.96859860
   1.16427000  2.93274000 15.99072860
  12.49350000 11.84370000 11.10133860
   0.24993500  6.24051000 17.61098860
  12.74600000  7.67581000 10.00000000
  11.20310000  6.37800000 18.89926860
   7.91148000  8.31525000 14.59618860
   0.84240600  1.03155000 14.66346860
   4.26869000  1.94826000 16.07395860
  10.15780000  0.85537100 17.40411860
   2.33267000 13.86130000 14.98939860
   8.16573000  1.94111000 17.67752860
   4.10482000  0.53850400 14.24757860
  12.83450000 11.55450000 15.91947860
  11.21660000 10.05660000 14.84953860
  13.16010000  0.47273400 15.53572860
  12.39990000  0.92356900 11.10529860
  14.28190000  5.40303000 13.65450860
  10.51750000 10.31190000 18.58003860
  12.01080000  4.04832000 16.74564860
   8.87547000 10.45540000 15.15681860
   9.12364000  7.18177000 11.44856860
  13.10180000  8.57246000 11.90584860
   7.84586000 12.41410000 18.98427860
   6.69678000 12.37840000 12.66096860
   4.50711000 10.44230000 18.93762860
   2.71433000 13.91530000 17.28171860
   1.28123000 11.17810000 12.66175860
  10.44740000 13.37110000 13.46094860
   8.22386000  4.15519000 17.36211860
  11.21740000 12.18870000 17.41515860
  11.27790000  4.26994000 11.17399860
   4.05025000  8.41057000 15.55224860
   6.29424000  5.29094000 16.79943860
   9.50285000 13.59430000 16.21157860
   4.37505000 12.42550000 17.68933860
   1.99280000  7.45973000 11.51647860
   3.37734000  8.81730000 17.70474860
   8.56222000  1.36123000 11.28121860
   4.10820000  4.48491000 10.41011060
  11.39410000  1.98152000 15.93126860
  10.74600000  5.91027000 12.68988860
   0.65334400 11.42580000 16.37729860
  14.22510000  4.63644000 15.94466860
   2.29690000 11.56640000 14.69855860
  14.44000000  3.46620000 12.39351860
   9.42217000  0.78516300 13.46432860
   4.33925000 10.47280000 14.82792860
   5.18855000  4.01488000 15.40867860
  12.87150000  7.45368000 17.54924860
  14.41250000  3.88885000 10.18187960
   9.44555000  4.56995000 13.96658860
   1.17080000  1.60979000 12.48733860
   4.98670000  6.55588000 10.39490060
   0.71095900  8.90698000 12.59151860
  10.94440000 13.41640000 11.02273860
   6.45372000  1.41213000 10.62285860
   9.85036000  5.11466000 16.17447860
   7.97837000 11.89300000 16.73284860
  12.42520000  3.50842000 18.97158860
  12.45240000 13.21070000 14.42695860
   1.55824000  2.93025000 18.27108860
   5.99254000 13.75370000 14.31458860
  11.95910000  7.98403000 15.43061860
   5.49321000 10.22530000 12.60051860
  14.19080000  1.98043000 18.95241860
   9.08142000  3.60087000 10.81782260
   1.08451000  9.79214000 17.83656860
   4.09028000 10.24640000 10.72945460
  13.71170000  0.09384850 17.71553860



--------------------------------------------------------------------------------------------------------


 k-point     1 :   0.0000 0.0000 0.0000  plane waves:  580747
 k-point     2 :   0.5000 0.0000 0.0000  plane waves:  580786
 k-point     3 :   0.0000 0.5000 0.0000  plane waves:  580786
 k-point     4 :   0.5000 0.5000 0.0000  plane waves:  580820

 maximum and minimum number of plane-waves per node :     36355    36236

 maximum number of plane-waves:    580820
 maximum index in each direction: 
   IXMAX=   41   IYMAX=   41   IZMAX=   81
   IXMIN=  -41   IYMIN=  -41   IZMIN=  -81


 parallel 3D FFT for wavefunctions:
    minimum data exchange during FFTs selected (reduces bandwidth)
 parallel 3D FFT for charge:
    minimum data exchange during FFTs selected (reduces bandwidth)


 total amount of memory used by VASP MPI-rank0   397041. kBytes
=======================================================================

   base                                    :      30000. kBytes
   nonl-proj                               :      87729. kBytes
   fftplans                                :     114278. kBytes
   grid                                    :      88184. kBytes
   one-center                              :         24. kBytes
   wavefun                                 :      76826. kBytes

     INWAV:  cpu time     22.3333: real time     22.3479
 Broyden mixing: mesh for mixing (old mesh)
   NGX = 83   NGY = 83   NGZ =163
  (NGX  =336   NGY  =336   NGZ  =672)
  gives a total of ****** points

 initial charge density was supplied:
 number of electron     406.9999999 magnetization 
 keeping initial charge density in first step


--------------------------------------------------------------------------------------------------------


 Maximum index for augmentation-charges        11535 (set IRDMAX)


--------------------------------------------------------------------------------------------------------


 First call to EWALD:  gamma=   0.097
 Maximum number of real-space cells   3x   3x   2
 Maximum number of reciprocal cells   2x   2x   4

    FEWALD:  cpu time      0.0160: real time      0.0161


--------------------------------------- Ionic step        1  -------------------------------------------




--------------------------------------- Iteration      1(   1)  ---------------------------------------


    POTLOK:  cpu time      2.3078: real time      2.3095
    SETDIJ:  cpu time      1.9190: real time      1.9205
    EDDIAG:  cpu time     46.5120: real time     46.5356
     EDDAV:  cpu time    220.8195: real time    220.9414
       DOS:  cpu time      0.0089: real time      0.0092
    CHARGE:  cpu time     26.8643: real time     26.8904
    MIXING:  cpu time      0.0535: real time      0.0537
    --------------------------------------------
      LOOP:  cpu time    298.4852: real time    298.6604

 eigenvalue-minimisations  :  2112
 total energy-change (2. order) :-0.1029755E+04  (-0.1126060E+01)
 number of electron     406.9999999 magnetization 
 augmentation part      -21.6233411 magnetization 

 Broyden mixing:
  rms(total) = 0.12141E+01    rms(broyden)= 0.12141E+01
  rms(prec ) = 0.12165E+01
  weight for this iteration     100.00

 Free energy of the ion-electron system (eV)
  ---------------------------------------------------
  alpha Z        PSCENC =        57.14825066
  Ewald energy   TEWEN  =     68755.95754513
  -Hartree energ DENC   =    -77774.42640558
  -exchange      EXHF   =         0.00000000
  -V(xc)+E(xc)   XCENC  =      -401.06110931
  PAW double counting   =     38115.22229312   -37159.21981758
  entropy T*S    EENTRO =        -0.21140527
  eigenvalues    EBANDS =     -2804.81325010
  atomic energy  EATOM  =     10181.64856256
  Solvation  Ediel_sol  =         0.00000000
  ---------------------------------------------------
  free energy    TOTEN  =     -1029.75533637 eV

  energy without entropy =    -1029.54393110  energy(sigma->0) =    -1029.64963373


--------------------------------------------------------------------------------------------------------




--------------------------------------- Iteration      1(   2)  ---------------------------------------


    POTLOK:  cpu time      2.2636: real time      2.2801
    SETDIJ:  cpu time      1.9144: real time      1.9155
    EDDIAG:  cpu time     46.4003: real time     46.4292
     EDDAV:  cpu time    222.2566: real time    222.3818
       DOS:  cpu time      0.0038: real time      0.0038
    CHARGE:  cpu time     26.7841: real time     26.8091
    MIXING:  cpu time      0.0451: real time      0.0454
    --------------------------------------------
      LOOP:  cpu time    299.6677: real time    299.8649

 eigenvalue-minimisations  :  2144
 total energy-change (2. order) : 0.7262450E+02  (-0.1157341E+01)
 number of electron     406.9999999 magnetization 
 augmentation part      -21.5704304 magnetization 

 Broyden mixing:
  rms(total) = 0.83862E+00    rms(broyden)= 0.83862E+00
  rms(prec ) = 0.84529E+00
  weight for this iteration     100.00

 eigenvalues of (default mixing * dielectric matrix)
  average eigenvalue GAMMA=   2.2504
  2.2504

 Free energy of the ion-electron system (eV)
  ---------------------------------------------------
  alpha Z        PSCENC =        57.14825066
  Ewald energy   TEWEN  =     68755.95754513
  -Hartree energ DENC   =    -77758.77735961
  -exchange      EXHF   =         0.00000000
  -V(xc)+E(xc)   XCENC  =      -391.37905896
  PAW double counting   =     45278.67745459   -44322.42866113
  entropy T*S    EENTRO =        -0.19476651
  eigenvalues    EBANDS =     -2757.78280130
  atomic energy  EATOM  =     10181.64856256
  Solvation  Ediel_sol  =         0.00000000
  ---------------------------------------------------
  free energy    TOTEN  =      -957.13083458 eV

  energy without entropy =     -956.93606807  energy(sigma->0) =     -957.03345132


--------------------------------------------------------------------------------------------------------




--------------------------------------- Iteration      1(   3)  ---------------------------------------


    POTLOK:  cpu time      2.2481: real time      2.2672
    SETDIJ:  cpu time      1.9120: real time      1.9133
    EDDIAG:  cpu time     46.4463: real time     46.4751
     EDDAV:  cpu time    225.9257: real time    226.0528
       DOS:  cpu time      0.0024: real time      0.0024
    CHARGE:  cpu time     26.7485: real time     26.7726
    MIXING:  cpu time      0.0424: real time      0.0433
    --------------------------------------------
      LOOP:  cpu time    303.3255: real time    303.5267

 eigenvalue-minimisations  :  2200
 total energy-change (2. order) :-0.3268371E+01  (-0.1092183E+01)
 number of electron     406.9999999 magnetization 
 augmentation part      -21.4560863 magnetization 

 Broyden mixing:
  rms(total) = 0.40869E+00    rms(broyden)= 0.40869E+00
  rms(prec ) = 0.46298E+00
  weight for this iteration     100.00

 eigenvalues of (default mixing * dielectric matrix)
  average eigenvalue GAMMA=   1.6352
  2.7039  0.5666

 Free energy of the ion-electron system (eV)
  ---------------------------------------------------
  alpha Z        PSCENC =        57.14825066
  Ewald energy   TEWEN  =     68755.95754513
  -Hartree energ DENC   =    -77764.11022115
  -exchange      EXHF   =         0.00000000
  -V(xc)+E(xc)   XCENC  =      -394.77175647
  PAW double counting   =     56191.84728707   -55235.87159535
  entropy T*S    EENTRO =        -0.18055881
  eigenvalues    EBANDS =     -2752.06671880
  atomic energy  EATOM  =     10181.64856256
  Solvation  Ediel_sol  =         0.00000000
  ---------------------------------------------------
  free energy    TOTEN  =      -960.39920519 eV

  energy without entropy =     -960.21864637  energy(sigma->0) =     -960.30892578


--------------------------------------------------------------------------------------------------------




--------------------------------------- Iteration      1(   4)  ---------------------------------------


    POTLOK:  cpu time      2.2581: real time      2.2767
    SETDIJ:  cpu time      1.9193: real time      1.9204
    EDDIAG:  cpu time     46.4571: real time     46.4838
     EDDAV:  cpu time    228.6032: real time    228.7336
       DOS:  cpu time      0.0022: real time      0.0022
    CHARGE:  cpu time     26.7314: real time     26.7565
    MIXING:  cpu time      0.0431: real time      0.0433
    --------------------------------------------
      LOOP:  cpu time    306.0143: real time    306.2165

 eigenvalue-minimisations  :  2256
 total energy-change (2. order) : 0.1504822E+00  (-0.1274629E+00)
 number of electron     406.9999999 magnetization 
 augmentation part      -21.4596417 magnetization 

 Broyden mixing:
  rms(total) = 0.30196E+00    rms(broyden)= 0.30196E+00
  rms(prec ) = 0.34100E+00
  weight for this iteration     100.00

 eigenvalues of (default mixing * dielectric matrix)
  average eigenvalue GAMMA=   1.3767
  2.6740  0.7280  0.7280

 Free energy of the ion-electron system (eV)
  ---------------------------------------------------
  alpha Z        PSCENC =        57.14825066
  Ewald energy   TEWEN  =     68755.95754513
  -Hartree energ DENC   =    -77762.87271419
  -exchange      EXHF   =         0.00000000
  -V(xc)+E(xc)   XCENC  =      -396.15487915
  PAW double counting   =     60159.22168277   -59203.26301962
  entropy T*S    EENTRO =        -0.20626200
  eigenvalues    EBANDS =     -2751.72788914
  atomic energy  EATOM  =     10181.64856256
  Solvation  Ediel_sol  =         0.00000000
  ---------------------------------------------------
  free energy    TOTEN  =      -960.24872298 eV

  energy without entropy =     -960.04246098  energy(sigma->0) =     -960.14559198


--------------------------------------------------------------------------------------------------------




--------------------------------------- Iteration      1(   5)  ---------------------------------------


    POTLOK:  cpu time      2.2601: real time      2.2795
    SETDIJ:  cpu time      1.9092: real time      1.9104
    EDDIAG:  cpu time     46.4501: real time     46.4777
     EDDAV:  cpu time    240.0857: real time    240.2229
       DOS:  cpu time      0.0024: real time      0.0024
    CHARGE:  cpu time     26.7347: real time     26.7595
    MIXING:  cpu time      0.0438: real time      0.0438
    --------------------------------------------
      LOOP:  cpu time    317.4861: real time    317.6963

 eigenvalue-minimisations  :  2448
 total energy-change (2. order) : 0.2536180E+00  (-0.3368164E-01)
 number of electron     406.9999999 magnetization 
 augmentation part      -21.4925732 magnetization 

 Broyden mixing:
  rms(total) = 0.11397E+00    rms(broyden)= 0.11397E+00
  rms(prec ) = 0.15986E+00
  weight for this iteration     100.00

 eigenvalues of (default mixing * dielectric matrix)
  average eigenvalue GAMMA=   1.1557
  2.5604  1.0781  0.4922  0.4922

 Free energy of the ion-electron system (eV)
  ---------------------------------------------------
  alpha Z        PSCENC =        57.14825066
  Ewald energy   TEWEN  =     68755.95754513
  -Hartree energ DENC   =    -77761.14470877
  -exchange      EXHF   =         0.00000000
  -V(xc)+E(xc)   XCENC  =      -397.16899807
  PAW double counting   =     60040.96389173   -59084.98003606
  entropy T*S    EENTRO =        -0.20124149
  eigenvalues    EBANDS =     -2752.21837062
  atomic energy  EATOM  =     10181.64856256
  Solvation  Ediel_sol  =         0.00000000
  ---------------------------------------------------
  free energy    TOTEN  =      -959.99510494 eV

  energy without entropy =     -959.79386345  energy(sigma->0) =     -959.89448419


--------------------------------------------------------------------------------------------------------




--------------------------------------- Iteration      1(   6)  ---------------------------------------


    POTLOK:  cpu time      2.2678: real time      2.2889
    SETDIJ:  cpu time      1.9113: real time      1.9125
    EDDIAG:  cpu time     46.4494: real time     46.4772
     EDDAV:  cpu time    238.0733: real time    238.2136
       DOS:  cpu time      0.0021: real time      0.0021
    CHARGE:  cpu time     26.7327: real time     26.7586
    MIXING:  cpu time      0.0444: real time      0.0445
    --------------------------------------------
      LOOP:  cpu time    315.4808: real time    315.6972

 eigenvalue-minimisations  :  2408
 total energy-change (2. order) :-0.1380205E+00  (-0.2885905E-01)
 number of electron     406.9999999 magnetization 
 augmentation part      -21.4783388 magnetization 

 Broyden mixing:
  rms(total) = 0.10537E+00    rms(broyden)= 0.10537E+00
  rms(prec ) = 0.13808E+00
  weight for this iteration     100.00

 eigenvalues of (default mixing * dielectric matrix)
  average eigenvalue GAMMA=   1.0432
  2.5416  1.2326  0.5773  0.5773  0.2873

 Free energy of the ion-electron system (eV)
  ---------------------------------------------------
  alpha Z        PSCENC =        57.14825066
  Ewald energy   TEWEN  =     68755.95754513
  -Hartree energ DENC   =    -77761.11860211
  -exchange      EXHF   =         0.00000000
  -V(xc)+E(xc)   XCENC  =      -397.32968565
  PAW double counting   =     59702.40600910   -58746.39566814
  entropy T*S    EENTRO =        -0.20205429
  eigenvalues    EBANDS =     -2752.24748274
  atomic energy  EATOM  =     10181.64856256
  Solvation  Ediel_sol  =         0.00000000
  ---------------------------------------------------
  free energy    TOTEN  =      -960.13312548 eV

  energy without entropy =     -959.93107119  energy(sigma->0) =     -960.03209834


--------------------------------------------------------------------------------------------------------




--------------------------------------- Iteration      1(   7)  ---------------------------------------


    POTLOK:  cpu time      2.2632: real time      2.2798
    SETDIJ:  cpu time      1.9205: real time      1.9220
    EDDIAG:  cpu time     46.4238: real time     46.4545
     EDDAV:  cpu time    229.6786: real time    229.8055
       DOS:  cpu time      0.0133: real time      0.0139
    CHARGE:  cpu time     26.7395: real time     26.7627
    MIXING:  cpu time      0.0603: real time      0.0606
    --------------------------------------------
      LOOP:  cpu time    307.0996: real time    307.2992

 eigenvalue-minimisations  :  2280
 total energy-change (2. order) : 0.5283333E-02  (-0.1162842E-01)
 number of electron     406.9999999 magnetization 
 augmentation part      -21.4869656 magnetization 

 Broyden mixing:
  rms(total) = 0.34688E-01    rms(broyden)= 0.34688E-01
  rms(prec ) = 0.37146E-01
  weight for this iteration     100.00

 eigenvalues of (default mixing * dielectric matrix)
  average eigenvalue GAMMA=   1.1142
  2.4975  1.8173  0.7798  0.7798  0.5322  0.2786

 Free energy of the ion-electron system (eV)
  ---------------------------------------------------
  alpha Z        PSCENC =        57.14825066
  Ewald energy   TEWEN  =     68755.95754513
  -Hartree energ DENC   =    -77760.88974864
  -exchange      EXHF   =         0.00000000
  -V(xc)+E(xc)   XCENC  =      -397.34583054
  PAW double counting   =     59651.56112218   -58695.53836231
  entropy T*S    EENTRO =        -0.19881904
  eigenvalues    EBANDS =     -2752.47056215
  atomic energy  EATOM  =     10181.64856256
  Solvation  Ediel_sol  =         0.00000000
  ---------------------------------------------------
  free energy    TOTEN  =      -960.12784215 eV

  energy without entropy =     -959.92902311  energy(sigma->0) =     -960.02843263


--------------------------------------------------------------------------------------------------------




--------------------------------------- Iteration      1(   8)  ---------------------------------------


    POTLOK:  cpu time      2.2782: real time      2.2812
    SETDIJ:  cpu time      1.9253: real time      1.9272
    EDDIAG:  cpu time     46.5024: real time     46.5290
     EDDAV:  cpu time    223.8440: real time    223.9746
       DOS:  cpu time      0.0021: real time      0.0021
    CHARGE:  cpu time     26.7386: real time     26.7627
    MIXING:  cpu time      0.0459: real time      0.0459
    --------------------------------------------
      LOOP:  cpu time    301.3361: real time    301.5223

 eigenvalue-minimisations  :  2176
 total energy-change (2. order) : 0.2087463E-03  (-0.3743886E-02)
 number of electron     406.9999999 magnetization 
 augmentation part      -21.4834786 magnetization 

 Broyden mixing:
  rms(total) = 0.19498E-01    rms(broyden)= 0.19498E-01
  rms(prec ) = 0.21438E-01
  weight for this iteration     100.00

 eigenvalues of (default mixing * dielectric matrix)
  average eigenvalue GAMMA=   1.1694
  2.5033  2.5033  0.9268  0.7444  0.6144  0.6144  0.2791

 Free energy of the ion-electron system (eV)
  ---------------------------------------------------
  alpha Z        PSCENC =        57.14825066
  Ewald energy   TEWEN  =     68755.95754513
  -Hartree energ DENC   =    -77759.78448120
  -exchange      EXHF   =         0.00000000
  -V(xc)+E(xc)   XCENC  =      -397.13532378
  PAW double counting   =     59647.04841298   -58691.00974654
  entropy T*S    EENTRO =        -0.19915317
  eigenvalues    EBANDS =     -2753.80170003
  atomic energy  EATOM  =     10181.64856256
  Solvation  Ediel_sol  =         0.00000000
  ---------------------------------------------------
  free energy    TOTEN  =      -960.12763340 eV

  energy without entropy =     -959.92848023  energy(sigma->0) =     -960.02805681


--------------------------------------------------------------------------------------------------------




--------------------------------------- Iteration      1(   9)  ---------------------------------------


    POTLOK:  cpu time      2.2662: real time      2.2811
    SETDIJ:  cpu time      1.9186: real time      1.9198
    EDDIAG:  cpu time     46.4492: real time     46.4760
     EDDAV:  cpu time    237.1073: real time    237.2430
       DOS:  cpu time      0.0055: real time      0.0055
    CHARGE:  cpu time     26.7445: real time     26.7693
    MIXING:  cpu time      0.0466: real time      0.0466
    --------------------------------------------
      LOOP:  cpu time    314.5379: real time    314.7412

 eigenvalue-minimisations  :  2400
 total energy-change (2. order) :-0.1212297E-02  (-0.5764360E-03)
 number of electron     406.9999999 magnetization 
 augmentation part      -21.4821825 magnetization 

 Broyden mixing:
  rms(total) = 0.73030E-02    rms(broyden)= 0.73030E-02
  rms(prec ) = 0.82841E-02
  weight for this iteration     100.00

 eigenvalues of (default mixing * dielectric matrix)
  average eigenvalue GAMMA=   1.1624
  2.6192  2.6192  1.0473  0.7665  0.7665  0.6009  0.6009  0.2790

 Free energy of the ion-electron system (eV)
  ---------------------------------------------------
  alpha Z        PSCENC =        57.14825066
  Ewald energy   TEWEN  =     68755.95754513
  -Hartree energ DENC   =    -77758.88165552
  -exchange      EXHF   =         0.00000000
  -V(xc)+E(xc)   XCENC  =      -397.00812840
  PAW double counting   =     59669.89741244   -58713.84539078
  entropy T*S    EENTRO =        -0.19921585
  eigenvalues    EBANDS =     -2754.84622593
  atomic energy  EATOM  =     10181.64856256
  Solvation  Ediel_sol  =         0.00000000
  ---------------------------------------------------
  free energy    TOTEN  =      -960.12884570 eV

  energy without entropy =     -959.92962985  energy(sigma->0) =     -960.02923777


--------------------------------------------------------------------------------------------------------




--------------------------------------- Iteration      1(  10)  ---------------------------------------


    POTLOK:  cpu time      2.2782: real time      2.2797
    SETDIJ:  cpu time      1.9139: real time      1.9151
    EDDIAG:  cpu time     46.4745: real time     46.5013
     EDDAV:  cpu time    233.5730: real time    233.7093
       DOS:  cpu time      0.0022: real time      0.0022
    CHARGE:  cpu time     26.7607: real time     26.7877
    MIXING:  cpu time      0.0474: real time      0.0474
    --------------------------------------------
      LOOP:  cpu time    311.0500: real time    311.2427

 eigenvalue-minimisations  :  2336
 total energy-change (2. order) :-0.1797237E-03  (-0.1483007E-03)
 number of electron     406.9999999 magnetization 
 augmentation part      -21.4819014 magnetization 

 Broyden mixing:
  rms(total) = 0.37823E-02    rms(broyden)= 0.37823E-02
  rms(prec ) = 0.44714E-02
  weight for this iteration     100.00

 eigenvalues of (default mixing * dielectric matrix)
  average eigenvalue GAMMA=   1.1568
  2.6089  2.6089  1.3459  0.9935  0.2788  0.7278  0.7278  0.5599  0.5599

 Free energy of the ion-electron system (eV)
  ---------------------------------------------------
  alpha Z        PSCENC =        57.14825066
  Ewald energy   TEWEN  =     68755.95754513
  -Hartree energ DENC   =    -77758.45606623
  -exchange      EXHF   =         0.00000000
  -V(xc)+E(xc)   XCENC  =      -396.97724597
  PAW double counting   =     59675.75510071   -58719.69644577
  entropy T*S    EENTRO =        -0.19925142
  eigenvalues    EBANDS =     -2755.30947508
  atomic energy  EATOM  =     10181.64856256
  Solvation  Ediel_sol  =         0.00000000
  ---------------------------------------------------
  free energy    TOTEN  =      -960.12902542 eV

  energy without entropy =     -959.92977400  energy(sigma->0) =     -960.02939971


--------------------------------------------------------------------------------------------------------




--------------------------------------- Iteration      1(  11)  ---------------------------------------


    POTLOK:  cpu time      2.2583: real time      2.2754
    SETDIJ:  cpu time      1.9131: real time      1.9144
    EDDIAG:  cpu time     46.4935: real time     46.5228
     EDDAV:  cpu time    227.9365: real time    228.0661
       DOS:  cpu time      0.0022: real time      0.0022
    CHARGE:  cpu time     26.7691: real time     26.7951
    MIXING:  cpu time      0.0487: real time      0.0488
    --------------------------------------------
      LOOP:  cpu time    305.4214: real time    305.6246

 eigenvalue-minimisations  :  2240
 total energy-change (2. order) :-0.1216847E-04  (-0.6116556E-04)
 number of electron     406.9999999 magnetization 
 augmentation part      -21.4821080 magnetization 

 Broyden mixing:
  rms(total) = 0.21621E-02    rms(broyden)= 0.21621E-02
  rms(prec ) = 0.25193E-02
  weight for this iteration     100.00

 eigenvalues of (default mixing * dielectric matrix)
  average eigenvalue GAMMA=   1.2131
  2.7780  2.7780  1.8773  1.0171  0.2789  0.8299  0.7061  0.7061  0.5798  0.5798

 Free energy of the ion-electron system (eV)
  ---------------------------------------------------
  alpha Z        PSCENC =        57.14825066
  Ewald energy   TEWEN  =     68755.95754513
  -Hartree energ DENC   =    -77758.18009324
  -exchange      EXHF   =         0.00000000
  -V(xc)+E(xc)   XCENC  =      -397.00317997
  PAW double counting   =     59670.67541267   -58714.61501471
  entropy T*S    EENTRO =        -0.19924367
  eigenvalues    EBANDS =     -2755.56127702
  atomic energy  EATOM  =     10181.64856256
  Solvation  Ediel_sol  =         0.00000000
  ---------------------------------------------------
  free energy    TOTEN  =      -960.12903759 eV

  energy without entropy =     -959.92979392  energy(sigma->0) =     -960.02941576


--------------------------------------------------------------------------------------------------------




--------------------------------------- Iteration      1(  12)  ---------------------------------------


    POTLOK:  cpu time      2.2913: real time      2.2927
    SETDIJ:  cpu time      1.9131: real time      1.9144
    EDDIAG:  cpu time     46.5021: real time     46.5281
     EDDAV:  cpu time    225.9064: real time    226.0354
       DOS:  cpu time      0.0024: real time      0.0024
    CHARGE:  cpu time     26.7363: real time     26.7623
    MIXING:  cpu time      0.0492: real time      0.0492
    --------------------------------------------
      LOOP:  cpu time    303.4007: real time    303.5843

 eigenvalue-minimisations  :  2208
 total energy-change (2. order) :-0.1722990E-03  (-0.3468084E-04)
 number of electron     406.9999999 magnetization 
 augmentation part      -21.4823096 magnetization 

 Broyden mixing:
  rms(total) = 0.10330E-02    rms(broyden)= 0.10330E-02
  rms(prec ) = 0.14295E-02
  weight for this iteration     100.00

 eigenvalues of (default mixing * dielectric matrix)
  average eigenvalue GAMMA=   1.2114
  2.8391  2.8391  2.0981  1.0455  0.9026  0.9026  0.2789  0.6618  0.6618  0.5481
  0.5481

 Free energy of the ion-electron system (eV)
  ---------------------------------------------------
  alpha Z        PSCENC =        57.14825066
  Ewald energy   TEWEN  =     68755.95754513
  -Hartree energ DENC   =    -77757.66156590
  -exchange      EXHF   =         0.00000000
  -V(xc)+E(xc)   XCENC  =      -397.01072160
  PAW double counting   =     59664.50567917   -58708.44339447
  entropy T*S    EENTRO =        -0.19924118
  eigenvalues    EBANDS =     -2756.07432426
  atomic energy  EATOM  =     10181.64856256
  Solvation  Ediel_sol  =         0.00000000
  ---------------------------------------------------
  free energy    TOTEN  =      -960.12920989 eV

  energy without entropy =     -959.92996871  energy(sigma->0) =     -960.02958930


--------------------------------------------------------------------------------------------------------




--------------------------------------- Iteration      1(  13)  ---------------------------------------


    POTLOK:  cpu time      2.2657: real time      2.2853
    SETDIJ:  cpu time      1.9178: real time      1.9192
    EDDIAG:  cpu time     46.5142: real time     46.5418
     EDDAV:  cpu time    224.1753: real time    224.3054
       DOS:  cpu time      0.0080: real time      0.0083
    CHARGE:  cpu time     26.7383: real time     26.7788
    MIXING:  cpu time      0.0647: real time      0.0652
    --------------------------------------------
      LOOP:  cpu time    301.6839: real time    301.9041

 eigenvalue-minimisations  :  2184
 total energy-change (2. order) :-0.1255457E-03  (-0.1534463E-04)
 number of electron     406.9999999 magnetization 
 augmentation part      -21.4823445 magnetization 

 Broyden mixing:
  rms(total) = 0.11096E-02    rms(broyden)= 0.11096E-02
  rms(prec ) = 0.13889E-02
  weight for this iteration     100.00

 eigenvalues of (default mixing * dielectric matrix)
  average eigenvalue GAMMA=   1.2032
  2.9019  2.9019  2.1574  1.2940  0.9139  0.9139  0.2789  0.6668  0.6668  0.6531
  0.5450  0.5450

 Free energy of the ion-electron system (eV)
  ---------------------------------------------------
  alpha Z        PSCENC =        57.14825066
  Ewald energy   TEWEN  =     68755.95754513
  -Hartree energ DENC   =    -77757.36301329
  -exchange      EXHF   =         0.00000000
  -V(xc)+E(xc)   XCENC  =      -397.01975723
  PAW double counting   =     59663.83818834   -58707.77576775
  entropy T*S    EENTRO =        -0.19918480
  eigenvalues    EBANDS =     -2756.36415906
  atomic energy  EATOM  =     10181.64856256
  Solvation  Ediel_sol  =         0.00000000
  ---------------------------------------------------
  free energy    TOTEN  =      -960.12933543 eV

  energy without entropy =     -959.93015064  energy(sigma->0) =     -960.02974303


--------------------------------------------------------------------------------------------------------




[...]
   -.148E+02 -.746E+01 0.192E+03   0.162E+02 0.581E+01 -.189E+03   -.160E+01 0.317E+01 -.287E+01   0.469E-04 0.219E-04 -.224E-04
   0.328E+02 0.381E+00 0.375E+03   -.322E+02 -.304E+01 -.373E+03   -.137E+01 0.484E+01 -.181E+01   -.178E-05 0.215E-04 -.265E-04
   0.238E+01 -.842E+01 0.389E+03   -.921E+00 0.739E+01 -.386E+03   -.171E+01 -.144E+00 -.325E+01   -.731E-04 -.302E-04 -.182E-04
   0.154E+01 -.110E+02 -.174E+03   -.463E+01 0.114E+02 0.173E+03   0.402E+01 -.430E+00 0.156E+01   0.575E-04 0.360E-05 0.185E-04
   0.946E+01 0.373E+02 -.217E+03   -.929E+01 -.367E+02 0.219E+03   -.852E+00 -.658E+00 -.120E+01   0.122E-04 0.446E-04 -.261E-04
   0.223E+02 -.199E+02 -.402E+03   -.235E+02 0.190E+02 0.401E+03   0.113E+01 0.963E+00 0.862E+00   0.522E-04 -.187E-04 0.125E-04
   -.119E+02 0.983E+01 0.273E+02   0.128E+02 -.101E+02 -.261E+02   -.331E-01 0.329E-01 -.110E+01   0.539E-04 0.871E-06 0.319E-04
   -.231E+02 -.352E+02 -.350E+03   0.232E+02 0.349E+02 0.349E+03   -.879E+00 0.644E+00 0.141E+01   -.522E-04 -.337E-04 0.135E-04
   0.717E+01 0.139E+02 0.419E+02   -.626E+01 -.143E+02 -.422E+02   -.147E+01 0.628E+00 0.175E+00   -.378E-04 0.104E-04 -.371E-04
   -.378E+02 -.139E+01 -.887E+02   0.363E+02 0.233E+01 0.883E+02   0.949E+00 -.147E+01 0.725E+00   0.302E-05 -.366E-05 0.623E-04
   0.216E+02 0.237E+02 0.198E+03   -.222E+02 -.221E+02 -.199E+03   0.153E+00 -.125E+00 0.931E+00   -.643E-04 0.302E-04 -.577E-04
   -.303E+00 -.244E+01 -.404E+03   0.687E+00 0.385E+01 0.401E+03   -.101E+01 -.860E+00 0.290E+01   0.997E-06 -.103E-04 0.266E-04
   0.150E+02 -.197E+02 0.384E+03   -.136E+02 0.176E+02 -.384E+03   -.164E+01 0.210E+01 -.417E+00   -.189E-04 -.399E-04 -.137E-04
   0.110E+01 0.226E+02 -.331E+03   -.320E+01 -.228E+02 0.328E+03   0.304E+01 -.133E+00 0.415E+01   -.544E-04 0.844E-05 0.182E-04
   0.349E+01 0.340E+02 0.363E+03   -.330E+01 -.333E+02 -.364E+03   -.162E+00 -.105E+01 0.334E+00   -.304E-04 0.197E-04 -.175E-04
   0.492E+01 -.721E+01 -.298E+03   -.437E+01 0.485E+01 0.297E+03   -.179E+01 0.278E+01 0.129E+01   0.301E-04 0.298E-04 0.476E-04
 -----------------------------------------------------------------------------------------------
   -.520E+01 0.396E+01 0.353E+02   -.409E-13 -.100E-12 -.568E-13   0.521E+01 -.398E+01 -.353E+02   -.578E-05 0.287E-05 -.678E-03


 POSITION                                       TOTAL-FORCE (eV/Angst)
 -----------------------------------------------------------------------------------
      3.67993      5.25015     17.63974        -1.470453      0.659243     -0.136360
      5.05662      6.03880     13.64637        -0.149567      0.302526      0.234318
      2.43574      3.59545     15.41667        -0.639501     -0.372077      0.371627
      6.65130      8.38844     17.09603        -0.143192      0.221394      0.539848
      2.71185      4.44105     13.10184         0.466472      0.119605     -0.188587
      3.03261      6.82741     12.35231        -0.266709     -0.057619      0.467793
      1.85341      4.27597     18.81239        -0.072417     -0.102883      0.070136
      5.53709      5.19278     17.95275        -1.182044      0.138504      1.952909
      1.45588      6.97909     17.12135        -0.020586      0.072288      0.058219
      7.01037     11.12340     10.25888        -0.175930     -0.002312      0.211213
      4.28287      4.90333     14.71865        -0.666817      0.178708     -0.381894
      6.44437      7.56376     18.77626         0.669511      0.222790     -0.070301
      0.92972      6.14923     13.45921         0.741623      0.437782     -0.080146
      2.95390      5.57200     17.58178         1.485123     -0.618493      0.052985
      2.02692      5.77799     15.17475        -0.407646      0.237674     -0.009477
      0.84273      8.55039     13.96704        -0.123678     -0.261265      1.376374
      1.04678      6.42678     10.91681         0.493042      0.213724     -0.150296
      2.90087      4.86768     11.12810        -0.873542     -0.108846      0.078617
      2.99609      7.79414     14.77114        -0.199170     -0.336597     -0.434120
      2.07658      4.21901     13.39774        -0.112404     -0.140622      0.181820
      0.14135      8.87262     17.15627        -0.508188     -0.675697      0.178117
      2.73831      5.64502     15.26813         0.398810     -0.004767      0.075019
      3.69176      7.69315     18.54381        -0.236429     -0.873627      0.520287
      6.01979     13.85330     18.40712         0.046069      0.151632     -0.718067
     12.34340     13.19060     18.93956         1.110166      1.531417      1.824659
     12.23370      2.76532     12.40875         0.482111     -1.081145      0.967582
      7.47453      0.87065     14.67119        -0.310972      0.751361      0.184611
      0.71548     13.14980     17.90714         0.318953     -1.423388      0.228231
      9.29274      9.83398     11.73950        -0.263934     -0.248411     -0.804275
      6.02385      6.52547     12.63452         0.719684     -0.396367     -1.547485
      6.25986      1.01789     16.80381         0.700539     -0.521548      0.785094
     14.46740      0.07502     11.55875        -1.045367     -0.493292     -0.418797
      6.42713      2.94706     13.77554        -0.003824      0.050675     -1.215525
      9.64592      7.37337     15.86933         0.759722      0.090671      0.090606
      9.71113      8.08573     18.10558        -0.062630      0.573672      0.034028
      7.25862      8.70808     12.45097         0.163053     -1.641278      0.044540
      7.60240      4.66723     12.56268         0.114098     -0.453190      0.032225
      5.76916     12.06390     15.85697         0.086421     -0.317306      0.321907
     13.93290     12.69390     12.67399         0.884191     -0.404808     -0.561093
     10.52270      2.64447     14.08882         0.352377     -0.475626     -2.070878
      3.21571      1.47046     18.19503         1.975831     -1.237069     -0.847198
     11.50430     10.09130     12.35948        -0.210782      1.013282      0.637944
      3.76053     14.29770     10.74002        -0.481478     -2.049980     -0.480458
      6.25036      7.48335     16.00999        -0.796313      0.465077     -0.413748
      4.97946      2.82074     11.75829         0.633449      0.144589      0.221150
      8.82398     11.65850     13.12581         0.212128      0.375254      0.407383
      5.99614     13.69500     10.81311        -0.151709      0.489752      0.266919
     12.58220      6.96966     13.39911         0.344939     -0.699771      0.971669
      3.42553      1.29196     12.36053        -0.900507      0.626613     -2.078631
      2.65907     12.06030     10.96860         0.853040      0.696151      0.757835
      1.16427      2.93274     15.99073         1.019337     -0.030324     -0.405503
     12.49350     11.84370     11.10134         0.152776     -1.258820     -0.147277
      0.24994      6.24051     17.61099        -0.346446     -0.729901     -0.213099
     12.74600      7.67581     10.00000        -0.797392     -1.443287     -2.094797
     11.20310      6.37800     18.89927         0.606411      0.181135     -0.499779
      7.91148      8.31525     14.59619         0.329999      0.294412      0.828267
      0.84241      1.03155     14.66347        -1.692168     -0.413829      1.098659
      4.26869      1.94826     16.07396         0.258724      0.916328      1.109816
     10.15780      0.85537     17.40412        -0.591091     -0.513313      1.411460
      2.33267     13.86130     14.98940         0.216513      0.018540      0.387650
      8.16573      1.94111     17.67753        -0.037601      0.825420     -0.297680
      4.10482      0.53850     14.24758         0.665339     -1.254817      1.620333
     12.83450     11.55450     15.91948         0.161701     -1.311224     -0.596761
     11.21660     10.05660     14.84954         0.871740      0.848569     -0.361673
     13.16010      0.47273     15.53573         0.837238      1.334353     -0.748045
     12.39990      0.92357     11.10530        -0.023095     -1.750941     -0.248907
     14.28190      5.40303     13.65451        -0.577034     -0.404003      1.011700
     10.51750     10.31190     18.58004        -0.603769     -0.782603      0.268268
     12.01080      4.04832     16.74565         0.250025      0.644879     -0.362283
      8.87547     10.45540     15.15682         0.204848     -0.493039     -0.114661
      9.12364      7.18177     11.44857        -0.056440      0.631989     -0.404953
     13.10180      8.57246     11.90585         0.898744      0.518118      1.309095
      7.84586     12.41410     18.98428         0.586182     -0.333793      0.141624
      6.69678     12.37840     12.66097        -0.575326     -0.741557     -1.333413
      4.50711     10.44230     18.93763         0.281536      0.401174     -0.083935
      2.71433     13.91530     17.28172         0.180558      0.929854      0.622153
      1.28123     11.17810     12.66176        -0.580408      0.520564     -0.470580
     10.44740     13.37110     13.46095        -0.797874     -0.936895     -0.667253
      8.22386      4.15519     17.36212        -0.018358     -0.087864      0.214758
     11.21740     12.18870     17.41516        -1.491732     -0.547934     -1.727749
     11.27790      4.26994     11.17400        -0.228398      1.713854     -1.820553
      4.05025      8.41057     15.55225         0.921924     -0.935948      0.901977
      6.29424      5.29094     16.79944         1.758573      0.638619     -0.206574
      9.50285     13.59430     16.21158         0.605111     -0.606996     -0.093427
      4.37505     12.42550     17.68934         0.274919     -0.478513      0.711691
      1.99280      7.45973     11.51648         1.281695     -0.612142     -1.256723
      3.37734      8.81730     17.70475        -0.907380      1.181900      0.296357
      8.56222      1.36123     11.28122         1.270632      0.288003      0.368253
      4.10820      4.48491     10.41011         0.524143     -0.357216      0.218346
     11.39410      1.98152     15.93127         1.809929     -0.258621      1.203155
     10.74600      5.91027     12.68989        -0.451435      0.921958     -0.652117
      0.65334     11.42580     16.37730        -0.905370      0.155665     -0.383864
     14.22510      4.63644     15.94467        -1.162071      0.987550     -0.133355
      2.29690     11.56640     14.69856        -0.499848      0.385834     -0.690616
     14.44000      3.46620     12.39352        -0.558983      0.496612      0.242973
      9.42217      0.78516     13.46433        -0.858916      0.185441     -0.640220
      4.33925     10.47280     14.82793         1.311166      1.066996     -1.297072
      5.18855      4.01488     15.40868        -0.528832     -1.750633     -0.845186
     12.87150      7.45368     17.54925        -0.916084     -0.184088      0.042045
     14.41250      3.88885     10.18188        -1.052723      0.341708     -0.748981
      9.44555      4.56995     13.96659        -0.664857      0.751721      0.030481
      1.17080      1.60979     12.48734         0.423496      0.677239      0.478599
      4.98670      6.55588     10.39490         0.134677      1.074246      0.030261
      0.71096      8.90698     12.59152        -0.262880      1.661781     -0.305041
     10.94440     13.41640     11.02274        -0.607936      2.458506      0.175168
      6.45372      1.41213     10.62286        -0.288406     -1.295895      0.115209
      9.85036      5.11466     16.17448         1.136965     -0.094034      0.641865
      7.97837     11.89300     16.73285        -0.737811     -0.085740      0.003626
     12.42520      3.50842     18.97159         0.092663      0.045525      0.114798
     12.45240     13.21070     14.42696         0.855464     -0.194228      0.118893
      1.55824      2.93025     18.27109        -0.748611      0.290451      0.638619
      5.99254     13.75370     14.31459        -0.634905      0.319225     -0.147221
     11.95910      7.98403     15.43062        -0.608153     -0.606419      0.349548
      5.49321     10.22530     12.60052        -0.373257      1.496580      0.295663
     14.19080      1.98043     18.95242        -0.712228      0.578739     -0.178231
      9.08142      3.60087     10.81782        -0.304876      0.113853      0.597118
      1.08451      9.79214     17.83657         1.061460     -0.417892      0.612826
      4.09028     10.24640     10.72945        -0.019564     -0.282526     -0.161903
     13.71170      0.09385     17.71554        -1.297797      0.531292      0.589851
 -----------------------------------------------------------------------------------
    total drift:                                0.006648     -0.026075     -0.002246


--------------------------------------------------------------------------------------------------------



  FREE ENERGIE OF THE ION-ELECTRON SYSTEM (eV)
  ---------------------------------------------------
  free  energy   TOTEN  =      -960.12984352 eV

  energy  without entropy=     -959.93064285  energy(sigma->0) =     -960.03024318



--------------------------------------------------------------------------------------------------------


    POTLOK:  cpu time      4.1630: real time      4.1660


--------------------------------------------------------------------------------------------------------


     LOOP+:  cpu time   7132.8313: real time   7137.6075
    4ORBIT:  cpu time      0.0000: real time      0.0000



 total charge

# of ion       s       p       d       tot
------------------------------------------
    1        0.581   0.027   0.000   0.608
    2        0.568   0.019   0.000   0.587
    3        0.548   0.016   0.000   0.563
    4        0.561   0.020   0.000   0.581
    5        0.618   0.035   0.000   0.653
    6        0.571   0.018   0.000   0.589
    7        0.562   0.017   0.000   0.579
    8        0.617   0.022   0.000   0.639
    9        0.563   0.017   0.000   0.580
   10        0.388   0.001   0.000   0.389
   11        0.591   0.020   0.000   0.611
   12        0.386   0.001   0.000   0.387
   13        0.593   0.020   0.000   0.612
   14        0.580   0.027   0.000   0.606
   15        0.630   0.037   0.000   0.667
   16        0.597   0.019   0.000   0.616
   17        0.548   0.015   0.000   0.562
   18        0.575   0.019   0.000   0.594
   19        0.577   0.018   0.000   0.595
   20        0.626   0.036   0.000   0.662
   21        0.564   0.019   0.000   0.583
   22        0.628   0.037   0.000   0.665
   23        0.589   0.018   0.000   0.608
   24        0.813   0.828   0.000   1.640
   25        0.868   0.789   0.000   1.657
   26        0.771   0.970   0.000   1.741
   27        0.764   0.906   0.000   1.670
   28        0.788   0.938   0.000   1.726
   29        0.792   0.843   0.000   1.634
   30        0.778   0.867   0.000   1.645
   31        0.773   0.903   0.000   1.676
   32        0.786   0.927   0.000   1.713
   33        0.764   0.887   0.000   1.652
   34        0.772   0.918   0.000   1.691
   35        0.810   0.794   0.000   1.604
   36        0.760   0.892   0.000   1.652
   37        0.757   0.876   0.000   1.633
   38        0.762   0.935   0.000   1.697
   39        0.769   0.920   0.000   1.689
   40        0.777   1.030   0.000   1.808
   41        0.801   0.878   0.000   1.680
   42        0.773   0.913   0.000   1.687
   43        0.807   0.830   0.000   1.637
   44        0.754   0.964   0.000   1.718
   45        0.771   0.918   0.000   1.689
   46        0.764   0.932   0.000   1.696
   47        0.791   0.832   0.000   1.623
   48        0.760   0.992   0.000   1.752
   49        0.765   1.030   0.000   1.796
   50        0.796   0.826   0.000   1.622
   51        0.754   0.970   0.000   1.724
   52        0.803   0.901   0.000   1.704
   53        0.789   0.889   0.000   1.679
   54        0.921   0.665   0.000   1.586
   55        0.871   0.699   0.000   1.570
   56        0.761   0.938   0.000   1.699
   57        0.759   0.939   0.000   1.698
   58        0.767   0.928   0.000   1.695
   59        0.786   0.916   0.000   1.701
   60        0.761   0.975   0.000   1.737
   61        0.783   0.910   0.000   1.693
   62        0.765   1.019   0.000   1.784
   63        0.762   0.929   0.000   1.691
   64        0.769   0.891   0.000   1.661
   65        0.760   0.957   0.000   1.717
   66        0.789   0.867   0.000   1.656
   67        0.754   0.980   0.000   1.734
   68        0.860   0.717   0.000   1.577
   69        0.758   0.903   0.000   1.661
   70        0.771   0.906   0.000   1.677
   71        0.874   0.682   0.000   1.556
   72        0.767   1.083   0.000   1.850
   73        0.861   0.725   0.000   1.587
   74        0.769   0.918   0.000   1.687
   75        0.871   0.730   0.000   1.601
   76        0.764   0.973   0.000   1.736
   77        0.754   0.930   0.000   1.683
   78        0.759   0.951   0.000   1.710
   79        0.776   0.943   0.000   1.719
   80        0.786   0.944   0.000   1.729
   81        0.786   0.921   0.000   1.708
   82        0.746   1.023   0.000   1.770
   83        0.749   1.069   0.000   1.817
   84        0.803   0.834   0.000   1.637
   85        0.767   0.979   0.000   1.745
   86        0.753   0.955   0.000   1.708
   87        0.751   0.979   0.000   1.730
   88        0.795   0.860   0.000   1.655
   89        0.791   0.940   0.000   1.730
   90        0.767   1.017   0.000   1.785
   91        0.768   0.984   0.000   1.752
   92        0.759   0.949   0.000   1.709
   93        0.757   0.923   0.000   1.681
   94        0.757   0.961   0.000   1.718
   95        0.758   1.013   0.000   1.771
   96        0.771   0.962   0.000   1.733
   97        0.758   0.950   0.000   1.708
   98        0.756   1.039   0.000   1.796
   99        0.786   0.836   0.000   1.622
  100        0.919   0.631   0.000   1.550
  101        0.772   0.988   0.000   1.760
  102        0.759   1.027   0.000   1.786
  103        0.870   0.729   0.000   1.599
  104        0.751   1.032   0.000   1.783
  105        0.818   0.806   0.000   1.624
  106        0.787   0.901   0.000   1.689
  107        0.762   0.955   0.000   1.717
  108        0.761   0.922   0.000   1.683
  109        0.845   0.740   0.000   1.585
  110        0.764   0.994   0.000   1.758
  111        0.753   1.010   0.000   1.763
  112        0.760   0.993   0.000   1.753
  113        0.765   0.931   0.000   1.695
  114        0.769   0.868   0.000   1.638
  115        0.782   0.908   0.000   1.690
  116        0.801   0.820   0.000   1.620
  117        0.789   0.890   0.000   1.679
  118        0.844   0.737   0.000   1.581
  119        0.760   0.989   0.000   1.749
--------------------------------------------------
tot         88.282  87.659   0.000 175.941


 total amount of memory used by VASP MPI-rank0   397041. kBytes
=======================================================================

   base                                    :      30000. kBytes
   nonl-proj                               :      87729. kBytes
   fftplans                                :     114278. kBytes
   grid                                    :      88184. kBytes
   one-center                              :         24. kBytes
   wavefun                                 :      76826. kBytes

  
  
 General timing and accounting informations for this job:
 ========================================================
  
                  Total CPU time used (sec):     7293.118
                            User time (sec):     6508.384
                          System time (sec):      784.735
                         Elapsed time (sec):     7298.061
  
                   Maximum memory used (kb):      660940.
                   Average memory used (kb):          N/A
  
                          Minor page faults:     12098385
                          Major page faults:         1198
                 Voluntary context switches:         2955
