 vasp.6.5.0 16Dec24 (build Jan 20 2025 08:32:48) complex                         
 executed on        HPECrayEX_GCC date 2025.07.28  14:14:11
 running  128 mpi-ranks, with    1 threads/rank, on    1 nodes
 distrk:  each k-point on  128 cores,    1 groups
 distr:  one band on NCORE=  16 cores,    8 groups


--------------------------------------------------------------------------------------------------------


 INCAR:
   SYSTEM = a-Si SPC
   NCORE = 16
   ISTART = 1
   ICHARG = 1
   ISPIN = 1
   ISYM = 1
   EDIFF = 1E-6
   NELM = 150
   EDIFFG = -0.01
   NSW = 0
   ISIF = 2
   IBRION = -1
   PREC = Accurate
   ENCUT = 1200
   KSPACING = 0.23
   KGAMMA = .TRUE.
   METAGGA = SCAN
   LASPH = .TRUE.
   LDIAG = .FALSE.
   LMIXTAU = .TRUE.
   ADDGRID = .TRUE.
   ALGO = Normal
   ISMEAR = 0
   SIGMA = 0.1
   LORBIT = 11
   NEDOS = 2000
   LWAVE = .FALSE.
   LCHARG = .FALSE.

 POTCAR:    PAW_PBE H 15Jun2001                   
 POTCAR:    PAW_PBE Si 05Jan2001                  
 POTCAR:    PAW_PBE H 15Jun2001                   
   SHA256 =  030f79b5d3ab3cf0e668861823c8fb652ff669f3e15e46930bd03bfd63a607b6 H/POTCAR              
   COPYR  = (c) Copyright 15Jun2001 Georg Kresse                                                    
   COPYR  = This file is part of the software VASP. Any use, copying, and all other rights are regul
   COPYR  = If you do not have a valid VASP license, you may not use, copy or distribute this file. 
   VRHFIN =H: ultrasoft test                                                                        
   LEXCH  = PE                                                                                      
   EATOM  =    12.4884 eV,    0.9179 Ry                                                             
                                                                                                    
   TITEL  = PAW_PBE H 15Jun2001                                                                     
   LULTRA =        F    use ultrasoft PP ?                                                          
   IUNSCR =        0    unscreen: 0-lin 1-nonlin 2-no                                               
   RPACOR =    0.000    partial core radius                                                         
   POMASS =    1.000; ZVAL   =    1.000    mass and valenz                                          
   RCORE  =    1.100    outmost cutoff radius                                                       
   RWIGS  =    0.700; RWIGS  =    0.370    wigner-seitz radius (au A)                               
   ENMAX  =  250.000; ENMIN  =  200.000 eV                                                          
   RCLOC  =    0.701    cutoff for local pot                                                        
   LCOR   =        T    correct aug charges                                                         
   LPAW   =        T    paw PP                                                                      
   EAUG   =  400.000                                                                                
   RMAX   =    1.123    core radius for proj-oper                                                   
   RAUG   =    1.200    factor for augmentation sphere                                              
   RDEP   =    1.112    radius for radial grids                                                     
   RDEPT  =    0.926    core radius for aug-charge                                                  
                                                                                                    
   Atomic configuration                                                                             
    2 entries                                                                                       
     n  l   j            E        occ.                                                              
     1  0  0.50        -6.4927   1.0000                                                             
     2  1  0.50        -3.4015   0.0000                                                             
   Description                                                                                      
     l       E           TYP  RCUT    TYP  RCUT                                                     
     0     -6.4927494     23  1.100                                                                 
     0      6.8029130     23  1.100                                                                 
     1     -4.0817478     23  1.100                                                                 
  local pseudopotential read in
  atomic valenz-charges read in
  non local Contribution for L=           0  read in
    real space projection operators read in
  non local Contribution for L=           0  read in
    real space projection operators read in
  non local Contribution for L=           1  read in
    real space projection operators read in
    PAW grid and wavefunctions read in

   number of l-projection  operators is LMAX  =           3
   number of lm-projection operators is LMMAX =           5

 POTCAR:    PAW_PBE Si 05Jan2001                  
   SHA256 =  79d9987ad8750f624c4d6acb2a16d13abf6a777132adc04dc6c8399be72b42bb Si/POTCAR             
   COPYR  = (c) Copyright 05Jan2001 Georg Kresse                                                    
   COPYR  = This file is part of the software VASP. Any use, copying, and all other rights are regul
   COPYR  = If you do not have a valid VASP license, you may not use, copy or distribute this file. 
   VRHFIN =Si: s2p2                                                                                 
   LEXCH  = PE                                                                                      
   EATOM  =   103.0669 eV,    7.5752 Ry                                                             
                                                                                                    
   TITEL  = PAW_PBE Si 05Jan2001                                                                    
   LULTRA =        F    use ultrasoft PP ?                                                          
   IUNSCR =        1    unscreen: 0-lin 1-nonlin 2-no                                               
   RPACOR =    1.500    partial core radius                                                         
   POMASS =   28.085; ZVAL   =    4.000    mass and valenz                                          
   RCORE  =    1.900    outmost cutoff radius                                                       
   RWIGS  =    2.480; RWIGS  =    1.312    wigner-seitz radius (au A)                               
   ENMAX  =  245.345; ENMIN  =  184.009 eV                                                          
   ICORE  =        2    local potential                                                             
   LCOR   =        T    correct aug charges                                                         
   LPAW   =        T    paw PP                                                                      
   EAUG   =  322.069                                                                                
   DEXC   =    0.000                                                                                
   RMAX   =    1.950    core radius for proj-oper                                                   
   RAUG   =    1.300    factor for augmentation sphere                                              
   RDEP   =    1.993    radius for radial grids                                                     
   RDEPT  =    1.837    core radius for aug-charge                                                  
                                                                                                    
   Atomic configuration                                                                             
    6 entries                                                                                       
     n  l   j            E        occ.                                                              
     1  0  0.50     -1785.8828   2.0000                                                             
     2  0  0.50      -139.4969   2.0000                                                             
     2  1  1.50       -95.5546   6.0000                                                             
     3  0  0.50       -10.8127   2.0000                                                             
     3  1  0.50        -4.0811   2.0000                                                             
     3  2  1.50        -4.0817   0.0000                                                             
   Description                                                                                      
     l       E           TYP  RCUT    TYP  RCUT                                                     
     0    -10.8127223     23  1.900                                                                 
     0     -7.6451159     23  1.900                                                                 
     1     -4.0811372     23  1.900                                                                 
     1      2.4879257     23  1.900                                                                 
     2     -4.0817478      7  1.900                                                                 
  local pseudopotential read in
  partial core-charges read in
  partial kinetic energy density read in
  atomic valenz-charges read in
  non local Contribution for L=           0  read in
    real space projection operators read in
  non local Contribution for L=           0  read in
    real space projection operators read in
  non local Contribution for L=           1  read in
    real space projection operators read in
  non local Contribution for L=           1  read in
    real space projection operators read in
    PAW grid and wavefunctions read in

   number of l-projection  operators is LMAX  =           4
   number of lm-projection operators is LMMAX =           8

 -----------------------------------------------------------------------------
|                                                                             |
|               ----> ADVICE to this user running VASP <----                  |
|                                                                             |
|     You have a (more or less) 'large supercell' and for larger cells it     |
|     might be more efficient to use real-space projection operators.         |
|     Therefore, try LREAL= Auto in the INCAR file.                           |
|     Mind: For very accurate calculation, you might also keep the            |
|     reciprocal projection scheme (i.e. LREAL=.FALSE.).                      |
|                                                                             |
 -----------------------------------------------------------------------------

 -----------------------------------------------------------------------------
|                                                                             |
|               ----> ADVICE to this user running VASP <----                  |
|                                                                             |
|     You enforced a specific xc type in the INCAR file but a different       |
|     type was found in the POTCAR file.                                      |
|     I HOPE YOU KNOW WHAT YOU ARE DOING!                                     |
|                                                                             |
 -----------------------------------------------------------------------------

  PAW_PBE H 15Jun2001                   :
 energy of atom  1       EATOM=  -12.4884
 kinetic energy error for atom=    0.0000 (will be added to EATOM!!)
  PAW_PBE Si 05Jan2001                  :
 energy of atom  2       EATOM= -103.0669
 kinetic energy error for atom=    0.0001 (will be added to EATOM!!)


 POSCAR:  H Si
  positions in cartesian coordinates
  No initial velocities read in


 exchange-correlation table for SCAN
   RHO(1)=    0.500       N(1)  =     2000
   RHO(2)=  100.500       N(2)  =     4000



--------------------------------------------------------------------------------------------------------


 ion  position               nearest neighbor table
   1  0.526  0.124  0.514-  53 1.47
   2  0.248  0.332  0.413-  17 0.74
   3  0.612  0.050  0.436-  24 0.75
   4  0.178  0.512  0.615-  41 1.60  67 1.78
   5  0.785  0.266  0.525-  45 1.64  57 1.70
   6  0.666  0.220  0.594-  45 1.47
   7  0.110  0.361  0.626-  41 1.47
   8  0.223  0.155  0.556-  43 1.47
   9  0.658  0.074  0.532-  19 0.75
  10  0.811  0.600  0.568-  64 1.50
  11  0.719  0.904  0.546-  55 1.49
  12  0.934  0.220  0.572-  25 0.74
  13  0.853  0.077  0.532-  72 1.49
  14  0.727  0.251  0.433-  57 1.49
  15  0.230  0.174  0.458-  43 1.48
  16  0.400  0.394  0.563-  77 1.47
  17  0.235  0.284  0.421-   2 0.74
  18  0.403  0.264  0.470-  56 1.48
  19  0.708  0.083  0.527-   9 0.75
  20  0.510  0.334  0.513-  71 1.47
  21  0.528  0.529  0.615-  38 1.47
  22  0.360  0.110  0.504-  53 1.62  43 1.65
  23  0.045  0.489  0.676-  41 1.47
  24  0.604  0.097  0.447-   3 0.75
  25  0.913  0.174  0.573-  12 0.74
  26  0.443  0.038  0.415-  50 1.49
  27  0.042  0.159  0.414-  51 1.48
  28  0.028  0.293  0.542-  34 0.75
  29  0.112  0.393  0.468-  76 1.49
  30  0.270  0.333  0.521-  77 1.48
  31  0.545  0.208  0.435-  56 1.47
  32  0.363  0.443  0.473-  77 1.47
  33  0.490  0.356  0.407-  56 1.47
  34  0.073  0.307  0.531-  28 0.75
  35  0.433  0.116  0.595-  53 1.47
  36  0.065  0.128  0.507-  51 1.49
  37  0.416  0.221  0.376-  56 1.47
  38  0.604  0.511  0.577-  21 1.47  71 2.34  68 2.36  42 2.39
  39  0.499  0.710  0.478-  68 2.31  62 2.32  54 2.32
  40  0.828  0.644  0.428-  63 2.31  69 2.32  49 2.35
  41  0.083  0.458  0.624-   7 1.47  23 1.47   4 1.60  60 2.30  67 3.11
  42  0.732  0.432  0.615-  64 2.31  45 2.34  38 2.39
  43  0.247  0.113  0.504-   8 1.47  15 1.48  22 1.65  47 2.33  53 3.10
  44  0.641  0.488  0.452-  49 2.31  71 2.32  68 2.37
  45  0.702  0.300  0.565-   6 1.47   5 1.64  71 2.30  42 2.34
  46  0.201  0.638  0.484-  61 2.37  67 2.37  54 2.38  78 2.40  59 2.82
  47  0.198  0.962  0.491-  58 2.28  73 2.32  43 2.33  74 2.34
  48  0.828  0.939  0.440-  55 2.35  72 2.38  65 2.41
  49  0.799  0.496  0.461-  44 2.31  75 2.33  40 2.35  64 2.39
  50  0.443  0.940  0.431-  26 1.49  62 2.28  58 2.30  66 2.63
  51  0.020  0.094  0.457-  27 1.48  36 1.49  72 2.32  73 2.35
  52  0.001  0.661  0.551-  78 2.30  60 2.31  70 2.32  63 2.39
  53  0.448  0.080  0.540-  35 1.47   1 1.47  22 1.62  66 2.30  43 3.10
  54  0.342  0.718  0.493-  58 2.32  39 2.32  46 2.38  59 2.39
  55  0.709  0.871  0.490-  11 1.49  62 2.30  69 2.34  48 2.35
  56  0.463  0.262  0.422-  33 1.47  31 1.47  37 1.47  18 1.48
  57  0.818  0.246  0.460-  14 1.49   5 1.70  75 2.37  72 2.40
  58  0.326  0.875  0.481-  47 2.28  50 2.30  54 2.32  66 2.37
  59  0.283  0.692  0.581-  67 2.36  78 2.39  54 2.39  46 2.82
  60  0.991  0.502  0.554-  41 2.30  52 2.31  64 2.32  76 2.37
  61  0.084  0.595  0.423-  63 2.37  46 2.37  76 2.42
  62  0.553  0.859  0.475-  50 2.28  55 2.30  39 2.32  66 2.34
  63  0.969  0.692  0.458-  40 2.31  61 2.37  65 2.39  52 2.39  70 2.81
  64  0.832  0.502  0.555-  10 1.50  42 2.31  60 2.32  49 2.39
  65  0.954  0.852  0.475-  63 2.39  48 2.41  73 2.43  74 2.46  70 2.51
  66  0.449  0.922  0.536-  53 2.30  62 2.34  58 2.37  50 2.63
  67  0.242  0.541  0.556-   4 1.78  77 2.30  59 2.36  46 2.37  41 3.11
  68  0.619  0.619  0.507-  39 2.31  38 2.36  44 2.37  69 2.40
  69  0.749  0.717  0.496-  40 2.32  55 2.34  68 2.40  70 2.40
  70  0.879  0.762  0.549-  52 2.32  69 2.40  65 2.51  63 2.81
  71  0.596  0.386  0.518-  20 1.47  45 2.30  44 2.32  38 2.34
  72  0.863  0.089  0.473-  13 1.49  51 2.32  48 2.38  57 2.40
  73  0.073  0.947  0.435-  47 2.32  51 2.35  65 2.43  74 2.71
  74  0.078  0.891  0.538-  47 2.34  78 2.36  65 2.46  73 2.71
  75  0.899  0.379  0.434-  49 2.33  57 2.37  76 2.37
  76  0.032  0.456  0.466-  29 1.49  60 2.37  75 2.37  61 2.42
  77  0.326  0.417  0.526-  16 1.47  32 1.47  30 1.48  67 2.30
  78  0.137  0.741  0.549-  52 2.30  74 2.36  59 2.39  46 2.40

  LATTYP: Found a simple tetragonal cell.
 ALAT       =    14.5860346134
 C/A-ratio  =     1.7080399547
  
  Lattice vectors:
  
 A1 = (  14.5860346134,   0.0000000000,   0.0000000000)
 A2 = (   0.0000000000,  14.5860346134,   0.0000000000)
 A3 = (   0.0000000000,   0.0000000000,  24.9135299000)


Analysis of symmetry for initial positions (statically):
=====================================================================
 Subroutine PRICEL returns:
 Original cell was already a primitive cell.
 

 Routine SETGRP: Setting up the symmetry group for a 
 simple tetragonal supercell.


 Subroutine GETGRP returns: Found  1 space group operations
 (whereof  1 operations were pure point group operations)
 out of a pool of 16 trial point group operations.


The static configuration has the point symmetry C_1 .


Analysis of symmetry for dynamics (positions and initial velocities):
=====================================================================
 Subroutine PRICEL returns:
 Original cell was already a primitive cell.
 

 Routine SETGRP: Setting up the symmetry group for a 
 simple tetragonal supercell.


 Subroutine GETGRP returns: Found  1 space group operations
 (whereof  1 operations were pure point group operations)
 out of a pool of 16 trial point group operations.


The dynamic configuration has the point symmetry C_1 .


 Subroutine INISYM returns: Found  1 space group operations
 (whereof  1 operations are pure point group operations),
 and found     1 'primitive' translations


----------------------------------------------------------------------------------------

                                     Primitive cell                                     

  volume of cell :    5300.4134

  direct lattice vectors                    reciprocal lattice vectors
    14.586034613  0.000000000  0.000000000     0.068558729  0.000000000  0.000000000
     0.000000000 14.586034613  0.000000000     0.000000000  0.068558729  0.000000000
     0.000000000  0.000000000 24.913529900     0.000000000  0.000000000  0.040138832

  length of vectors
    14.586034613 14.586034613 24.913529900     0.068558729  0.068558729  0.040138832

  position of ions in fractional coordinates (direct lattice)
     0.526232214  0.123855389  0.513961990
     0.247630978  0.331734974  0.413038325
     0.611626409  0.050344220  0.436009763
     0.177990589  0.511676390  0.614539941
     0.785346581  0.265889359  0.524993092
     0.665787535  0.220109958  0.594183969
     0.110038152  0.361090784  0.626105878
     0.223296389  0.155101586  0.555653437
     0.658159531  0.073670605  0.532200835
     0.810887019  0.599680036  0.568491520
     0.719026156  0.904434230  0.546174614
     0.934092691  0.220470432  0.571858922
     0.852618676  0.077295395  0.531590716
     0.727177448  0.251498375  0.433314377
     0.230419806  0.174486920  0.457646090
     0.399827127  0.394204852  0.563339831
     0.235244409  0.284068534  0.420820042
     0.403231439  0.263764266  0.470008517
     0.707578992  0.083304436  0.526870003
     0.509810341  0.334327103  0.512546068
     0.528463087  0.528754809  0.615028166
     0.359750387  0.109517921  0.504099036
     0.045397671  0.489075656  0.675828460
     0.603930900  0.097328787  0.446858365
     0.913096049  0.174041944  0.572974946
     0.442868886  0.038377509  0.414698210
     0.041923505  0.159423626  0.413829196
     0.027910217  0.292952860  0.541535614
     0.112103600  0.393231814  0.468084460
     0.269515457  0.333196978  0.521109246
     0.545455282  0.207812198  0.434625156
     0.362841607  0.443073222  0.473035912
     0.489775327  0.355954462  0.406913070
     0.073432785  0.306739760  0.530631442
     0.433332164  0.116060745  0.594552563
     0.064806663  0.127878543  0.506959539
     0.415649967  0.220709656  0.376323662
     0.603754484  0.511020167  0.576991762
     0.499230241  0.709839938  0.477659568
     0.828027688  0.643617960  0.427652843
     0.083485833  0.458440928  0.624042000
     0.732325006  0.432404846  0.614534045
     0.246854832  0.112989052  0.503686366
     0.641254197  0.487957402  0.451883755
     0.701976309  0.299812559  0.564625293
     0.201299134  0.637644848  0.483641959
     0.198058591  0.962256691  0.491470962
     0.827577743  0.939494341  0.439738975
     0.799043786  0.495740099  0.460644105
     0.442867010  0.940131871  0.431295519
     0.019588275  0.093554459  0.457173885
     0.001032508  0.660559483  0.550764327
     0.447524381  0.079886943  0.540313560
     0.342362338  0.717739196  0.493252560
     0.708888096  0.871451021  0.489673142
     0.463384997  0.262345446  0.422283770
     0.818054894  0.246146546  0.460487358
     0.326492168  0.874648611  0.480597873
     0.282576924  0.691740778  0.581325735
     0.990578156  0.502288393  0.553774086
     0.084453827  0.594744947  0.422613203
     0.553242816  0.859373563  0.475363459
     0.969390722  0.691687222  0.458288248
     0.831724730  0.501581842  0.554744194
     0.954382778  0.852410494  0.475143496
     0.448859690  0.922259261  0.536389869
     0.242248872  0.541070351  0.556243200
     0.618709119  0.618590857  0.506990464
     0.749294658  0.716571001  0.496131766
     0.879132906  0.762354006  0.548791235
     0.596320959  0.385522192  0.518341939
     0.862770802  0.088936506  0.472500317
     0.073284127  0.946789862  0.434508697
     0.078186181  0.890688543  0.538093917
     0.899096746  0.379460915  0.434343232
     0.031718399  0.456229864  0.465980702
     0.325578465  0.417253500  0.525916534
     0.136687320  0.740994095  0.548612394

  ion indices of the primitive-cell ions
   primitive index   ion index
                 1           1
                 2           2
                 3           3
                 4           4
                 5           5
                 6           6
                 7           7
                 8           8
                 9           9
                10          10
                11          11
                12          12
                13          13
                14          14
                15          15
                16          16
                17          17
                18          18
                19          19
                20          20
                21          21
                22          22
                23          23
                24          24
                25          25
                26          26
                27          27
                28          28
                29          29
                30          30
                31          31
                32          32
                33          33
                34          34
                35          35
                36          36
                37          37
                38          38
                39          39
                40          40
                41          41
                42          42
                43          43
                44          44
                45          45
                46          46
                47          47
                48          48
                49          49
                50          50
                51          51
                52          52
                53          53
                54          54
                55          55
                56          56
                57          57
                58          58
                59          59
                60          60
                61          61
                62          62
                63          63
                64          64
                65          65
                66          66
                67          67
                68          68
                69          69
                70          70
                71          71
                72          72
                73          73
                74          74
                75          75
                76          76
                77          77
                78          78

----------------------------------------------------------------------------------------


 -----------------------------------------------------------------------------
|                                                                             |
|           W    W    AA    RRRRR   N    N  II  N    N   GGGG   !!!           |
|           W    W   A  A   R    R  NN   N  II  NN   N  G    G  !!!           |
|           W    W  A    A  R    R  N N  N  II  N N  N  G       !!!           |
|           W WW W  AAAAAA  RRRRR   N  N N  II  N  N N  G  GGG   !            |
|           WW  WW  A    A  R   R   N   NN  II  N   NN  G    G                |
|           W    W  A    A  R    R  N    N  II  N    N   GGGG   !!!           |
|                                                                             |
|     The requested file  could not be found or opened for reading            |
|     k-point information. Automatic k-point generation is used as a          |
|     fallback, which may lead to unwanted results.                           |
|                                                                             |
 -----------------------------------------------------------------------------



Automatic generation of k-mesh.
 Grid dimensions derived from KSPACING:
 generate k-points for:    2    2    2

 Generating k-lattice:

  Cartesian coordinates                     Fractional coordinates (reciprocal lattice)
     0.034279365  0.000000000  0.000000000     0.500000000  0.000000000  0.000000000
     0.000000000  0.034279365  0.000000000     0.000000000  0.500000000  0.000000000
     0.000000000  0.000000000  0.020069416     0.000000000  0.000000000  0.500000000

  Length of vectors
     0.034279365  0.034279365  0.020069416

  Shift w.r.t. Gamma in fractional coordinates (k-lattice)
     0.000000000  0.000000000  0.000000000

 
 Subroutine IBZKPT returns following result:
 ===========================================
 
 Found      8 irreducible k-points:
 
 Following reciprocal coordinates:
            Coordinates               Weight
  0.000000  0.000000  0.000000      1.000000
  0.500000  0.000000  0.000000      1.000000
  0.000000  0.500000  0.000000      1.000000
  0.500000  0.500000  0.000000      1.000000
  0.000000  0.000000  0.500000      1.000000
  0.500000  0.000000  0.500000      1.000000
  0.000000  0.500000  0.500000      1.000000
  0.500000  0.500000  0.500000      1.000000
 
 Following cartesian coordinates:
            Coordinates               Weight
  0.000000  0.000000  0.000000      1.000000
  0.034279  0.000000  0.000000      1.000000
  0.000000  0.034279  0.000000      1.000000
  0.034279  0.034279  0.000000      1.000000
  0.000000  0.000000  0.020069      1.000000
  0.034279  0.000000  0.020069      1.000000
  0.000000  0.034279  0.020069      1.000000
  0.034279  0.034279  0.020069      1.000000
 


--------------------------------------------------------------------------------------------------------




 Dimension of arrays:
   k-points           NKPTS =      8   k-points in BZ     NKDIM =      8   number of bands    NBANDS=    144
   number of dos      NEDOS =   2000   number of ions     NIONS =     78
   non local maximal  LDIM  =      4   non local SUM 2l+1 LMDIM =      8
   total plane-waves  NPLWV = ******
   max r-space proj   IRMAX =      1   max aug-charges    IRDMAX= 410348
   dimension x,y,z NGX =   168 NGY =  168 NGZ =  288
   dimension x,y,z NGXF=   336 NGYF=  336 NGZF=  576
   support grid    NGXF=   672 NGYF=  672 NGZF= 1152
   ions per type =              37  41
   NGX,Y,Z   is equivalent  to a cutoff of  19.15, 19.15, 19.22 a.u.
   NGXF,Y,Z  is equivalent  to a cutoff of  38.30, 38.30, 38.44 a.u.

 SYSTEM =  a-Si SPC                                
 POSCAR =   H Si                                   

 Startparameter for this run:
   NWRITE =      2    write-flag & timer
   PREC   = accura    normal or accurate (medium, high low for compatibility)
   ISTART =      1    job   : 0-new  1-cont  2-samecut
   ICHARG =      1    charge: 1-file 2-atom 10-const
   ISPIN  =      1    spin polarized calculation?
   LNONCOLLINEAR =      F non collinear calculations
   LSORBIT =      F    spin-orbit coupling
   INIWAV =      1    electr: 0-lowe 1-rand  2-diag
   LASPH  =      T    aspherical Exc in radial PAW
 Electronic Relaxation 1
   ENCUT  = 1200.0 eV  88.20 Ry    9.39 a.u.  41.20 41.20 70.37*2*pi/ulx,y,z
   ENINI  = 1200.0     initial cutoff
   ENAUG  =  400.0 eV  augmentation charge cutoff
   NELM   =    150;   NELMIN=  2; NELMDL=  0     # of ELM steps 
   EDIFF  = 0.1E-05   stopping-criterion for ELM
   LREAL  =      F    real-space projection
   NLSPLINE    = F    spline interpolate recip. space projectors
   LCOMPAT=      F    compatible to vasp.4.4
   GGA_COMPAT  = T    GGA compatible to vasp.4.4-vasp.4.6
   LMAXPAW     = -100 max onsite density
   LMAXMIX     =    2 max onsite mixed and CHGCAR
   VOSKOWN=      0    Vosko Wilk Nusair interpolation
   ROPT   =    0.00000   0.00000
 Ionic relaxation
   EDIFFG = -.1E-01   stopping-criterion for IOM
   NSW    =      0    number of steps for IOM
   NBLOCK =      1;   KBLOCK =      1    inner block; outer block 
   IBRION =     -1    ionic relax: 0-MD 1-quasi-New 2-CG
   NFREE  =      0    steps in history (QN), initial steepest desc. (CG)
   ISIF   =      2    stress and relaxation
   IWAVPR =     10    prediction:  0-non 1-charg 2-wave 3-comb
   ISYM   =      1    0-nonsym 1-usesym 2-fastsym
   LCORR  =      T    Harris-Foulkes like correction to forces

   POTIM  = 0.5000    time-step for ionic-motion
   TEIN   =    0.0    initial temperature
   TEBEG  =    0.0;   TEEND  =   0.0 temperature during run
   SMASS  =  -3.00    Nose mass-parameter (am)
   estimated Nose-frequenzy (Omega)   =  0.10E-29 period in steps = 0.13E+47 mass=  -0.486E-26a.u.
   SCALEE = 1.0000    scale energy and forces
   NPACO  =    256;   APACO  = 10.0  distance and # of slots for P.C.
   PSTRESS=    0.0 pullay stress

  Mass of Ions in am
   POMASS =   1.00 28.09
  Ionic Valenz
   ZVAL   =   1.00  4.00
  Atomic Wigner-Seitz radii
   RWIGS  =  -1.00 -1.00
  virtual crystal weights 
   VCA    =   1.00  1.00
   NELECT =     201.0000    total number of electrons
   NUPDOWN=      -1.0000    fix difference up-down

 DOS related values:
   EMIN   =  10.00;   EMAX   =-10.00  energy-range for DOS
   EFERMI =   0.00;   METHOD = LEGACY      
   ISMEAR =     0;   SIGMA  =   0.10  broadening in eV -4-tet -1-fermi 0-gaus
   EFERMI_NEDOS =   21; number of points for ismear=-14 and -15

 Electronic relaxation 2 (details)
   IALGO  =     38    algorithm
   LDIAG  =      F    sub-space diagonalisation (order eigenvalues)
   LSUBROT=      F    optimize rotation matrix (better conditioning)
   TURBO    =      0    0=normal 1=particle mesh
   IRESTART =      0    0=no restart 2=restart with 2 vectors
   NREBOOT  =      0    no. of reboots
   NMIN     =      0    reboot dimension
   EREF     =   0.00    reference energy to select bands
   IMIX   =      4    mixing-type and parameters
     AMIX     =   0.40;   BMIX     =  1.00
     AMIX_MAG =   1.60;   BMIX_MAG =  1.00
     AMIN     =   0.10
     WC   =   100.;   INIMIX=   1;  MIXPRE=   1;  MAXMIX= -45

 Intra band minimization:
   WEIMIN = 0.0000     energy-eigenvalue tresh-hold
   EBREAK =  0.17E-08  absolut break condition
   DEPER  =   0.30     relativ break condition  

   TIME   =   0.40     timestep for ELM

  volume/ion in A,a.u.               =      67.95       458.58
  Fermi-wavevector in a.u.,A,eV,Ry     =   0.550010  1.039367  4.115906  0.302511
  Thomas-Fermi vector in A             =   1.581390

 Write flags
   LWAVE        =      F    write WAVECAR
   LDOWNSAMPLE  =      F    k-point downsampling of WAVECAR
   LCHARG       =      F    write CHGCAR
   LVTOT        =      F    write LOCPOT, total local potential
   LVHAR        =      F    write LOCPOT, Hartree potential only
   WRT_POTENTIAL= false  ! write potential to hdf5 file
   LELF         =      F    write electronic localiz. function (ELF)
   LORBIT       =     11    0 simple, 1 ext, 2 COOP (PROOUT), +10 PAW based schemes


 Python interface
   PLUGINS active      =      F    recompile with -DPLUGINS to activate

 Dipole corrections
   LMONO      =      F    monopole corrections only (constant potential shift)
   LDIPOL     =      F    correct potential (dipole corrections)
   IDIPOL     =      0    1-x, 2-y, 3-z, 4-all directions 
   EPSILON    =  1.0000000 bulk dielectric constant
   LVACPOTAV  =      F  vacuum potentials using an averaging scheme for the charge density
   VACPOTFLAT =  0.1000000 required flatness to determine vacuum potential

Coulomb truncation method
  LTRUNCATE          =      F  Coulomb kernel truncation to be used
  IDIMENSIONALITY    =      3  Dimensionality of cutoff (0 molecules / 2 surfaces)
  ISURFACE           =     -1  Direction of surface normal
  LCOARSEN           =      F  Coarsen the charge grid before padding, preferred


 Exchange correlation treatment:
   METAGGA = SCAN    functional components
   XC_C    = 1    coefficients multiplying the functional components
   LIBXC   =     F    Libxc                    
   VOSKOWN =     0    Vosko Wilk Nusair interpolation
   LHFCALC =     F    Hartree Fock is set to
   LHFONE  =     F    Hartree Fock one center treatment
   AEXX    =    0.0000 exact exchange contribution

 Parameters of functionals:
   SCAN:
     P1 =  0.000000E+00
     P2 =  0.000000E+00
     P3 =  0.000000E+00

 Accuracy and mixing parameters for tau-dependent meta-GGA functionals:
   LMAXTAU = 6
   LMIXTAU = T

 Van der Waals corrections
   IVDW    =     0    specifies the selected vdW correction

 Linear response parameters
   LEPSILON=     F    determine dielectric tensor
   LRPA    =     F    only Hartree local field effects (RPA)
   LNABLA  =     F    use nabla operator in PAW spheres
   LVEL    =     F    velocity operator in full k-point grid
   CSHIFT  =0.1000    complex shift for real part using Kramers Kronig
   OMEGAMAX=  -1.0    maximum frequency
   DEG_THRESHOLD= 0.2000000E-02 threshold for treating states as degnerate
   RTIME   =   -0.100 relaxation time in fs
  (WPLASMAI=    0.000 imaginary part of plasma frequency in eV, 0.658/RTIME)
   DFIELD  = 0.0000000 0.0000000 0.0000000 field for delta impulse in time

  Optional k-point grid parameters
   LKPOINTS_OPT  =     F    use optional k-point grid
   KPOINTS_OPT_MODE=     1    mode for optional k-point grid

 Orbital magnetization related:
   ORBITALMAG=     F  switch on orbital magnetization
   LCHIMAG   =     F  perturbation theory with respect to B field
   DQ        =  0.001000  dq finite difference perturbation B field
   LLRAUG    =     F  two centre corrections for induced B field
   LBONE     =     F  B-component reconstruction in AE one-centre
   LVGVCALC  =     T  calculate vGv susceptibility
   LVGVAPPL  =     F  apply vGv susceptibility instead of pGv for G=0

 Random number generation:
   RANDOM_GENERATOR = DEFAULT
   PCG_SEED         = not used


--------------------------------------------------------------------------------------------------------


 Static calculation
 charge density and potential will be updated during run
 non-spin polarized calculation
 Variant of blocked Davidson
 perform Loewdin sub-space diagonalisation
    ordering is kept fixed
    before iterative eigenvector-optimisation
 modified Broyden-mixing scheme, WC =      100.0
 initial mixing is a Kerker type mixing with AMIX =  0.4000 and BMIX =      1.0000
 Hartree-type preconditioning will be used
 using additional bands           43
 reciprocal scheme for non local part
 use partial core corrections
 calculate Harris-corrections to forces   (improved forces if not selfconsistent)
 use gradient corrections 
 use of overlap-Matrix (Vanderbilt PP)
 Gauss-broadening in eV      SIGMA  =   0.10


--------------------------------------------------------------------------------------------------------


  energy-cutoff  :     1200.00
  volume of cell :     5300.41
      direct lattice vectors                 reciprocal lattice vectors
    14.586034613  0.000000000  0.000000000     0.068558729  0.000000000  0.000000000
     0.000000000 14.586034613  0.000000000     0.000000000  0.068558729  0.000000000
     0.000000000  0.000000000 24.913529900     0.000000000  0.000000000  0.040138832

  length of vectors
    14.586034613 14.586034613 24.913529900     0.068558729  0.068558729  0.040138832



 old parameters found on file WAVECAR:
  energy-cutoff  :     1200.00
  volume of cell :     5300.41
      direct lattice vectors                 reciprocal lattice vectors
    14.586034613  0.000000000  0.000000000     0.068558729  0.000000000  0.000000000
     0.000000000 14.586034613  0.000000000     0.000000000  0.068558729  0.000000000
     0.000000000  0.000000000 24.913529900     0.000000000  0.000000000  0.040138832

  length of vectors


 k-points in units of 2pi/SCALE and weight: read from INCAR                         
   0.00000000  0.00000000  0.00000000       0.125
   0.03427936  0.00000000  0.00000000       0.125
   0.00000000  0.03427936  0.00000000       0.125
   0.03427936  0.03427936  0.00000000       0.125
   0.00000000  0.00000000  0.02006942       0.125
   0.03427936  0.00000000  0.02006942       0.125
   0.00000000  0.03427936  0.02006942       0.125
   0.03427936  0.03427936  0.02006942       0.125

 k-points in reciprocal lattice and weights: read from INCAR                         
   0.00000000  0.00000000  0.00000000       0.125
   0.50000000  0.00000000  0.00000000       0.125
   0.00000000  0.50000000  0.00000000       0.125
   0.50000000  0.50000000  0.00000000       0.125
   0.00000000  0.00000000  0.50000000       0.125
   0.50000000  0.00000000  0.50000000       0.125
   0.00000000  0.50000000  0.50000000       0.125
   0.50000000  0.50000000  0.50000000       0.125

 position of ions in fractional coordinates (direct lattice) 
   0.52623221  0.12385539  0.51396199
   0.24763098  0.33173497  0.41303833
   0.61162641  0.05034422  0.43600976
   0.17799059  0.51167639  0.61453994
   0.78534658  0.26588936  0.52499309
   0.66578753  0.22010996  0.59418397
   0.11003815  0.36109078  0.62610588
   0.22329639  0.15510159  0.55565344
   0.65815953  0.07367060  0.53220084
   0.81088702  0.59968004  0.56849152
   0.71902616  0.90443423  0.54617461
   0.93409269  0.22047043  0.57185892
   0.85261868  0.07729539  0.53159072
   0.72717745  0.25149837  0.43331438
   0.23041981  0.17448692  0.45764609
   0.39982713  0.39420485  0.56333983
   0.23524441  0.28406853  0.42082004
   0.40323144  0.26376427  0.47000852
   0.70757899  0.08330444  0.52687000
   0.50981034  0.33432710  0.51254607
   0.52846309  0.52875481  0.61502817
   0.35975039  0.10951792  0.50409904
   0.04539767  0.48907566  0.67582846
   0.60393090  0.09732879  0.44685836
   0.91309605  0.17404194  0.57297495
   0.44286889  0.03837751  0.41469821
   0.04192351  0.15942363  0.41382920
   0.02791022  0.29295286  0.54153561
   0.11210360  0.39323181  0.46808446
   0.26951546  0.33319698  0.52110925
   0.54545528  0.20781220  0.43462516
   0.36284161  0.44307322  0.47303591
   0.48977533  0.35595446  0.40691307
   0.07343279  0.30673976  0.53063144
   0.43333216  0.11606075  0.59455256
   0.06480666  0.12787854  0.50695954
   0.41564997  0.22070966  0.37632366
   0.60375448  0.51102017  0.57699176
   0.49923024  0.70983994  0.47765957
   0.82802769  0.64361796  0.42765284
   0.08348583  0.45844093  0.62404200
   0.73232501  0.43240485  0.61453405
   0.24685483  0.11298905  0.50368637
   0.64125420  0.48795740  0.45188376
   0.70197631  0.29981256  0.56462529
   0.20129913  0.63764485  0.48364196
   0.19805859  0.96225669  0.49147096
   0.82757774  0.93949434  0.43973897
   0.79904379  0.49574010  0.46064411
   0.44286701  0.94013187  0.43129552
   0.01958827  0.09355446  0.45717388
   0.00103251  0.66055948  0.55076433
   0.44752438  0.07988694  0.54031356
   0.34236234  0.71773920  0.49325256
   0.70888810  0.87145102  0.48967314
   0.46338500  0.26234545  0.42228377
   0.81805489  0.24614655  0.46048736
   0.32649217  0.87464861  0.48059787
   0.28257692  0.69174078  0.58132574
   0.99057816  0.50228839  0.55377409
   0.08445383  0.59474495  0.42261320
   0.55324282  0.85937356  0.47536346
   0.96939072  0.69168722  0.45828825
   0.83172473  0.50158184  0.55474419
   0.95438278  0.85241049  0.47514350
   0.44885969  0.92225926  0.53638987
   0.24224887  0.54107035  0.55624320
   0.61870912  0.61859086  0.50699046
   0.74929466  0.71657100  0.49613177
   0.87913291  0.76235401  0.54879124
   0.59632096  0.38552219  0.51834194
   0.86277080  0.08893651  0.47250032
   0.07328413  0.94678986  0.43450870
   0.07818618  0.89068854  0.53809392
   0.89909675  0.37946091  0.43434323
   0.03171840  0.45622986  0.46598070
   0.32557847  0.41725350  0.52591653
   0.13668732  0.74099410  0.54861239

 position of ions in cartesian coordinates  (Angst):
   7.67564129  1.80655899 12.80460741
   3.61195401  4.83869781 10.29024267
   8.92120397  0.73432253 10.86254227
   2.59617689  7.46332954 15.31035920
  11.45509241  3.87827140 13.07943110
   9.71120003  3.21053146 14.80322009
   1.60502030  5.26688268 15.59850752
   3.25700886  2.26231710 13.84328852
   9.59993770  1.07456199 13.25900142
  11.82762612  8.74695376 14.16313049
  10.48774040 13.19210898 13.60713758
  13.62470832  3.21578935 14.24702435
  12.43632552  1.12743330 13.24380120
  10.60663543  3.66836400 10.79539068
   3.36091127  2.54507225 11.40157955
   5.83189232  5.74988562 14.03478373
   3.43128309  4.14343347 10.48411271
   5.88154773  3.84727471 11.70957124
  10.32077167  1.21508138 13.12619158
   7.43611128  4.87650669 12.76933180
   7.70818088  7.71243595 15.32252261
   5.24733159  1.59743219 12.55888641
   0.66217200  7.13367445 16.83727255
   8.80895701  1.41964105 11.13281923
  13.31845057  2.53858182 14.27482844
   6.45970090  0.55977567 10.33159626
   0.61149770  2.32535852 10.30994604
   0.40709939  4.27302056 13.49156371
   1.63514699  5.73569285 11.66163619
   3.93116179  4.86002265 12.98267079
   7.95602963  3.03115592 10.82804682
   5.29242024  6.46268135 11.78499434
   7.14387987  5.19196410 10.13764093
   1.07109315  4.47411676 13.21990230
   6.32059794  1.69286605 14.81240305
   0.94527224  1.86524086 12.63015164
   6.06268480  3.21927868  9.37555080
   8.80638380  7.45375784 14.37490152
   7.28178958 10.35374990 11.90018594
  12.07764052  9.38783384 10.65434189
   1.21772725  6.68683525 15.54708903
  10.68171788  6.30707205 15.31021231
   3.60063312  1.64806223 12.54860534
   9.35335592  7.11736355 11.25801945
  10.23905074  4.37307637 14.06680911
   2.93615614  9.30070982 12.04922841
   2.88888947 14.03550940 12.24427650
  12.07107760 13.70349697 10.95545010
  11.65488032  7.23088225 11.47627069
   6.45967353 13.71279601 10.74509381
   0.28571525  1.36458858 11.38981525
   0.01506020  9.63494349 13.72148352
   6.52760611  1.16523372 13.46111804
   4.99370891 10.46896876 12.28866241
  10.33986630 12.71101476 12.19948646
   6.75894960  3.82657976 10.52057933
  11.93217700  3.59030204 11.47236556
   4.76222606 12.75765491 11.97338949
   4.12167680 10.08975493 14.48287609
  14.44860727  7.32639588 13.79646725
   1.23184645  8.67497038 10.52878666
   8.06961886 12.53485253 11.84298176
  14.13956662 10.08897376 11.41757797
  12.13156570  7.31609011 13.82063606
  13.92066024 12.43328897 11.83750169
   6.54708298 13.45210551 13.36336503
   3.53345043  7.89207087 13.85798159
   9.02451262  9.02278765 12.63092209
  10.92923782 10.45192942 12.36039359
  12.82306300 11.11972192 13.67232685
   8.69795815  5.62324003 12.91372739
  12.58440478  1.29723096 11.77165077
   1.06892481 13.80990970 10.82514541
   1.14042634 12.99161392 13.40581889
  13.11425626  5.53483004 10.82102310
   0.46264567  6.65458459 11.60922415
   4.74889876  6.08607399 13.10243729
   1.99372598 10.80816552 13.66787128



--------------------------------------------------------------------------------------------------------


 k-point     1 :   0.0000 0.0000 0.0000  plane waves:  500253
 k-point     2 :   0.5000 0.0000 0.0000  plane waves:  500282
 k-point     3 :   0.0000 0.5000 0.0000  plane waves:  500282
 k-point     4 :   0.5000 0.5000 0.0000  plane waves:  500332
 k-point     5 :   0.0000 0.0000 0.5000  plane waves:  500460
 k-point     6 :   0.5000 0.0000 0.5000  plane waves:  500336
 k-point     7 :   0.0000 0.5000 0.5000  plane waves:  500336
 k-point     8 :   0.5000 0.5000 0.5000  plane waves:  500424

 maximum and minimum number of plane-waves per node :     31347    31157

 maximum number of plane-waves:    500460
 maximum index in each direction: 
   IXMAX=   41   IYMAX=   41   IZMAX=   70
   IXMIN=  -41   IYMIN=  -41   IZMIN=  -70


 parallel 3D FFT for wavefunctions:
    minimum data exchange during FFTs selected (reduces bandwidth)
 parallel 3D FFT for charge:
    minimum data exchange during FFTs selected (reduces bandwidth)


 total amount of memory used by VASP MPI-rank0   346911. kBytes
=======================================================================

   base                                    :      30000. kBytes
   nonl-proj                               :      71104. kBytes
   fftplans                                :      97989. kBytes
   grid                                    :      75605. kBytes
   one-center                              :         15. kBytes
   wavefun                                 :      72198. kBytes

     INWAV:  cpu time     22.7162: real time     22.9414
 Broyden mixing: mesh for mixing (old mesh)
   NGX = 83   NGY = 83   NGZ =141
  (NGX  =336   NGY  =336   NGZ  =576)
  gives a total of 971349 points

 initial charge density was supplied:
 number of electron     201.0000000 magnetization 
 keeping initial charge density in first step


--------------------------------------------------------------------------------------------------------


 Maximum index for augmentation-charges        11355 (set IRDMAX)


--------------------------------------------------------------------------------------------------------


 First call to EWALD:  gamma=   0.102
 Maximum number of real-space cells   3x   3x   2
 Maximum number of reciprocal cells   2x   2x   4

    FEWALD:  cpu time      0.0146: real time      0.0149


--------------------------------------- Ionic step        1  -------------------------------------------




--------------------------------------- Iteration      1(   1)  ---------------------------------------


    POTLOK:  cpu time      1.9199: real time      1.9212
    SETDIJ:  cpu time      1.4449: real time      1.4458
    EDDIAG:  cpu time     43.0230: real time     43.0481
     EDDAV:  cpu time    197.2843: real time    197.3939
       DOS:  cpu time      0.0089: real time      0.0093
    CHARGE:  cpu time     24.3331: real time     24.3666
    MIXING:  cpu time      0.0470: real time      0.0473
    --------------------------------------------
      LOOP:  cpu time    268.0611: real time    268.2323

 eigenvalue-minimisations  :  2488
 total energy-change (2. order) :-0.5440341E+03  (-0.5932708E+00)
 number of electron     201.0000000 magnetization 
 augmentation part       -8.5268180 magnetization 

 Broyden mixing:
  rms(total) = 0.80478E+00    rms(broyden)= 0.23557E+02
  rms(prec ) = 0.84104E+00
  weight for this iteration     100.00
  WARNING: grid for Broyden might be to small

 Free energy of the ion-electron system (eV)
  ---------------------------------------------------
  alpha Z        PSCENC =        16.50290948
  Ewald energy   TEWEN  =     19198.70097141
  -Hartree energ DENC   =    -23069.65377301
  -exchange      EXHF   =         0.00000000
  -V(xc)+E(xc)   XCENC  =       -85.57383550
  PAW double counting   =     17147.20670653   -16739.30865021
  entropy T*S    EENTRO =        -0.09041958
  eigenvalues    EBANDS =     -1699.62766442
  atomic energy  EATOM  =      4687.80966410
  Solvation  Ediel_sol  =         0.00000000
  ---------------------------------------------------
  free energy    TOTEN  =      -544.03409119 eV

  energy without entropy =     -543.94367162  energy(sigma->0) =     -543.98888140


--------------------------------------------------------------------------------------------------------




--------------------------------------- Iteration      1(   2)  ---------------------------------------


    POTLOK:  cpu time      1.8844: real time      1.9086
    SETDIJ:  cpu time      1.4465: real time      1.4475
    EDDIAG:  cpu time     43.2407: real time     43.2644
     EDDAV:  cpu time    190.9791: real time    191.0820
       DOS:  cpu time      0.0025: real time      0.0025
    CHARGE:  cpu time     24.0806: real time     24.1018
    MIXING:  cpu time      0.0422: real time      0.0422
    --------------------------------------------
      LOOP:  cpu time    261.6759: real time    261.8490

 eigenvalue-minimisations  :  2344
 total energy-change (2. order) : 0.3548025E+02  (-0.6107964E+00)
 number of electron     201.0000000 magnetization 
 augmentation part       -8.5046219 magnetization 

 Broyden mixing:
  rms(total) = 0.55338E+00    rms(broyden)= 0.13594E+02
  rms(prec ) = 0.57218E+00
  weight for this iteration     100.00
  WARNING: grid for Broyden might be to small

 eigenvalues of (default mixing * dielectric matrix)
  average eigenvalue GAMMA=   0.6342
  0.6342

 Free energy of the ion-electron system (eV)
  ---------------------------------------------------
  alpha Z        PSCENC =        16.50290948
  Ewald energy   TEWEN  =     19198.70097141
  -Hartree energ DENC   =    -23061.14027203
  -exchange      EXHF   =         0.00000000
  -V(xc)+E(xc)   XCENC  =       -83.61600090
  PAW double counting   =     20265.77705425   -19857.73108718
  entropy T*S    EENTRO =        -0.08235340
  eigenvalues    EBANDS =     -1674.77472343
  atomic energy  EATOM  =      4687.80966410
  Solvation  Ediel_sol  =         0.00000000
  ---------------------------------------------------
  free energy    TOTEN  =      -508.55383770 eV

  energy without entropy =     -508.47148431  energy(sigma->0) =     -508.51266101


--------------------------------------------------------------------------------------------------------




--------------------------------------- Iteration      1(   3)  ---------------------------------------


    POTLOK:  cpu time      1.8937: real time      1.9181
    SETDIJ:  cpu time      1.4375: real time      1.4383
    EDDIAG:  cpu time     43.2847: real time     43.3061
     EDDAV:  cpu time    189.2911: real time    189.4001
       DOS:  cpu time      0.0036: real time      0.0036
    CHARGE:  cpu time     24.2632: real time     24.2852
    MIXING:  cpu time      0.0380: real time      0.0380
    --------------------------------------------
      LOOP:  cpu time    260.2119: real time    260.3895

 eigenvalue-minimisations  :  2304
 total energy-change (2. order) :-0.8165282E+00  (-0.4176908E+00)
 number of electron     201.0000000 magnetization 
 augmentation part       -8.4811593 magnetization 

 Broyden mixing:
  rms(total) = 0.28134E+00    rms(broyden)= 0.14706E+02
  rms(prec ) = 0.31871E+00
  weight for this iteration     100.00
  WARNING: grid for Broyden might be to small

 eigenvalues of (default mixing * dielectric matrix)
  average eigenvalue GAMMA=   0.7600
  0.8933  0.6267

 Free energy of the ion-electron system (eV)
  ---------------------------------------------------
  alpha Z        PSCENC =        16.50290948
  Ewald energy   TEWEN  =     19198.70097141
  -Hartree energ DENC   =    -23062.47952582
  -exchange      EXHF   =         0.00000000
  -V(xc)+E(xc)   XCENC  =       -83.72229819
  PAW double counting   =     23409.99109111   -23002.00985986
  entropy T*S    EENTRO =        -0.08329342
  eigenvalues    EBANDS =     -1674.08002475
  atomic energy  EATOM  =      4687.80966410
  Solvation  Ediel_sol  =         0.00000000
  ---------------------------------------------------
  free energy    TOTEN  =      -509.37036595 eV

  energy without entropy =     -509.28707253  energy(sigma->0) =     -509.32871924


--------------------------------------------------------------------------------------------------------




--------------------------------------- Iteration      1(   4)  ---------------------------------------


    POTLOK:  cpu time      1.9151: real time      1.9246
    SETDIJ:  cpu time      1.4384: real time      1.4391
    EDDIAG:  cpu time     43.3024: real time     43.3258
     EDDAV:  cpu time    200.8640: real time    200.9762
       DOS:  cpu time      0.0025: real time      0.0025
    CHARGE:  cpu time     24.3010: real time     24.3235
    MIXING:  cpu time      0.0397: real time      0.0397
    --------------------------------------------
      LOOP:  cpu time    271.8631: real time    272.0314

 eigenvalue-minimisations  :  2560
 total energy-change (2. order) : 0.1300635E+00  (-0.4303878E-01)
 number of electron     201.0000000 magnetization 
 augmentation part       -8.4802418 magnetization 

 Broyden mixing:
  rms(total) = 0.45571E-01    rms(broyden)= 0.20422E+01
  rms(prec ) = 0.56274E-01
  weight for this iteration     100.00
  WARNING: grid for Broyden might be to small

 eigenvalues of (default mixing * dielectric matrix)
  average eigenvalue GAMMA=   1.1383
  2.0682  0.7236  0.6232

 Free energy of the ion-electron system (eV)
  ---------------------------------------------------
  alpha Z        PSCENC =        16.50290948
  Ewald energy   TEWEN  =     19198.70097141
  -Hartree energ DENC   =    -23064.92533488
  -exchange      EXHF   =         0.00000000
  -V(xc)+E(xc)   XCENC  =       -83.20047935
  PAW double counting   =     26951.16268485   -26543.22430719
  entropy T*S    EENTRO =        -0.08765833
  eigenvalues    EBANDS =     -1671.97875252
  atomic energy  EATOM  =      4687.80966410
  Solvation  Ediel_sol  =         0.00000000
  ---------------------------------------------------
  free energy    TOTEN  =      -509.24030243 eV

  energy without entropy =     -509.15264410  energy(sigma->0) =     -509.19647326


--------------------------------------------------------------------------------------------------------




--------------------------------------- Iteration      1(   5)  ---------------------------------------


    POTLOK:  cpu time      1.8814: real time      1.9089
    SETDIJ:  cpu time      1.4464: real time      1.4470
    EDDIAG:  cpu time     43.2923: real time     43.3162
     EDDAV:  cpu time    218.2399: real time    218.3693
       DOS:  cpu time      0.0028: real time      0.0028
    CHARGE:  cpu time     24.3057: real time     24.3285
    MIXING:  cpu time      0.0387: real time      0.0387
    --------------------------------------------
      LOOP:  cpu time    289.2071: real time    289.4114

 eigenvalue-minimisations  :  2944
 total energy-change (2. order) :-0.7436875E-02  (-0.4048221E-02)
 number of electron     201.0000000 magnetization 
 augmentation part       -8.4793775 magnetization 

 Broyden mixing:
  rms(total) = 0.23011E-01    rms(broyden)= 0.46391E+00
  rms(prec ) = 0.26431E-01
  weight for this iteration     100.00
  WARNING: grid for Broyden might be to small

 eigenvalues of (default mixing * dielectric matrix)
  average eigenvalue GAMMA=   1.1789
  2.5644  0.8874  0.6318  0.6318

 Free energy of the ion-electron system (eV)
  ---------------------------------------------------
  alpha Z        PSCENC =        16.50290948
  Ewald energy   TEWEN  =     19198.70097141
  -Hartree energ DENC   =    -23065.36379621
  -exchange      EXHF   =         0.00000000
  -V(xc)+E(xc)   XCENC  =       -83.68044895
  PAW double counting   =     26679.24970166   -26271.29961829
  entropy T*S    EENTRO =        -0.08360589
  eigenvalues    EBANDS =     -1671.08351661
  atomic energy  EATOM  =      4687.80966410
  Solvation  Ediel_sol  =         0.00000000
  ---------------------------------------------------
  free energy    TOTEN  =      -509.24773930 eV

  energy without entropy =     -509.16413341  energy(sigma->0) =     -509.20593636


--------------------------------------------------------------------------------------------------------




--------------------------------------- Iteration      1(   6)  ---------------------------------------


    POTLOK:  cpu time      1.8878: real time      1.9132
    SETDIJ:  cpu time      1.4470: real time      1.4479
    EDDIAG:  cpu time     43.3053: real time     43.3309
     EDDAV:  cpu time    197.9913: real time    198.1073
       DOS:  cpu time      0.0032: real time      0.0032
    CHARGE:  cpu time     24.2680: real time     24.2889
    MIXING:  cpu time      0.0397: real time      0.0397
    --------------------------------------------
      LOOP:  cpu time    268.9424: real time    269.1311

 eigenvalue-minimisations  :  2496
 total energy-change (2. order) :-0.6941833E-03  (-0.8626356E-03)
 number of electron     201.0000000 magnetization 
 augmentation part       -8.4785627 magnetization 

 Broyden mixing:
  rms(total) = 0.14303E-01    rms(broyden)= 0.77454E-01
  rms(prec ) = 0.15425E-01
  weight for this iteration     100.00
  WARNING: grid for Broyden might be to small

 eigenvalues of (default mixing * dielectric matrix)
  average eigenvalue GAMMA=   1.1222
  2.5647  0.8893  0.8893  0.6204  0.6474

 Free energy of the ion-electron system (eV)
  ---------------------------------------------------
  alpha Z        PSCENC =        16.50290948
  Ewald energy   TEWEN  =     19198.70097141
  -Hartree energ DENC   =    -23065.66679211
  -exchange      EXHF   =         0.00000000
  -V(xc)+E(xc)   XCENC  =       -83.75426463
  PAW double counting   =     26654.77158546   -26246.81745272
  entropy T*S    EENTRO =        -0.08416613
  eigenvalues    EBANDS =     -1670.71088836
  atomic energy  EATOM  =      4687.80966410
  Solvation  Ediel_sol  =         0.00000000
  ---------------------------------------------------
  free energy    TOTEN  =      -509.24843349 eV

  energy without entropy =     -509.16426736  energy(sigma->0) =     -509.20635042


--------------------------------------------------------------------------------------------------------




--------------------------------------- Iteration      1(   7)  ---------------------------------------


    POTLOK:  cpu time      1.8838: real time      1.9107
    SETDIJ:  cpu time      1.4453: real time      1.4463
    EDDIAG:  cpu time     43.2253: real time     43.2490
     EDDAV:  cpu time    199.5430: real time    199.6480
       DOS:  cpu time      0.0023: real time      0.0023
    CHARGE:  cpu time     24.3122: real time     24.3347
    MIXING:  cpu time      0.0393: real time      0.0393
    --------------------------------------------
      LOOP:  cpu time    270.4514: real time    270.6303

 eigenvalue-minimisations  :  2528
 total energy-change (2. order) :-0.6778744E-03  (-0.2597931E-03)
 number of electron     201.0000000 magnetization 
 augmentation part       -8.4776854 magnetization 

 Broyden mixing:
  rms(total) = 0.77841E-02    rms(broyden)= 0.68963E-01
  rms(prec ) = 0.94299E-02
  weight for this iteration     100.00
  WARNING: grid for Broyden might be to small

 eigenvalues of (default mixing * dielectric matrix)
  average eigenvalue GAMMA=   1.1654
  2.5744  1.5148  0.9530  0.6862  0.6485  0.6155

 Free energy of the ion-electron system (eV)
  ---------------------------------------------------
  alpha Z        PSCENC =        16.50290948
  Ewald energy   TEWEN  =     19198.70097141
  -Hartree energ DENC   =    -23065.99449810
  -exchange      EXHF   =         0.00000000
  -V(xc)+E(xc)   XCENC  =       -83.70795725
  PAW double counting   =     26645.17227924   -26237.21184927
  entropy T*S    EENTRO =        -0.08456136
  eigenvalues    EBANDS =     -1670.43606962
  atomic energy  EATOM  =      4687.80966410
  Solvation  Ediel_sol  =         0.00000000
  ---------------------------------------------------
  free energy    TOTEN  =      -509.24911136 eV

  energy without entropy =     -509.16455000  energy(sigma->0) =     -509.20683068


--------------------------------------------------------------------------------------------------------




--------------------------------------- Iteration      1(   8)  ---------------------------------------


    POTLOK:  cpu time      1.8780: real time      1.9031
    SETDIJ:  cpu time      1.5028: real time      1.5036
    EDDIAG:  cpu time     43.3282: real time     43.3512
     EDDAV:  cpu time    195.8131: real time    195.9202
       DOS:  cpu time      0.0024: real time      0.0024
    CHARGE:  cpu time     24.2804: real time     24.3033
    MIXING:  cpu time      0.0406: real time      0.0406
    --------------------------------------------
      LOOP:  cpu time    266.8456: real time    267.0245

 eigenvalue-minimisations  :  2448
 total energy-change (2. order) :-0.1810447E-03  (-0.1171190E-03)
 number of electron     201.0000000 magnetization 
 augmentation part       -8.4774059 magnetization 

 Broyden mixing:
  rms(total) = 0.34442E-02    rms(broyden)= 0.24518E-01
  rms(prec ) = 0.41414E-02
  weight for this iteration     100.00
  WARNING: grid for Broyden might be to small

 eigenvalues of (default mixing * dielectric matrix)
  average eigenvalue GAMMA=   1.1370
  2.5722  1.8481  0.9222  0.7569  0.6590  0.6004  0.6004

 Free energy of the ion-electron system (eV)
  ---------------------------------------------------
  alpha Z        PSCENC =        16.50290948
  Ewald energy   TEWEN  =     19198.70097141
  -Hartree energ DENC   =    -23066.14443304
  -exchange      EXHF   =         0.00000000
  -V(xc)+E(xc)   XCENC  =       -83.68070546
  PAW double counting   =     26649.82932525   -26241.86522611
  entropy T*S    EENTRO =        -0.08446586
  eigenvalues    EBANDS =     -1670.31733218
  atomic energy  EATOM  =      4687.80966410
  Solvation  Ediel_sol  =         0.00000000
  ---------------------------------------------------
  free energy    TOTEN  =      -509.24929240 eV

  energy without entropy =     -509.16482654  energy(sigma->0) =     -509.20705947


--------------------------------------------------------------------------------------------------------




--------------------------------------- Iteration      1(   9)  ---------------------------------------


    POTLOK:  cpu time      1.9578: real time      1.9847
    SETDIJ:  cpu time      1.4503: real time      1.4512
    EDDIAG:  cpu time     43.2688: real time     43.2933
     EDDAV:  cpu time    195.9089: real time    196.0184
       DOS:  cpu time      0.0024: real time      0.0024
    CHARGE:  cpu time     24.2892: real time     24.3104
    MIXING:  cpu time      0.0405: real time      0.0405
    --------------------------------------------
      LOOP:  cpu time    266.9182: real time    267.1011

 eigenvalue-minimisations  :  2448
 total energy-change (2. order) :-0.6809360E-04  (-0.8368522E-04)
 number of electron     201.0000000 magnetization 
 augmentation part       -8.4773415 magnetization 

 Broyden mixing:
  rms(total) = 0.18718E-02    rms(broyden)= 0.23120E-01
  rms(prec ) = 0.23505E-02
  weight for this iteration     100.00
  WARNING: grid for Broyden might be to small

 eigenvalues of (default mixing * dielectric matrix)
  average eigenvalue GAMMA=   1.2326
  2.7447  2.6231  1.0414  1.0414  0.7076  0.6238  0.6238  0.4548

 Free energy of the ion-electron system (eV)
  ---------------------------------------------------
  alpha Z        PSCENC =        16.50290948
  Ewald energy   TEWEN  =     19198.70097141
  -Hartree energ DENC   =    -23066.16893307
  -exchange      EXHF   =         0.00000000
  -V(xc)+E(xc)   XCENC  =       -83.67315214
  PAW double counting   =     26653.01037301   -26245.04422466
  entropy T*S    EENTRO =        -0.08456731
  eigenvalues    EBANDS =     -1670.30240131
  atomic energy  EATOM  =      4687.80966410
  Solvation  Ediel_sol  =         0.00000000
  ---------------------------------------------------
  free energy    TOTEN  =      -509.24936050 eV

  energy without entropy =     -509.16479318  energy(sigma->0) =     -509.20707684


--------------------------------------------------------------------------------------------------------




--------------------------------------- Iteration      1(  10)  ---------------------------------------


    POTLOK:  cpu time      1.8815: real time      1.9107
    SETDIJ:  cpu time      1.4448: real time      1.4456
    EDDIAG:  cpu time     43.3416: real time     43.3662
     EDDAV:  cpu time    197.2330: real time    197.3430
       DOS:  cpu time      0.0024: real time      0.0024
    CHARGE:  cpu time     24.3391: real time     24.3584
    MIXING:  cpu time      0.0425: real time      0.0425
    --------------------------------------------
      LOOP:  cpu time    268.2846: real time    268.4685

 eigenvalue-minimisations  :  2480
 total energy-change (2. order) :-0.4449594E-04  (-0.3395125E-04)
 number of electron     201.0000000 magnetization 
 augmentation part       -8.4773685 magnetization 

 Broyden mixing:
  rms(total) = 0.10440E-02    rms(broyden)= 0.13868E-01
  rms(prec ) = 0.13879E-02
  weight for this iteration     100.00
  WARNING: grid for Broyden might be to small

 eigenvalues of (default mixing * dielectric matrix)
  average eigenvalue GAMMA=   1.3385
  3.7045  2.5884  1.4240  1.0811  0.8242  0.6933  0.6330  0.6181  0.4803

 Free energy of the ion-electron system (eV)
  ---------------------------------------------------
  alpha Z        PSCENC =        16.50290948
  Ewald energy   TEWEN  =     19198.70097141
  -Hartree energ DENC   =    -23066.16002784
  -exchange      EXHF   =         0.00000000
  -V(xc)+E(xc)   XCENC  =       -83.66960139
  PAW double counting   =     26654.77899787   -26246.81156991
  entropy T*S    EENTRO =        -0.08450609
  eigenvalues    EBANDS =     -1670.31624262
  atomic energy  EATOM  =      4687.80966410
  Solvation  Ediel_sol  =         0.00000000
  ---------------------------------------------------
  free energy    TOTEN  =      -509.24940499 eV

  energy without entropy =     -509.16489890  energy(sigma->0) =     -509.20715195


--------------------------------------------------------------------------------------------------------




--------------------------------------- Iteration      1(  11)  ---------------------------------------


    POTLOK:  cpu time      1.8829: real time      1.9105
    SETDIJ:  cpu time      1.4469: real time      1.4478
    EDDIAG:  cpu time     43.3125: real time     43.3346
     EDDAV:  cpu time    195.0916: real time    195.2012
       DOS:  cpu time      0.0028: real time      0.0028
    CHARGE:  cpu time     24.3080: real time     24.3299
    MIXING:  cpu time      0.0427: real time      0.0427
    --------------------------------------------
      LOOP:  cpu time    266.0874: real time    266.2695

 eigenvalue-minimisations  :  2432
 total energy-change (2. order) :-0.1055239E-03  (-0.2061046E-04)
 number of electron     201.0000000 magnetization 
 augmentation part       -8.4773899 magnetization 

 Broyden mixing:
  rms(total) = 0.62234E-03    rms(broyden)= 0.11129E-01
  rms(prec ) = 0.89948E-03
  weight for this iteration     100.00
  WARNING: grid for Broyden might be to small

 eigenvalues of (default mixing * dielectric matrix)
  average eigenvalue GAMMA=   1.5169
  5.4799  2.5962  1.9695  1.0260  1.0260  0.7213  0.6224  0.6224  0.5801  0.5253

 Free energy of the ion-electron system (eV)
  ---------------------------------------------------
  alpha Z        PSCENC =        16.50290948
  Ewald energy   TEWEN  =     19198.70097141
  -Hartree energ DENC   =    -23066.14631964
  -exchange      EXHF   =         0.00000000
  -V(xc)+E(xc)   XCENC  =       -83.66867377
  PAW double counting   =     26652.10589525   -26244.13752572
  entropy T*S    EENTRO =        -0.08459085
  eigenvalues    EBANDS =     -1670.33184079
  atomic energy  EATOM  =      4687.80966410
  Solvation  Ediel_sol  =         0.00000000
  ---------------------------------------------------
  free energy    TOTEN  =      -509.24951052 eV

  energy without entropy =     -509.16491967  energy(sigma->0) =     -509.20721509


--------------------------------------------------------------------------------------------------------




--------------------------------------- Iteration      1(  12)  ---------------------------------------


    POTLOK:  cpu time      1.8833: real time      1.9115
    SETDIJ:  cpu time      1.4479: real time      1.4485
    EDDIAG:  cpu time     43.2947: real time     43.3172
     EDDAV:  cpu time    196.4713: real time    196.5884
       DOS:  cpu time      0.0026: real time      0.0026
    CHARGE:  cpu time     24.3141: real time     24.3354
    MIXING:  cpu time      0.0439: real time      0.0440
    --------------------------------------------
      LOOP:  cpu time    267.4578: real time    267.6475

 eigenvalue-minimisations  :  2464
 total energy-change (2. order) :-0.7287054E-04  (-0.1657783E-04)
 number of electron     201.0000000 magnetization 
 augmentation part       -8.4773935 magnetization 

 Broyden mixing:
  rms(total) = 0.43597E-03    rms(broyden)= 0.85321E-02
  rms(prec ) = 0.63459E-03
  weight for this iteration     100.00
  WARNING: grid for Broyden might be to small

 eigenvalues of (default mixing * dielectric matrix)
  average eigenvalue GAMMA=   1.7013
  7.5305  2.5372  2.4634  1.1237  1.1237  0.7790  0.7790  0.5225  0.6476  0.6191
  0.5883

 Free energy of the ion-electron system (eV)
  ---------------------------------------------------
  alpha Z        PSCENC =        16.50290948
  Ewald energy   TEWEN  =     19198.70097141
  -Hartree energ DENC   =    -23066.13431708
  -exchange      EXHF   =         0.00000000
  -V(xc)+E(xc)   XCENC  =       -83.66892385
  PAW double counting   =     26651.63759719   -26243.66885396
  entropy T*S    EENTRO =        -0.08458734
  eigenvalues    EBANDS =     -1670.34404334
  atomic energy  EATOM  =      4687.80966410
  Solvation  Ediel_sol  =         0.00000000
  ---------------------------------------------------
  free energy    TOTEN  =      -509.24958339 eV

  energy without entropy =     -509.16499605  energy(sigma->0) =     -509.20728972


--------------------------------------------------------------------------------------------------------




--------------------------------------- Iteration      1(  13)  ---------------------------------------


    POTLOK:  cpu time      1.8823: real time      1.9124
    SETDIJ:  cpu time      1.4518: real time      1.4529
    EDDIAG:  cpu time     43.3825: real time     43.4051
     EDDAV:  cpu time    195.0784: real time    195.2363
       DOS:  cpu time      0.0028: real time      0.0028
    CHARGE:  cpu time     24.2869: real time     24.3092
    MIXING:  cpu time      0.0444: real time      0.0444
    --------------------------------------------
      LOOP:  cpu time    266.1292: real time    266.3633

 eigenvalue-minimisations  :  2432
 total energy-change (2. order) :-0.1353717E-03  (-0.2245272E-04)
 number of electron     201.0000000 magnetization 
 augmentation part       -8.4774047 magnetization 

 Broyden mixing:
  rms(total) = 0.22060E-03    rms(broyden)= 0.66730E-02
  rms(prec ) = 0.39314E-03
  weight for this iteration     100.00
  WARNING: grid for Broyden might be to small

 eigenvalues of (default mixing * dielectric matrix)
  average eigenvalue GAMMA=   1.8006
  9.0426  2.6563  2.6563  1.5293  1.0191  0.9851  0.7262  0.5196  0.6336  0.6336
  0.6027  0.6027

 Free energy of the ion-electron system (eV)
  ---------------------------------------------------
  alpha Z        PSCENC =        16.50290948
  Ewald energy   TEWEN  =     19198.70097141
  -Hartree energ DENC   =    -23066.11274483
  -exchange      EXHF   =         0.00000000
  -V(xc)+E(xc)   XCENC  =       -83.67195346
  PAW double counting   =     26651.78514112   -26243.81644121
  entropy T*S    EENTRO =        -0.08456674
  eigenvalues    EBANDS =     -1670.36269864
  atomic energy  EATOM  =      4687.80966410
  Solvation  Ediel_sol  =         0.00000000
  ---------------------------------------------------
  free energy    TOTEN  =      -509.24971876 eV

  energy without entropy =     -509.16515202  energy(sigma->0) =     -509.20743539


--------------------------------------------------------------------------------------------------------




--------------------------------------- Iteration      1(  14)  ---------------------------------------


    POTLOK:  cpu time      1.9153: real time      1.9164
    SETDIJ:  cpu time      1.4407: real time      1.4413
    EDDIAG:  cpu time     43.3571: real time     43.3812
     EDDAV:  cpu time    196.5823: real time    196.6925
       DOS:  cpu time      0.0028: real time      0.0028
    CHARGE:  cpu time     24.2935: real time     24.3165
    MIXING:  cpu time      0.0446: real time      0.0446
    --------------------------------------------
      LOOP:  cpu time    267.6363: real time    267.7955

 eigenvalue-minimisations  :  2464
 total energy-change (2. order) :-0.1613398E-03  (-0.3301616E-04)
 number of electron     201.0000000 magnetization 
 augmentation part       -8.4774120 magnetization 

 Broyden mixing:
  rms(total) = 0.14458E-03    rms(broyden)= 0.48553E-02
  rms(prec ) = 0.23291E-03
  weight for this iteration     100.00
  WARNING: grid for Broyden might be to small

 eigenvalues of (default mixing * dielectric matrix)
  average eigenvalue GAMMA=   1.8070
  9.5982  2.7380  2.7380  1.5815  1.1037  1.1037  0.8421  0.8421  0.6492  0.6236
  0.5280  0.5542  0.5888

 Free energy of the ion-electron system (eV)
  ---------------------------------------------------
  alpha Z        PSCENC =        16.50290948
  Ewald energy   TEWEN  =     19198.70097141
  -Hartree energ DENC   =    -23066.08455435
  -exchange      EXHF   =         0.00000000
  -V(xc)+E(xc)   XCENC  =       -83.67301092
  PAW double counting   =     26651.80938075   -26243.84075355
  entropy T*S    EENTRO =        -0.08458120
  eigenvalues    EBANDS =     -1670.38990583
  atomic energy  EATOM  =      4687.80966410
  Solvation  Ediel_sol  =         0.00000000
  ---------------------------------------------------
  free energy    TOTEN  =      -509.24988010 eV

  energy without entropy =     -509.16529890  energy(sigma->0) =     -509.20758950


--------------------------------------------------------------------------------------------------------




--------------------------------------- Iteration      1(  15)  ---------------------------------------


    POTLOK:  cpu time      1.9715: real time      1.9866
    SETDIJ:  cpu time      1.4502: real time      1.4513
    EDDIAG:  cpu time     43.3079: real time     43.3326
     EDDAV:  cpu time    200.2029: real time    200.3202
       DOS:  cpu time      0.0123: real time      0.0126
    CHARGE:  cpu time     24.3060: real time     24.3298
    MIXING:  cpu time      0.0622: real time      0.0623
    --------------------------------------------
      LOOP:  cpu time    271.3130: real time    271.4955

 eigenvalue-minimisations  :  2544
 total energy-change (2. order) :-0.1134943E-03  (-0.1782636E-04)
 number of electron     201.0000000 magnetization 
 augmentation part       -8.4774202 magnetization 

 Broyden mixing:
  rms(total) = 0.10120E-03    rms(broyden)= 0.38965E-02
  rms(prec ) = 0.15629E-03
  weight for this iteration     100.00
  WARNING: grid for Broyden might be to small

 eigenvalues of (default mixing * dielectric matrix)
  average eigenvalue GAMMA=   1.7950
  9.8546  2.8936  2.7229  1.8216  1.4906  1.0376  0.8715  0.7477  0.7477  0.5246
  0.6326  0.6326  0.5764  0.5764

 Free energy of the ion-electron system (eV)
  ---------------------------------------------------
  alpha Z        PSCENC =        16.50290948
  Ewald energy   TEWEN  =     19198.70097141
  -Hartree energ DENC   =    -23066.06541845
  -exchange      EXHF   =         0.00000000
  -V(xc)+E(xc)   XCENC  =       -83.67321756
  PAW double counting   =     26651.73592821   -26243.76736653
  entropy T*S    EENTRO =        -0.08458181
  eigenvalues    EBANDS =     -1670.40888246
  atomic energy  EATOM  =      4687.80966410
  Solvation  Ediel_sol  =         0.00000000
  ---------------------------------------------------
  free energy    TOTEN  =      -509.24999359 eV

  energy without entropy =     -509.16541179  energy(sigma->0) =     -509.20770269


--------------------------------------------------------------------------------------------------------




--------------------------------------- Iteration      1(  16)  ---------------------------------------


    POTLOK:  cpu time      1.9176: real time      1.9208
    SETDIJ:  cpu time      1.4562: real time      1.4580
    EDDIAG:  cpu time     43.3079: real time     43.3318
     EDDAV:  cpu time    196.6107: real time    196.7219
       DOS:  cpu time      0.0045: real time      0.0045
    CHARGE:  cpu time     24.2959: real time     24.3175
    MIXING:  cpu time      0.0466: real time      0.0466
    --------------------------------------------
      LOOP:  cpu time    267.6395: real time    267.8010

 eigenvalue-minimisations  :  2464
 total energy-change (2. order) :-0.4920228E-04  (-0.1000920E-04)
 number of electron     201.0000000 magnetization 
 augmentation part       -8.4774225 magnetization 

 Broyden mixing:
  rms(total) = 0.87424E-04    rms(broyden)= 0.25159E-02
  rms(prec ) = 0.12549E-03
  weight for this iteration     100.00
  WARNING: grid for Broyden might be to small

 eigenvalues of (default mixing * dielectric matrix)
  average eigenvalue GAMMA=   1.7839
  9.9657  3.1081  2.7119  2.2694  1.2328  1.0821  1.0821  0.8643  0.8643  0.5212
  0.6611  0.6273  0.6273  0.5705  0.5705

 Free energy of the ion-electron system (eV)
  ---------------------------------------------------
  alpha Z        PSCENC =        16.50290948
  Ewald energy   TEWEN  =     19198.70097141
  -Hartree energ DENC   =    -23066.05116538
  -exchange      EXHF   =         0.00000000
  -V(xc)+E(xc)   XCENC  =       -83.67345064
  PAW double counting   =     26651.68013750   -26243.71159092
  entropy T*S    EENTRO =        -0.08459011
  eigenvalues    EBANDS =     -1670.42292824
  atomic energy  EATOM  =      4687.80966410
  Solvation  Ediel_sol  =         0.00000000
  ---------------------------------------------------
  free energy    TOTEN  =      -509.25004280 eV

  energy without entropy =     -509.16545269  energy(sigma->0) =     -509.20774774


--------------------------------------------------------------------------------------------------------




--------------------------------------- Iteration      1(  17)  ---------------------------------------


    POTLOK:  cpu time      1.8941: real time      1.9154
    SETDIJ:  cpu time      1.4509: real time      1.4515
    EDDIAG:  cpu time     43.2865: real time     43.3110
     EDDAV:  cpu time    202.0405: real time    202.1615
       DOS:  cpu time      0.0025: real time      0.0025
    CHARGE:  cpu time     24.3467: real time     24.3680
    MIXING:  cpu time      0.0470: real time      0.0470
    --------------------------------------------
      LOOP:  cpu time    273.0681: real time    273.2569

 eigenvalue-minimisations  :  2584
 total energy-change (2. order) :-0.2458013E-04  (-0.4704047E-05)
 number of electron     201.0000000 magnetization 
 augmentation part       -8.4774315 magnetization 

 Broyden mixing:
  rms(total) = 0.40673E-04    rms(broyden)= 0.16432E-02
  rms(prec ) = 0.65304E-04
  weight for this iteration     100.00
[...]
   -.104E+01 -.953E+01 0.256E+01   0.109E+01 0.101E+02 -.376E+01   -.444E+00 -.380E+00 0.125E+01   0.275E-05 -.416E-05 -.736E-05
   0.774E+01 -.370E+01 -.777E+02   -.877E+01 0.481E+01 0.808E+02   0.135E+01 -.101E+01 -.285E+01   -.713E-05 -.469E-05 0.121E-04
   -.181E+01 -.172E+02 0.235E+02   0.118E+01 0.219E+02 -.218E+02   0.755E+00 -.482E+01 -.189E+01   0.813E-05 -.763E-05 -.871E-05
   0.375E+01 0.232E+02 -.449E+02   -.587E+01 -.280E+02 0.452E+02   0.215E+01 0.483E+01 -.202E+00   -.443E-05 -.865E-05 -.672E-05
   0.108E+01 -.191E+02 0.525E+02   -.110E+01 0.220E+02 -.532E+02   -.379E-01 -.293E+01 0.941E+00   0.737E-05 -.357E-05 -.154E-05
   -.793E+01 -.172E+02 0.582E+02   0.869E+01 0.193E+02 -.605E+02   -.668E+00 -.205E+01 0.231E+01   -.678E-05 -.655E-05 -.562E-05
   0.107E+02 0.167E+02 -.283E+02   -.152E+02 -.183E+02 0.301E+02   0.467E+01 0.143E+01 -.186E+01   -.456E-05 -.133E-04 -.379E-05
   -.219E+02 0.212E+02 0.234E+02   0.243E+02 -.230E+02 -.234E+02   -.238E+01 0.189E+01 -.731E-01   -.402E-06 -.187E-04 -.106E-04
   0.975E+01 0.217E+02 -.989E+01   -.117E+02 -.243E+02 0.958E+01   0.176E+01 0.267E+01 0.262E+00   0.336E-05 -.138E-04 -.887E-05
   -.165E+02 0.982E+01 0.310E+02   0.192E+02 -.115E+02 -.304E+02   -.268E+01 0.175E+01 -.645E+00   0.377E-05 -.891E-05 -.666E-05
   -.758E+01 -.621E+01 0.385E+02   0.880E+01 0.716E+01 -.415E+02   -.123E+01 -.830E+00 0.295E+01   0.946E-05 -.441E-05 -.156E-04
   -.179E+01 -.215E+02 0.526E+02   0.266E+01 0.248E+02 -.535E+02   -.909E+00 -.312E+01 0.893E+00   -.117E-05 -.528E-05 -.461E-05
   -.235E+02 0.865E+01 -.865E+01   0.281E+02 -.737E+01 0.675E+01   -.468E+01 -.140E+01 0.196E+01   -.124E-05 -.164E-04 -.608E-05
   0.263E+01 -.904E+01 -.659E+02   -.333E+01 0.106E+02 0.692E+02   0.402E+00 -.113E+01 -.317E+01   0.215E-05 -.252E-05 -.106E-04
   -.777E+01 -.111E+02 -.254E+02   0.907E+01 0.123E+02 0.281E+02   -.114E+01 -.986E+00 -.253E+01   -.644E-05 -.301E-05 -.651E-05
   0.119E+02 0.820E+01 0.675E+02   -.135E+02 -.971E+01 -.702E+02   0.154E+01 0.131E+01 0.260E+01   0.385E-05 -.552E-05 0.240E-05
   0.461E+02 -.247E+02 -.167E+03   -.455E+02 0.233E+02 0.168E+03   -.181E+00 0.121E+01 -.847E+00   0.571E-05 0.231E-04 -.260E-04
   0.126E+02 0.252E+02 0.712E+02   -.105E+02 -.252E+02 -.725E+02   -.178E+01 -.270E+00 0.107E+01   0.326E-04 0.429E-04 -.667E-04
   0.240E+02 -.122E+02 0.221E+03   -.243E+02 0.128E+02 -.220E+03   -.100E+00 -.489E+00 -.688E+00   -.442E-04 0.527E-04 0.125E-04
   -.166E+02 0.342E+02 -.211E+03   0.123E+02 -.364E+02 0.212E+03   0.355E+01 0.216E+01 -.100E+01   -.311E-04 -.454E-04 0.163E-04
   0.480E-01 0.192E+02 -.251E+03   0.624E+00 -.187E+02 0.252E+03   -.266E+00 -.399E+00 -.556E+00   -.719E-05 -.146E-04 -.868E-05
   0.143E+01 -.225E+02 -.206E+02   -.578E+01 0.231E+02 0.203E+02   0.343E+01 -.981E+00 0.243E+00   0.142E-04 0.353E-06 -.285E-04
   0.511E+02 0.112E+02 0.171E+03   -.520E+02 -.106E+02 -.172E+03   0.683E+00 -.698E+00 0.534E+00   -.280E-04 0.198E-04 -.131E-05
   0.320E+01 0.624E+02 -.131E+03   -.653E+01 -.596E+02 0.134E+03   0.328E+01 -.240E+01 -.219E+01   0.868E-05 -.339E-04 -.276E-04
   -.387E+02 0.146E+02 0.102E+03   0.370E+02 -.144E+02 -.102E+03   0.182E+01 -.259E+00 -.153E+00   0.553E-04 0.355E-04 -.704E-04
   -.174E+02 -.262E+02 0.830E+01   0.160E+02 0.241E+02 -.952E+01   0.133E+01 0.170E+01 0.115E+01   -.269E-05 0.255E-04 -.310E-04
   0.242E+02 -.233E+02 0.157E+03   -.239E+02 0.215E+02 -.160E+03   -.314E+00 0.151E+01 0.226E+01   -.246E-04 0.195E-04 -.598E-04
   0.121E+02 0.239E+02 0.124E+03   -.132E+02 -.232E+02 -.124E+03   0.850E+00 -.920E+00 -.572E+00   -.330E-04 -.353E-04 -.990E-05
   -.100E+01 -.116E+02 0.192E+03   0.124E+01 0.876E+01 -.192E+03   -.334E+00 0.217E+01 -.375E+00   0.449E-04 -.218E-04 -.456E-05
   -.823E+01 -.255E+02 0.887E+02   0.824E+01 0.257E+02 -.886E+02   0.393E-01 -.491E+00 0.121E+00   -.482E-04 -.288E-04 -.282E-04
   -.327E+01 -.138E+02 -.148E+03   0.342E+01 0.144E+02 0.146E+03   -.825E-01 -.648E+00 0.238E+01   -.587E-04 0.388E-04 0.519E-05
   -.365E+01 -.205E+02 -.109E+03   0.833E+01 0.175E+02 0.111E+03   -.395E+01 0.181E+01 -.200E+01   0.120E-04 -.169E-04 -.481E-04
   -.284E+02 0.200E+02 0.489E+02   0.286E+02 -.184E+02 -.478E+02   -.261E+00 -.198E+01 -.126E+01   0.147E-03 0.456E-04 -.853E-04
   0.215E+02 -.348E+02 0.209E+02   -.192E+02 0.336E+02 -.183E+02   -.165E+01 0.115E+01 -.244E+01   0.313E-04 0.516E-04 -.766E-04
   0.796E+01 -.127E+01 0.154E+03   -.752E+01 0.157E+01 -.155E+03   -.455E+00 -.162E+00 0.769E+00   0.682E-05 -.298E-04 -.221E-04
   -.566E+01 0.267E+02 0.984E+02   0.488E+01 -.257E+02 -.998E+02   0.127E+01 -.797E+00 0.959E+00   -.109E-04 -.512E-04 -.216E-04
   0.183E+02 0.107E+01 0.585E+02   -.174E+02 0.370E+00 -.575E+02   -.791E+00 -.110E+01 -.767E+00   0.703E-04 0.119E-04 -.430E-04
   -.534E+02 -.267E+02 -.207E+03   0.545E+02 0.284E+02 0.209E+03   -.996E+00 -.132E+01 -.483E+00   0.358E-04 0.360E-04 -.513E-04
   -.105E+02 0.410E+02 -.115E+03   0.959E+01 -.400E+02 0.114E+03   0.107E+01 -.982E+00 0.148E+01   -.494E-04 -.354E-04 -.340E-05
   -.405E+02 0.126E+02 0.221E+03   0.408E+02 -.111E+02 -.225E+03   -.494E+00 -.124E+01 0.271E+01   0.305E-05 0.641E-05 -.518E-04
   -.261E+02 -.474E+01 0.612E+02   0.249E+02 0.426E+01 -.600E+02   0.116E+01 0.486E+00 -.137E+01   -.168E-05 -.501E-04 -.314E-04
   -.148E+02 -.188E+02 0.140E+03   0.147E+02 0.175E+02 -.141E+03   0.334E+00 0.192E+01 0.409E+00   -.416E-04 0.935E-04 -.201E-04
   -.545E+00 0.256E+02 -.122E+03   -.101E+01 -.232E+02 0.125E+03   0.114E+01 -.235E+01 -.145E+01   -.263E-04 -.204E-04 -.774E-06
   0.742E+01 -.369E+02 0.635E+02   -.868E+01 0.362E+02 -.643E+02   0.110E+01 0.820E+00 0.349E+00   -.931E-04 0.964E-04 -.546E-04
   -.149E+02 -.679E+00 -.147E+03   0.144E+02 -.697E+00 0.148E+03   0.165E+00 0.119E+01 -.517E+00   0.452E-04 -.100E-04 -.725E-04
   -.326E+02 0.389E+02 -.114E+03   0.374E+02 -.355E+02 0.108E+03   -.444E+01 -.260E+01 0.487E+01   0.481E-04 -.325E-04 -.106E-04
   0.428E+02 -.274E+02 -.140E+02   -.426E+02 0.262E+02 0.137E+02   -.235E+00 0.149E+01 0.482E+00   -.633E-04 0.764E-04 -.502E-04
   0.411E+02 -.254E+02 -.111E+01   -.403E+02 0.261E+02 -.179E+01   -.116E+01 -.615E+00 0.266E+01   -.613E-04 0.818E-04 -.282E-04
   0.323E+02 -.573E+02 -.167E+03   -.325E+02 0.578E+02 0.167E+03   0.254E+00 -.594E+00 -.325E+00   -.325E-04 0.698E-04 -.498E-04
   0.437E+02 0.351E+02 -.148E+02   -.433E+02 -.347E+02 0.151E+02   -.197E+00 -.647E+00 -.349E+00   0.720E-05 -.160E-04 -.300E-04
   0.205E+02 -.789E+01 0.620E+02   -.182E+02 0.626E+01 -.591E+02   -.200E+01 0.152E+01 -.277E+01   -.324E-04 -.937E-04 -.454E-04
   -.174E+02 -.692E+01 0.185E+03   0.172E+02 0.559E+01 -.189E+03   0.450E+00 0.926E+00 0.294E+01   -.609E-04 0.226E-04 -.153E-04
   0.323E+01 -.520E+02 -.137E+03   -.444E+01 0.532E+02 0.141E+03   0.125E+01 -.768E+00 -.302E+01   -.343E-04 0.432E-04 -.528E-04
   -.205E+02 0.446E+02 0.175E+03   0.188E+02 -.427E+02 -.178E+03   0.136E+01 -.202E+01 0.223E+01   -.194E-04 -.569E-04 -.216E-04
   -.298E+02 0.433E+02 0.109E+03   0.315E+02 -.440E+02 -.108E+03   -.137E+01 0.554E+00 -.839E+00   -.235E-04 -.685E-04 -.242E-04
   -.728E+01 0.198E+02 -.412E+02   0.958E+01 -.223E+02 0.413E+02   -.216E+01 0.209E+01 0.359E+00   0.439E-04 -.592E-04 -.448E-04
   -.191E+02 -.438E+02 -.127E+03   0.182E+02 0.434E+02 0.126E+03   0.934E+00 0.594E+00 0.732E+00   -.329E-04 0.742E-04 -.248E-04
 -----------------------------------------------------------------------------------------------
   -.224E+01 0.733E+01 0.646E+01   -.639E-13 0.135E-12 0.142E-13   0.224E+01 -.732E+01 -.646E+01   -.208E-03 -.163E-04 -.156E-02


 POSITION                                       TOTAL-FORCE (eV/Angst)
 -----------------------------------------------------------------------------------
      7.67564      1.80656     12.80461        -0.148940      0.450305      0.059060
      3.61195      4.83870     10.29024        -0.032207     -0.006694     -0.079507
      8.92120      0.73432     10.86254         0.117798      0.011101     -0.043814
      2.59618      7.46333     15.31036        -0.019311     -0.056419     -0.067584
     11.45509      3.87827     13.07943        -0.351719      0.057943      0.512386
      9.71120      3.21053     14.80322         0.021158     -0.325031     -0.105240
      1.60502      5.26688     15.59851         0.230635     -0.018829      0.076954
      3.25701      2.26232     13.84329         0.193097      0.188360      0.037702
      9.59994      1.07456     13.25900         0.099483      0.028702      0.045912
     11.82763      8.74695     14.16313         0.027926      0.006253     -0.051563
     10.48774     13.19211     13.60714        -0.211530     -0.043336      0.062704
     13.62471      3.21579     14.24702        -0.024174      0.039758      0.171013
     12.43633      1.12743     13.24380         0.079301      0.073107      0.073051
     10.60664      3.66836     10.79539         0.034192      0.174469      0.088837
      3.36091      2.54507     11.40158         0.180872      0.065502      0.105248
      5.83189      5.74989     14.03478         0.121596      0.009778      0.130330
      3.43128      4.14343     10.48411         0.019660      0.162993     -0.125183
      5.88155      3.84727     11.70957        -0.087166     -0.087542     -0.100665
     10.32077      1.21508     13.12619        -0.145533     -0.043335      0.118900
      7.43611      4.87651     12.76933        -0.190508      0.014938     -0.038082
      7.70818      7.71244     15.32252        -0.336053     -0.020854      0.086127
      5.24733      1.59743     12.55889        -0.395336      0.225323      0.047670
      0.66217      7.13367     16.83727         0.321330      0.103592      0.299462
      8.80896      1.41964     11.13282         0.127260     -0.168164     -0.174154
     13.31845      2.53858     14.27483         0.033623      0.070281      0.100619
      6.45970      0.55978     10.33160        -0.057468     -0.032149      0.208631
      0.61150      2.32536     10.30995         0.094555      0.062871     -0.080915
      0.40710      4.27302     13.49156         0.139595     -0.080185     -0.019298
      1.63515      5.73569     11.66164         0.074400      0.093132     -0.047242
      3.93116      4.86002     12.98267        -0.186587      0.054313     -0.054089
      7.95603      3.03116     10.82805         0.050261      0.100028      0.020352
      5.29242      6.46268     11.78499        -0.010689      0.125510     -0.040772
      7.14388      5.19196     10.13764        -0.040683      0.103209      0.020462
      1.07109      4.47412     13.21990        -0.055467     -0.120881      0.065900
      6.32060      1.69287     14.81240        -0.298227      0.420591      0.103792
      0.94527      1.86524     12.63015         0.153099      0.208249      0.120308
      6.06268      3.21928      9.37555        -0.151260     -0.202128     -0.063088
      8.80638      7.45376     14.37490         0.361853     -0.117359     -0.061931
      7.28179     10.35375     11.90019         0.224676     -0.180803      0.002541
     12.07764      9.38783     10.65434        -0.371690      0.042105      0.087382
      1.21773      6.68684     15.54709        -0.564719      0.039101     -0.365101
     10.68172      6.30707     15.31021         0.367605      0.043919     -0.069773
      3.60063      1.64806     12.54861        -0.718081     -0.333250      0.012064
      9.35336      7.11736     11.25802         0.006226     -0.112762     -0.267598
     10.23905      4.37308     14.06681         0.096046      0.340970      0.087774
      2.93616      9.30071     12.04923         0.280128     -0.068680      0.095471
      2.88889     14.03551     12.24428        -0.037976     -0.253622     -0.017633
     12.07108     13.70350     10.95545        -0.001934     -0.236825     -0.431867
     11.65488      7.23088     11.47627        -0.208534     -0.243080     -0.398525
      6.45967     13.71280     10.74509        -0.123144     -0.423890      0.001686
      0.28572      1.36459     11.38982         0.081671     -0.190254      0.221273
      0.01506      9.63494     13.72148         0.067559     -0.017628      0.454033
      6.52761      1.16523     13.46112         0.519264     -1.043373     -0.137931
      4.99371     10.46897     12.28866        -0.098655     -0.462414     -0.135038
     10.33987     12.71101     12.19949         0.487821     -0.095226      0.090902
      6.75895      3.82658     10.52058        -0.030140      0.132419     -0.301265
     11.93218      3.59030     11.47237         0.476800      0.183717     -0.318558
      4.76223     12.75765     11.97339         0.084815      0.323298      0.209044
      4.12168     10.08975     14.48288        -0.181901      0.192075      0.582141
     14.44861      7.32640     13.79647         0.223857     -0.027290     -0.248894
      1.23185      8.67497     10.52879        -0.292395      0.108550     -0.360724
      8.06962     12.53485     11.84298        -0.004687      0.039326     -0.177965
     14.13957     10.08897     11.41758         0.186917      0.643474     -0.068139
     12.13157      7.31609     13.82064        -0.338182     -0.060806      0.668423
     13.92066     12.43329     11.83750        -0.040538      0.095153     -0.439517
      6.54708     13.45211     13.36337        -0.363863      0.014803      0.061786
      3.53345      7.89207     13.85798         0.126017      0.707817     -0.529771
      9.02451      9.02279     12.63092        -0.019422      0.426966      0.122255
     10.92924     10.45193     12.36039        -0.399564      0.083182     -0.082417
     12.82306     11.11972     13.67233         0.195556     -0.352589     -0.246741
      8.69796      5.62324     12.91373         0.162784     -0.256684      0.018597
     12.58440      1.29723     11.77165         0.157916     -0.024772      0.111528
      1.06892     13.80991     10.82515         0.198512     -0.231184     -0.628798
      1.14043     12.99161     13.40582         0.235762      0.258059      0.640862
     13.11426      5.53483     10.82102        -0.381717     -0.255432     -0.241133
      0.46265      6.65458     11.60922         0.210693     -0.107305      0.312956
      4.74890      6.08607     13.10244         0.042160     -0.365731      0.495343
      1.99373     10.80817     13.66787         0.005516      0.141263     -0.210965
 -----------------------------------------------------------------------------------
    total drift:                               -0.008361      0.005163     -0.004484


--------------------------------------------------------------------------------------------------------



  FREE ENERGIE OF THE ION-ELECTRON SYSTEM (eV)
  ---------------------------------------------------
  free  energy   TOTEN  =      -509.25009131 eV

  energy  without entropy=     -509.16550456  energy(sigma->0) =     -509.20779793



--------------------------------------------------------------------------------------------------------


    POTLOK:  cpu time      3.3416: real time      3.3446


--------------------------------------------------------------------------------------------------------


     LOOP+:  cpu time   6052.7096: real time   6056.9269
    4ORBIT:  cpu time      0.0000: real time      0.0000



 total charge

# of ion       s       p       d       tot
------------------------------------------
    1        0.576   0.017   0.000   0.594
    2        0.613   0.032   0.000   0.645
    3        0.615   0.032   0.000   0.648
    4        0.567   0.015   0.000   0.582
    5        0.566   0.017   0.000   0.584
    6        0.573   0.016   0.000   0.589
    7        0.577   0.016   0.000   0.593
    8        0.574   0.016   0.000   0.590
    9        0.615   0.032   0.000   0.647
   10        0.570   0.017   0.000   0.587
   11        0.564   0.015   0.000   0.579
   12        0.620   0.032   0.000   0.652
   13        0.570   0.016   0.000   0.586
   14        0.568   0.015   0.000   0.583
   15        0.572   0.017   0.000   0.589
   16        0.584   0.016   0.000   0.600
   17        0.614   0.033   0.000   0.646
   18        0.589   0.015   0.000   0.604
   19        0.611   0.033   0.000   0.644
   20        0.581   0.017   0.000   0.598
   21        0.572   0.016   0.000   0.587
   22        0.594   0.015   0.000   0.609
   23        0.574   0.016   0.000   0.590
   24        0.613   0.033   0.000   0.646
   25        0.608   0.034   0.000   0.642
   26        0.555   0.016   0.000   0.571
   27        0.573   0.015   0.000   0.588
   28        0.616   0.033   0.000   0.648
   29        0.573   0.015   0.000   0.588
   30        0.578   0.015   0.000   0.594
   31        0.589   0.016   0.000   0.605
   32        0.573   0.016   0.000   0.589
   33        0.582   0.016   0.000   0.598
   34        0.612   0.033   0.000   0.645
   35        0.582   0.016   0.000   0.598
   36        0.575   0.015   0.000   0.590
   37        0.587   0.015   0.000   0.603
   38        0.750   0.955   0.000   1.705
   39        0.776   0.899   0.000   1.675
   40        0.809   0.872   0.000   1.681
   41        0.746   0.977   0.000   1.723
   42        0.812   0.855   0.000   1.667
   43        0.757   0.941   0.000   1.697
   44        0.817   0.861   0.000   1.677
   45        0.757   0.954   0.000   1.710
   46        0.775   0.880   0.000   1.655
   47        0.738   0.972   0.000   1.710
   48        0.801   0.840   0.000   1.641
   49        0.758   0.946   0.000   1.703
   50        0.769   0.933   0.000   1.702
   51        0.740   1.016   0.000   1.755
   52        0.764   0.956   0.000   1.720
   53        0.759   0.956   0.000   1.715
   54        0.745   0.920   0.000   1.665
   55        0.743   0.981   0.000   1.724
   56        0.734   1.059   0.000   1.793
   57        0.767   0.882   0.000   1.650
   58        0.752   0.953   0.000   1.705
   59        0.834   0.802   0.000   1.636
   60        0.748   0.986   0.000   1.734
   61        0.830   0.808   0.000   1.638
   62        0.754   0.952   0.000   1.706
   63        0.764   0.911   0.000   1.676
   64        0.759   0.952   0.000   1.711
   65        0.747   0.878   0.000   1.624
   66        0.806   0.885   0.000   1.691
   67        0.774   0.886   0.000   1.660
   68        0.751   0.929   0.000   1.679
   69        0.759   0.923   0.000   1.683
   70        0.847   0.765   0.000   1.612
   71        0.752   0.994   0.000   1.746
   72        0.739   0.981   0.000   1.720
   73        0.831   0.838   0.000   1.669
   74        0.817   0.829   0.000   1.647
   75        0.778   0.877   0.000   1.656
   76        0.749   0.944   0.000   1.693
   77        0.733   1.035   0.000   1.768
   78        0.764   0.921   0.000   1.685
--------------------------------------------------
tot         53.279  38.458   0.000  91.737


 total amount of memory used by VASP MPI-rank0   346911. kBytes
=======================================================================

   base                                    :      30000. kBytes
   nonl-proj                               :      71104. kBytes
   fftplans                                :      97989. kBytes
   grid                                    :      75605. kBytes
   one-center                              :         15. kBytes
   wavefun                                 :      72198. kBytes

  
  
 General timing and accounting informations for this job:
 ========================================================
  
                  Total CPU time used (sec):     6191.302
                            User time (sec):     5453.992
                          System time (sec):      737.310
                         Elapsed time (sec):     6195.850
  
                   Maximum memory used (kb):      621092.
                   Average memory used (kb):          N/A
  
                          Minor page faults:     14159692
                          Major page faults:         1169
                 Voluntary context switches:         2842
