/u/vld/spet5633/Silicon/a-Si_potential/DFT_1200eV/Testing/Paper/surfaces/amorphous/anneals/8/cleaved_surface.data (written by ASE) 

2500 	 atoms 
2  atom types
0.0      42.803955704057834  xlo xhi
0.0      42.803955704057834  ylo yhi
0.0      41.390325684042566  zlo zhi


Atoms 

     1   2      1.8376135344124505     0.89912886473291864      13.086342120710965
     2   1      9.3350646203596543     0.18325427959238719      16.846981337018221
     3   2      3.9592259924591553      3.6834112252919051      12.378663905263728
     4   2     0.37146218020880023      2.8461192976433933      10.496117896355425
     5   2      1.6794672599570795      4.1556525555022983      12.012870755246933
     6   2     0.80571901413805391     0.60470174696266243      11.071123651964777
     7   2      5.8324244899004754      3.0430305092542316      13.819916697472451
     8   2      7.7214306179551908    0.056145873500120062      12.398567148810871
     9   2      7.1270819165339967      3.5987346441524366      11.927500906185969
    10   2      8.8165285267875824      2.0415124238348628      12.070094449674977
    11   2      10.275876372303985      3.0687601152604329      13.612424409945728
    12   2      1.4521611426224865      19.373151491474097      15.903441002989908
    13   2      12.025440493890029      20.983765933896564      31.114523755520906
    14   2       9.993126980299186       4.204113379953955      10.240008308580464
    15   1     0.25896719509950233      13.126431336335765      23.719891281171478
    16   2      13.141820410964035      2.9665509462872555      11.877509825974851
    17   2      15.701316855222643       1.096658891521572      14.145934936351946
    18   2       16.44769528948753     0.57268402331541912      12.023563862253731
    19   2      14.753257454169294      1.6347024873393323      10.901834502511143
    20   2      16.666930680334374      3.1218915293423759      14.443606510945571
    21   1      20.602844606499271      12.884827047240274      25.504334770300076
    22   2      19.232428852802482      3.8944067557342805      10.490039218368333
    23   2      19.603814815256907      12.317294996286762      30.322221076768994
    24   2      19.692647652421005      4.1649800128373879      12.783860960504803
    25   2      8.6997506735292944      20.367175610252787      28.554155875736711
    26   2      18.764215572020177     0.92616148875564752       12.19707573695216
    27   1      2.5774749748403494      8.3011459109934425      10.759725789000491
    28   2      1.6993789535305905      6.2225304747170114      13.175288365988854
    29   2      2.5746429591122584      6.0063496665144562      10.903722776388092
    30   2      5.2994998221448073      7.0851447115471737      11.326996437909429
    31   2      7.5196589488544472      7.5265833645434261      11.915366830091518
    32   2      5.2798098802043665       3.760771041433014      10.501739468204896
    33   2      7.4264668973392949      5.5213408613584329      13.274279380608233
    34   2       5.027953229083626      5.6348482476946486      13.142177001296087
    35   2      10.470914987764488      7.0952131444907165      13.426756692024536
    36   2      10.975895933452877      7.9878583306563185       11.35470712278472
    37   2      10.744267587474324       5.025082544476259      12.371458236807673
    38   2      17.054797975647944     0.54450736627163498      31.157213866656129
    39   1      15.463634984035103       7.253902765887938      12.196249174561448
    40   2      16.260918807213557      4.7618758594581481      12.901839536409152
    41   2      12.650951040650043      6.2699989316485816      11.434872858736155
    42   2     0.89378078051452148       8.558147262161846      17.062057733294889
    43   2      13.939066431657487      4.9895872938677233      12.898015905751809
    44   2      4.5358969499421669     0.89992593292877299      26.342420205474582
    45   2      19.277193870821474      7.1678547415973171      12.045048636446255
    46   2      16.983454050614924      4.3409566910361601      10.778355983886119
    47   2      18.208974988559024      5.8114169610001891      13.564303629184472
    48   2      3.1569540150725124      9.9153016378270689        13.1737674295695
    49   2      1.7883353848956516      11.341885060740285      11.952602968836938
    50   2      3.8542661565380971      8.8260804626697809       11.31376468473726
    51   2      3.7599248701851224      12.610694967135935       11.30489175977633
    52   2      7.4783128795871212      9.6974528840103442      12.878274080341289
    53   2      8.1859132918875126      12.967803319986729       11.64911539594425
    54   2      5.6519012442209746      12.708538404017805      14.203243543616313
    55   2      5.3711086058189004      10.523048692082897      13.612616442504242
    56   2      9.0372824991098888      7.5024957144974094      10.146530453414549
    57   1      10.907845638278662      10.857339160695508      12.519144297900958
    58   2      10.538208566975497         10.274008443065      11.186539445123815
    59   2      8.2448640351003935      10.774151695694371      11.020517005276096
    60   1      16.348521701607932      8.4153092137136536      10.681208207159679
    61   2      15.182385327820043      10.571384313943895      12.098738097624322
    62   2      9.7526942006529556      13.720913133651932      10.096338678331119
    63   2      15.832689825184545      8.5108499297715099      12.901020180942041
    64   2      17.092717133478498      11.939442574467579      12.199668983344381
    65   1      19.376804048017288      12.930727578376118      12.117182920845991
    66   2      17.257853348307201      20.715336289257095      22.930867624864636
    67   2      18.230234913366619      10.611566149438742      10.707086496895618
    68   2      3.0581752495847776      1.4976830331024524      28.018552908390699
    69   2      18.089755745249885       9.052651980082338      12.500062696012847
    70   1       18.98577668259141      19.582429013362567      10.901129018259041
    71   1     0.93576597599284117      13.910699463658702      11.029028473685122
    72   2     0.92845876892447654      13.242434833559464      13.922943490017355
    73   2      1.2900605139988346      1.8768743763532834      25.397022427326799
    74   2      2.4191640840493087      16.358468864557523      11.729418613768008
    75   2      12.633532904924579      19.334158248547908      29.651953662527571
    76   2     0.44216490705067812      17.445809566942749      12.462858977785498
    77   2       2.746988712410471      14.289877069332587      12.803175787207465
    78   1      6.3665833742966846      16.018410662708451      14.643472174874441
    79   1      7.5703811155096643      16.140272360337192      11.106158878918645
    80   2      5.9428890458402721       13.48827119899687      12.070522150019519
    81   2      9.0965134651317516      13.464463363628155      13.718261448466547
    82   2      6.1948663987562398      15.569181775460443      11.188292003900049
    83   2      11.377123661190238      16.635505079685835      12.129118437761434
    84   2      12.682638586724265      13.135012854377216      12.413140977737553
    85   2      21.227458174620676      8.6295416462503916      24.170649293581768
    86   2      9.7476144939315095      15.707154908755969      13.653060167507107
    87   1       14.39533374328189      16.080370599502725      12.229742187079758
    88   2      13.080710282713575      15.350505691940977      12.964215715180023
    89   2      13.181919398758151      12.586264963210427      10.141388559899964
    90   2      15.900903781779759      15.906250123512057      11.567501398751642
    91   2      21.016244633862367      13.108191007120443                      10
    92   1      20.092089360158553      16.368621469145086      10.791549554759886
    93   1      20.212925341061293      17.929244159273917      12.633064487450223
    94   2      18.283353769256102      13.954114417315472      14.444809887046286
    95   2      20.044017341748848      14.028101736027674        12.9629570144285
    96   2      7.3110961586141272      20.745011582980986      19.859302432379998
    97   2      16.645245374942299      14.134349610988664      12.808948326861973
    98   1     0.78479887710731622      18.842958940653553      12.880718717244726
    99   2      3.4314242818985434       20.17306271225468      12.177291633885801
   100   2       3.669764490760866      21.022295239020345      31.170225435728678
   101   2      5.2446004104793627      19.335317591411538      10.858245918089892
   102   2      4.4300220380343944      10.657764821488156      10.049464461354527
   103   2     0.74830358962461974       16.83052350611592      22.028254551673417
   104   2      5.9400216881610506      18.104840888795799      13.460207030933546
   105   2      6.3658620126336096      20.289398250141119      12.663393337076862
   106   2      4.6786906578416252      17.204514515225419      11.660373355691048
   107   2      9.4932081991822646      18.978087344892163      13.199278094593023
   108   2      9.7677006353279925      19.336474101688168      10.945169039265394
   109   2      8.2640129590280278      20.807244754738843      13.815573811697659
   110   2      12.049352024028927      18.660019884805909       10.99323411723099
   111   1      21.122891161205395      16.053366652267023      30.020961791977516
   112   2      10.835660618790639      16.038839810566362      15.751659499068808
   113   2       13.25347552827456       20.41576549284671      11.938904774362266
   114   2      21.183252002606487       1.168874232313436      11.850645687859549
   115   1      15.855388013301605      16.803941507236349      14.204207607664941
   116   2      14.528723715661799      19.956232268191695       13.85400391418322
   117   2      14.957782945211189      21.031413932500403      10.510123646954716
   118   1      1.7639117560474302     0.23236517110016547      30.691478078542186
   119   2      18.870920726719962      17.471319194208451      13.716799564634172
   120   2      17.349778385562672      17.660365593896884      11.944510205661885
   121   1      17.089366309943671      18.901939676249096      10.032967924406377
   122   2      18.957322586833332      21.080726348443939       10.88872609299896
   123   2      16.694917508386411      19.722875560369978       13.02317517109547
   124   1       2.008869898783848      2.3795297738602765      13.307062768669272
   125   2     0.24560196615004637     0.58792893816380354      14.755598526649671
   126   2      1.4704208120050413     0.99159147448971829      16.689239087721418
   127   2       15.50107127555337      15.467848684715577      30.548118532899458
   128   2      4.8673017758759567      1.3568483554943469      15.013214641802254
   129   1      6.9698101082175352     0.90850656993093548      17.099746226973743
   130   1      8.3329412508113645      1.4056759536380354      14.876898984773362
   131   2      7.2859625853161392      4.1912776070142961      15.257976758679908
   132   2      8.2500675123198537      1.6596723711613757      19.162386440358425
   133   1      19.275773006732567      18.203315051190081      30.989341200461961
   134   2      5.9677936756340157      4.5797694708927974      17.121820912450811
   135   2      8.6118251047720147      1.5337007030179566      31.060402294983312
   136   2      11.331027427192824      15.423453709768033       10.20359643410146
   137   2       9.595757916481805      1.5647891730093679       17.31738189300253
   138   2      9.3528078865794395      3.2436022836781788      15.752829578737428
   139   2      11.559355864197046      1.4870786994881464      18.429774364162775
   140   2      12.001884377331205      1.5781683245717566      13.401115271394023
   141   1      12.825545632471831      3.6299052573518935      15.417741107811086
   142   2      14.962184040616989      2.8681279812907277      17.795725374840984
   143   2      13.547317801647425     0.78294111541455547      14.885906295528063
   144   2      18.806571330842726      2.4391143646062936      13.964049410729691
   145   2      20.366909038226428      4.2015567773719011      16.513749697322812
   146   2      20.180290029627457      1.9411738792048889      15.823937643304063
   147   1     0.33733544059936971      5.5595148723864636      14.927995989115722
   148   2      18.407318476052268     0.64983859021049017      16.615284951629786
   149   1      5.7701298998904473      7.6463544157582479      13.775963334977451
   150   2      3.0113482054111569       4.567500959823632      16.301753159618311
   151   2     0.32466437483622812       8.083203636238661      13.496818589798579
   152   2       1.089026800372864      6.0167174244973083      19.621824785221225
   153   2       3.453782975081924      6.2572271332789002      14.725600935215136
   154   2      3.7103955490367841      7.9309345758156535      18.117695012849957
   155   1      5.9533994880152683      6.5672794239377481      15.913857870621801
   156   2      9.0068673357378035      6.7056447966698141      17.081134123140615
   157   2      6.5063162079007775        7.66449035484343      15.083448628485453
   158   1      11.269422700870933       5.548087301853986        16.1364151001072
   159   2      10.310709833012838      4.7994439265212412      17.196229559425053
   160   2      8.8078467376181777      7.5900709203116898      14.975072695094795
   161   2      12.154867440222086      8.2484206523101875      14.630115879681396
   162   2      12.538998342348737      6.5952723914638645      16.215199611296452
   163   2       13.66937868278292      4.8531801039989437      15.204699252526666
   164   2      15.721130642391921      4.3011754839338829      16.166143741596048
   165   2      16.346252579059442       8.052855993733008       16.31084789280564
   166   2      14.560929091075669      8.3165267057318371      14.820763363015207
   167   1      17.530573315443931      8.6895916750591997      15.633242365632473
   168   2      18.965280551238298      5.9037643134715809      15.758239042382684
   169   2      17.030735187292485      5.9808732190397187      17.089409978057304
   170   2      20.342433628615602      7.6892967427271417      15.163014584893418
   171   1      3.3526279073561089      11.810363387483967      15.063345953654615
   172   1      1.2622984591940605      7.1210653528228791      16.786052292784188
   173   1      13.753221435296012      19.836862138465737      21.990848540496035
   174   2      3.6192533776103737      8.3628632526467293      15.849321176830236
   175   2      1.6842760002033941      9.4164901502655116      14.991618120423961
   176   1     0.15455806007941886      20.273616135088027      30.875905622967718
   177   2      1.8993666621272789      11.713590831996033      15.373385291120989
   178   1      4.6355176139475534      11.159782547612503      17.202246821350386
   179   1      6.5905094560012332       9.384986060240367      18.269657754052261
   180   2      8.8684288605328785      9.9133358914887637      14.826654095879725
   181   2      7.5482959604782467      13.276363959358912      15.498613898865425
   182   2      7.4387143507869959      10.970848515983919      16.333496706064615
   183   2      8.9083139615824027      10.765801930719885      18.137462233422212
   184   2      5.5710443634056181      9.6619256455235369      15.742731014420912
   185   1      10.986210248779722      8.8040809133522888      17.124680968819952
   186   2      9.8243068615948559      8.6117560321226954       18.02284094488931
   187   2      11.202337182703786      12.531954843422266      14.132722790552581
   188   2      11.168144466258296      10.404404003382018      15.148402237914905
   189   2      12.514562802560588      10.840091887827196      17.056293197404507
   190   1      17.175130869754728      8.8619548043655492      19.094496365612351
   191   2      14.314983549968476      10.475068085999768      15.615495429832572
   192   2      18.031838915509486      11.599751774465442      14.308938156870513
   193   2       16.29608096631387       11.66344101369433      15.764325141467108
   194   2      16.004690425959545      9.2419064378069447        18.2251522556395
   195   2      20.630467836137523      10.480638003380568      16.408524176759258
   196   2      19.321466759378772      11.077384618514976        18.2329154227705
   197   2      17.389425907654775      12.194390656166878      17.689510214905866
   198   2      19.492919613809544      9.7868898971441727      14.366335169233707
   199   1      2.1810573609684458      16.363827222624348      15.115391587656976
   200   2      3.9179883715078261      12.145165163230413      18.080390533184524
   201   2      2.7546201817723093      16.297249456438358      17.964665045815963
   202   2      2.2227463327705337      15.088686829512428      16.001391120570137
   203   2      1.9018529351881641      12.997253571717049       17.39513333568134
   204   1      4.5164161792530884      17.352623277111185      16.102092406716039
   205   2       5.138748029613522      15.955911791977577      17.776611140350511
   206   2       4.034560959786794      14.278872474435747      14.732823264920878
   207   2      5.9670105775027817      15.100196061767091      15.750805334928863
   208   2      5.1981870234502523      13.907799640421917      18.814860385907721
   209   1      8.0433128969581258      16.151765604243131      16.621248152759495
   210   1      11.671460461487042      13.410181308764715      15.258791876721602
   211   1      15.412304513484486      16.709100973306626      16.531832594029073
   212   2      14.295908523280399      14.424375223127095      16.394566025018925
   213   2      14.024314290125281      11.767144756986102      13.687578804370691
   214   2      15.354501500033965       13.44053109482782      14.615583188328625
   215   2      17.702892958786862      14.411212667180802      18.013152807543364
   216   2      13.083912537529633      15.989086882292504      15.159101225663056
   217   2      13.388402521345251      12.832408132422662      17.928263398477249
   218   2      16.478111723526137        16.9755903357505      15.535492154807153
   219   2      20.297391165762431      15.832624153614068      14.549115666436519
   220   2      20.310635098990399      15.502399805475601      31.139887824922333
   221   2      17.940737670690389      17.736953354583513      30.524985427495107
   222   2      18.218287835448344      15.589907969744441      16.084798344795754
   223   2      21.312605732402574      6.9049974254644768      13.180085291998511
   224   1      1.1554177166794006      18.718916990778006      18.975162204795559
   225   1       2.755037468478807      17.502314331752963      13.774417038746012
   226   2      2.9015320991756397      18.943768697033054      14.153063426308343
   227   2      2.2831967005523075      18.585126439713395      17.999123652885782
   228   2      8.0832001868769083      17.305525092203155      13.801406616625259
   229   2      5.3761352256387758      20.099607808977233      17.015841285209042
   230   2      7.2721894977089887      18.846569245342891      17.473653969155681
   231   2      4.7814187038586073      18.634511185268842      15.375703440564898
   232   1      13.572302236801315        17.4320120907425      17.649857623060356
   233   2      8.3871831088700333      17.508384807805989       16.05864301820154
   234   2      11.243317654517043      19.376673506097408      14.615285590632434
   235   2      10.576353466678018      18.257456222128209      16.536691797110652
   236   1      15.252004614236375      18.912541698101599      18.288110786353066
   237   2      12.790232469024389      18.689856603322426      17.350024438767075
   238   2      15.693966641227311       20.09559972563639      17.480277640091636
   239   2      13.307145477789625       18.32564095014277      14.982356771422671
   240   2      13.553574230975975      20.932628815274441      17.163994949615294
   241   2      17.245342975012445      18.977202692164717      16.294383929154776
   242   2      21.009750014391781      15.061687560031137      11.185348336439757
   243   2       20.64687795787551      20.252114450713396      17.476246154622601
   244   2     0.13350685011261054      16.040754398816297       17.46570666293611
   245   2      19.705126080082358       16.80373040878488      17.461632205643561
   246   2      18.497160560749382      19.593969688712274      14.501586706993354
   247   2      17.898031981638038      17.981721510484178      18.326692927054012
   248   2      20.191056550694466      20.424443378275235      25.971421196789116
   249   2      3.4204494947677992       2.286134884057585      16.570450356134252
   250   2      1.6919476436239158    0.074561942244065704      19.962543698612613
   251   2      3.9455447645454749    0.031825145085051888      13.407879507588945
   252   2      1.2324172882224622      2.2350985552925451      20.627721845367667
   253   1      6.7349204051340692      1.0720211008383502      21.052184843423596
   254   1       8.886866539428258      2.1349354899734472      20.429159099612171
   255   2      6.4186507123570831       1.273154020483745      22.485960477668009
   256   2      4.4048130869017532       1.873705568749457      18.665850390792372
   257   2      3.4437981001171023      2.8771986886988254      20.563120348424142
   258   2      6.3668110743795925      4.3517498555574043       20.63202836276421
   259   2      6.4230076981482638      2.9940957080809292      18.766027328665064
   260   1       7.383455418056724      2.3544847109377054      22.803730334969494
   261   2      14.035376059997144      1.6161548675888955      20.225909393226942
   262   2      11.489624006630779      3.7271789671234661      19.030938492814471
   263   2      12.115582856369066      2.5002421248562148       21.46359916483042
   264   2      16.117955619564963      1.9058676322393082      21.206761630645492
   265   2      16.691467403853938      4.1532033378524096      21.071929462964434
   266   2      17.705552651655118      5.3953165489537094      19.285777651245759
   267   2      13.718657382798757      4.4490628569689381      18.992038352730152
   268   2      13.493763102518773      1.1747415109535746      17.186639714148075
   269   2      18.686184090917038       16.92796013831077      10.155807294079187
   270   2      20.315155330070453     0.83869073706580421      22.662002479451672
   271   2      17.814696117439897      1.0171120309334936      19.975534004784159
   272   2      17.851077339853575      4.0038607305401976      23.090939215952716
   273   2      19.827492970299712      3.0836230350254508      22.276024266099434
   274   2      19.535475211172539      2.5180029138801201      20.063532722196324
   275   2      19.663062061817683      4.3292119648075147      18.711311025170851
   276   2      21.296410707782318      1.2042329554108731      19.565156648896924
   277   2     0.50434207010226728      8.2450030149961115      22.774091249405419
   278   2      4.0601137442990698      5.5721533168932096      23.362265510917091
   279   2      1.8942664307362582      7.6030693602889432      21.074385058834075
   280   2      4.0021294890613381      6.8996152554086585      21.546059530110924
   281   2      3.0341509735390182      5.7113287961988082      18.329208768791606
   282   1      6.8828106822277277      6.1368242197176137      22.912608671166943
   283   2      8.6715112080242456      7.7712261312537168      21.134106950316532
   284   2      7.0363432568085216      6.3617284932125227      18.107150275751877
   285   2      5.8953655527758668      8.2024573373346072      18.831643535806929
   286   2      7.1607657931508353      8.9953021645561364      22.660776766410194
   287   2      4.2156018765548176      5.0394251704398352      20.199338553630504
   288   2      11.617013132883173      6.7148141077343402      20.565176533607435
   289   2      12.609992733485498      9.9158756100857524      19.255477669293349
   290   2      8.0751334938895738      5.7977768283139453      20.066151071906003
   291   2      10.658462747663469      8.7685542342620142      20.151981959116135
   292   2      10.153858054071462      4.8985656812723608      20.540978650040998
   293   1      16.587557517519137      7.5942564429047792      21.268946935363619
   294   2      14.135647302353313      7.6510938621391764      23.095478754704974
   295   2      14.215645749308811      8.2645145687080674      19.254139604654512
   296   2      14.627677421781174      5.0724951738088038      20.998254542217207
   297   2      12.931803725003478      6.5635003022390475      18.497188923573383
   298   1      18.131925578328506      6.6339952776508939      19.988499111557893
   299   1      21.306142691455417       6.937402258550966      19.778575793422284
   300   1      18.471434832617131      7.8588496429339401       21.96435501613427
   301   2      20.496708765466739      8.2479404665858382      19.428195221338214
   302   1      1.8209231175994418      12.124969451471584      19.927110721329228
   303   2      11.208320552790253      19.623326071154708      23.534105320387219
   304   2      1.9375403691221484      9.0867039530318312      19.227846740364175
   305   2      2.9354328615179677      11.059428423905439      19.949050089733944
   306   2      2.0915442167901803      11.218405122317369      22.204387528381091
   307   1      8.2652911210579791      10.804632071749502       19.47340842720244
   308   1      5.9947747647790433      11.093154698253361       19.70753131172421
   309   2      5.5743019744884839      8.5007007970206114      21.096473944471789
   310   2      5.0756137054072514      10.752652793815741      20.839840212471451
   311   1      10.361268778625533      11.216152750107238      18.335320269406239
   312   2      8.9616250934453525      7.6071733293010926      23.505173087412384
   313   2      14.144397611685108      12.281185580279077      22.017742350888341
   314   2      8.8762164409608211      13.122342730836918      17.441311468550012
   315   2       10.15926010787302      10.553442395799546      21.542657293536251
   316   2      12.853531934241412        12.0456513621073      20.144479613560897
   317   1      16.957981430055725      8.2765156664987973      24.049330557969643
   318   1      15.282279478215123      9.6865088796697396      20.975404400765839
   319   2      15.464422235047003      11.476696507227215      18.752267528066618
   320   2      15.961828636766899      11.012465623147206      21.172434845983801
   321   2      15.145783417758025      7.3085110098125785      21.107430781980884
   322   2   0.0097515743743435569      10.291745462711132      21.829461409036611
   323   1      19.739804145395198      7.8945872765597755      18.206644858397542
   324   1      17.061087833959171      12.785414406717745      22.061827572151898
   325   2      19.484086755289042      12.572522577223458      20.768206537208094
   326   2      20.949032474717626      12.676120512794524      18.937803279244399
   327   2      18.191503246136186      10.693949071565871      20.280041321132892
   328   2      19.253825436164341      8.8948719516255625      21.249466428943471
   329   2       3.980914418808831      14.169598468128424      20.769923778098978
   330   2      2.1342410181065636      14.535793612048268      19.354113174009861
   331   2       5.240733371679581      12.719987848759791      22.086279985927604
   332   2      0.6750955022477747       14.70768913175956      21.109529488658474
   333   1      9.9480533191775748      13.143540737852137      19.812774265826427
   334   2      7.4184414627411916      13.220374319238605      21.411956706208514
   335   2      7.4254066286926843      13.677116522435581       19.13785999705901
   336   2      8.4745041236879857      15.757498479778278       19.51305366100965
   337   2      8.6159419021850656      15.257345593205324      21.845380016732811
   338   2      10.798055831086952      12.683095296928737      20.944831590881179
   339   2      12.218610246150234      14.811388738368949      18.723783738689121
   340   2      10.124337653043693       15.04824477453321      17.796050138189653
   341   2      12.190155582516365      15.591355262869177      20.895491395209998
   342   1       12.87961338753937      15.979911526762885      18.065173636958619
   343   1      14.533882150024162      13.668484253042324       22.39822883506114
   344   1      15.125809847221765      14.056606774625445      19.487527815583299
   345   2      14.178017623739162      16.092264969633359      21.941865935602411
   346   2       16.32965887762624      15.481174902148934      21.242269474410115
   347   2      15.464499065503245      14.930984621576831      18.315112706877471
   348   2       18.25930876082375       14.45762347453657      20.258737634827597
   349   2      20.083161592420907      12.290328026373828      22.992538684901881
   350   2      19.259323142047638      16.148337343938376      21.462566659729312
   351   2      20.873108850098273      15.011919651264805      18.397835673266172
   352   1      2.0959215057378513      19.334349678939141      22.374145972771224
   353   1      2.8960806485655306      18.168739657956362      20.659991953125978
   354   2      2.9376759686622482      21.291638393384364      20.368148302052418
   355   2     0.75116965604973651      20.542181100169486      20.876511385134531
   356   2      4.0357463544664904      19.811280571500827      18.879845194972908
   357   1      5.1990142679453228      16.637531511964102      20.980677511784421
   358   2      5.7913206947884719      18.995665848624078      20.168092655404585