 vasp.6.5.0 16Dec24 (build Jan 20 2025 08:32:48) complex                         
 executed on        HPECrayEX_GCC date 2025.07.28  15:17:20
 running  128 mpi-ranks, with    1 threads/rank, on    1 nodes
 distrk:  each k-point on  128 cores,    1 groups
 distr:  one band on NCORE=  16 cores,    8 groups


--------------------------------------------------------------------------------------------------------


 INCAR:
   SYSTEM = a-Si SPC
   NCORE = 16
   ISTART = 1
   ICHARG = 1
   ISPIN = 1
   ISYM = 1
   EDIFF = 1E-6
   NELM = 150
   EDIFFG = -0.01
   NSW = 0
   ISIF = 2
   IBRION = -1
   PREC = Accurate
   ENCUT = 1200
   KSPACING = 0.23
   KGAMMA = .TRUE.
   METAGGA = SCAN
   LASPH = .TRUE.
   LDIAG = .FALSE.
   LMIXTAU = .TRUE.
   ADDGRID = .TRUE.
   ALGO = Normal
   ISMEAR = 0
   SIGMA = 0.1
   LORBIT = 11
   NEDOS = 2000
   LWAVE = .FALSE.
   LCHARG = .FALSE.

 POTCAR:    PAW_PBE H 15Jun2001                   
 POTCAR:    PAW_PBE Si 05Jan2001                  
 POTCAR:    PAW_PBE H 15Jun2001                   
   SHA256 =  030f79b5d3ab3cf0e668861823c8fb652ff669f3e15e46930bd03bfd63a607b6 H/POTCAR              
   COPYR  = (c) Copyright 15Jun2001 Georg Kresse                                                    
   COPYR  = This file is part of the software VASP. Any use, copying, and all other rights are regul
   COPYR  = If you do not have a valid VASP license, you may not use, copy or distribute this file. 
   VRHFIN =H: ultrasoft test                                                                        
   LEXCH  = PE                                                                                      
   EATOM  =    12.4884 eV,    0.9179 Ry                                                             
                                                                                                    
   TITEL  = PAW_PBE H 15Jun2001                                                                     
   LULTRA =        F    use ultrasoft PP ?                                                          
   IUNSCR =        0    unscreen: 0-lin 1-nonlin 2-no                                               
   RPACOR =    0.000    partial core radius                                                         
   POMASS =    1.000; ZVAL   =    1.000    mass and valenz                                          
   RCORE  =    1.100    outmost cutoff radius                                                       
   RWIGS  =    0.700; RWIGS  =    0.370    wigner-seitz radius (au A)                               
   ENMAX  =  250.000; ENMIN  =  200.000 eV                                                          
   RCLOC  =    0.701    cutoff for local pot                                                        
   LCOR   =        T    correct aug charges                                                         
   LPAW   =        T    paw PP                                                                      
   EAUG   =  400.000                                                                                
   RMAX   =    1.123    core radius for proj-oper                                                   
   RAUG   =    1.200    factor for augmentation sphere                                              
   RDEP   =    1.112    radius for radial grids                                                     
   RDEPT  =    0.926    core radius for aug-charge                                                  
                                                                                                    
   Atomic configuration                                                                             
    2 entries                                                                                       
     n  l   j            E        occ.                                                              
     1  0  0.50        -6.4927   1.0000                                                             
     2  1  0.50        -3.4015   0.0000                                                             
   Description                                                                                      
     l       E           TYP  RCUT    TYP  RCUT                                                     
     0     -6.4927494     23  1.100                                                                 
     0      6.8029130     23  1.100                                                                 
     1     -4.0817478     23  1.100                                                                 
  local pseudopotential read in
  atomic valenz-charges read in
  non local Contribution for L=           0  read in
    real space projection operators read in
  non local Contribution for L=           0  read in
    real space projection operators read in
  non local Contribution for L=           1  read in
    real space projection operators read in
    PAW grid and wavefunctions read in

   number of l-projection  operators is LMAX  =           3
   number of lm-projection operators is LMMAX =           5

 POTCAR:    PAW_PBE Si 05Jan2001                  
   SHA256 =  79d9987ad8750f624c4d6acb2a16d13abf6a777132adc04dc6c8399be72b42bb Si/POTCAR             
   COPYR  = (c) Copyright 05Jan2001 Georg Kresse                                                    
   COPYR  = This file is part of the software VASP. Any use, copying, and all other rights are regul
   COPYR  = If you do not have a valid VASP license, you may not use, copy or distribute this file. 
   VRHFIN =Si: s2p2                                                                                 
   LEXCH  = PE                                                                                      
   EATOM  =   103.0669 eV,    7.5752 Ry                                                             
                                                                                                    
   TITEL  = PAW_PBE Si 05Jan2001                                                                    
   LULTRA =        F    use ultrasoft PP ?                                                          
   IUNSCR =        1    unscreen: 0-lin 1-nonlin 2-no                                               
   RPACOR =    1.500    partial core radius                                                         
   POMASS =   28.085; ZVAL   =    4.000    mass and valenz                                          
   RCORE  =    1.900    outmost cutoff radius                                                       
   RWIGS  =    2.480; RWIGS  =    1.312    wigner-seitz radius (au A)                               
   ENMAX  =  245.345; ENMIN  =  184.009 eV                                                          
   ICORE  =        2    local potential                                                             
   LCOR   =        T    correct aug charges                                                         
   LPAW   =        T    paw PP                                                                      
   EAUG   =  322.069                                                                                
   DEXC   =    0.000                                                                                
   RMAX   =    1.950    core radius for proj-oper                                                   
   RAUG   =    1.300    factor for augmentation sphere                                              
   RDEP   =    1.993    radius for radial grids                                                     
   RDEPT  =    1.837    core radius for aug-charge                                                  
                                                                                                    
   Atomic configuration                                                                             
    6 entries                                                                                       
     n  l   j            E        occ.                                                              
     1  0  0.50     -1785.8828   2.0000                                                             
     2  0  0.50      -139.4969   2.0000                                                             
     2  1  1.50       -95.5546   6.0000                                                             
     3  0  0.50       -10.8127   2.0000                                                             
     3  1  0.50        -4.0811   2.0000                                                             
     3  2  1.50        -4.0817   0.0000                                                             
   Description                                                                                      
     l       E           TYP  RCUT    TYP  RCUT                                                     
     0    -10.8127223     23  1.900                                                                 
     0     -7.6451159     23  1.900                                                                 
     1     -4.0811372     23  1.900                                                                 
     1      2.4879257     23  1.900                                                                 
     2     -4.0817478      7  1.900                                                                 
  local pseudopotential read in
  partial core-charges read in
  partial kinetic energy density read in
  atomic valenz-charges read in
  non local Contribution for L=           0  read in
    real space projection operators read in
  non local Contribution for L=           0  read in
    real space projection operators read in
  non local Contribution for L=           1  read in
    real space projection operators read in
  non local Contribution for L=           1  read in
    real space projection operators read in
    PAW grid and wavefunctions read in

   number of l-projection  operators is LMAX  =           4
   number of lm-projection operators is LMMAX =           8

 -----------------------------------------------------------------------------
|                                                                             |
|               ----> ADVICE to this user running VASP <----                  |
|                                                                             |
|     You have a (more or less) 'large supercell' and for larger cells it     |
|     might be more efficient to use real-space projection operators.         |
|     Therefore, try LREAL= Auto in the INCAR file.                           |
|     Mind: For very accurate calculation, you might also keep the            |
|     reciprocal projection scheme (i.e. LREAL=.FALSE.).                      |
|                                                                             |
 -----------------------------------------------------------------------------

 -----------------------------------------------------------------------------
|                                                                             |
|               ----> ADVICE to this user running VASP <----                  |
|                                                                             |
|     You enforced a specific xc type in the INCAR file but a different       |
|     type was found in the POTCAR file.                                      |
|     I HOPE YOU KNOW WHAT YOU ARE DOING!                                     |
|                                                                             |
 -----------------------------------------------------------------------------

  PAW_PBE H 15Jun2001                   :
 energy of atom  1       EATOM=  -12.4884
 kinetic energy error for atom=    0.0000 (will be added to EATOM!!)
  PAW_PBE Si 05Jan2001                  :
 energy of atom  2       EATOM= -103.0669
 kinetic energy error for atom=    0.0001 (will be added to EATOM!!)


 POSCAR:  H Si
  positions in cartesian coordinates
  No initial velocities read in


 exchange-correlation table for SCAN
   RHO(1)=    0.500       N(1)  =     2000
   RHO(2)=  100.500       N(2)  =     4000



--------------------------------------------------------------------------------------------------------


 ion  position               nearest neighbor table
   1  0.739  0.202  0.490-  72 1.48
   2  0.770  0.355  0.576-  12 0.74
   3  0.598  0.631  0.575- 127 1.50
   4  0.764  0.275  0.659-  15 0.75
   5  0.615  0.267  0.444-   8 0.74
   6  0.725  0.007  0.629-  98 1.52
   7  0.776  0.340  0.418- 106 1.48
   8  0.609  0.286  0.468-   5 0.74
   9  0.482  0.402  0.338- 111 1.49
  10  0.670  0.407  0.630- 104 1.46
  11  0.887  0.252  0.460-  26 0.75
  12  0.775  0.305  0.575-   2 0.74
  13  0.446  0.209  0.674-  19 0.79
  14  0.761  0.349  0.493-  20 0.77
  15  0.807  0.253  0.651-   4 0.75
  16  0.648  0.500  0.341-  24 0.74
  17  0.756  0.563  0.660-  89 1.48
  18  0.691  0.490  0.434-  88 1.49
  19  0.488  0.179  0.667-  13 0.79
  20  0.722  0.369  0.508-  14 0.77
  21  0.625  0.944  0.502- 110 1.50
  22  0.813  0.458  0.366- 106 1.48
  23  0.784  0.471  0.593-  89 1.48
  24  0.645  0.499  0.366-  16 0.74
  25  0.787  0.171  0.574- 126 1.49
  26  0.863  0.215  0.446-  11 0.75
  27  0.933  0.302  0.501- 102 1.51
  28  0.768  0.590  0.390-  37 0.75
  29  0.665  0.246  0.322-  63 1.48
  30  0.918  0.361  0.631-  90 1.49
  31  0.591  0.331  0.692- 104 1.47
  32  0.596  0.336  0.384- 111 1.48
  33  0.993  0.880  0.475- 105 1.71  83 1.73
  34  0.886  0.448  0.540- 102 1.50
  35  0.518  0.346  0.619- 104 1.47
  36  0.641  0.240  0.625- 104 1.54  45 1.89
  37  0.739  0.629  0.381-  28 0.75
  38  0.909  0.603  0.340-  95 1.48
  39  0.108  0.095  0.639-  69 2.32 125 2.38  78 2.43
  40  0.902  0.799  0.393- 101 2.31  95 2.33  83 2.36  79 2.41
  41  0.426  0.936  0.387-  96 2.32 129 2.35  43 2.37 124 2.37  68 3.14
  42  0.360  0.948  0.643-  82 2.27  69 2.31 117 2.37
  43  0.494  0.081  0.399-  60 2.31 115 2.31  81 2.35  41 2.37
  44  0.276  0.318  0.449- 116 2.28  70 2.33  86 2.33  74 2.34  91 3.05
  45  0.607  0.120  0.642-  36 1.89 100 2.34 104 3.12
  46  0.108  0.454  0.536- 103 2.28  86 2.30 121 2.32 102 2.33
  47  0.171  0.228  0.545-  86 2.26 134 2.31 125 2.34  93 2.40
  48  0.187  0.383  0.650- 121 2.35 130 2.37 125 2.40
  49  0.140  0.895  0.560-  82 2.31  65 2.36  78 2.38  55 2.43
  50  0.471  0.357  0.516- 109 2.36 112 2.39  70 2.40  62 2.51
  51  0.932  0.764  0.592-  87 2.31  55 2.33 132 2.37 119 2.37
  52  0.175  0.066  0.455-  65 2.30 107 2.32  74 2.32  93 2.34
  53  0.445  0.698  0.633- 113 2.32  61 2.46  77 2.62 127 2.96 118 3.04
  54  0.531  0.769  0.486- 124 2.34  59 2.41  71 2.43  77 2.52
  55  0.072  0.742  0.555- 133 2.30  51 2.33 114 2.39  49 2.43 132 3.09
  56  0.945  0.289  0.353-  67 2.24 106 2.30 120 2.34
  57  0.292  0.749  0.441- 128 2.30 124 2.31  64 2.34  68 2.39
  58  0.874  0.039  0.463-  72 2.33 105 2.33  76 2.36 131 2.44
  59  0.533  0.633  0.439- 123 2.36  88 2.38  54 2.41  99 2.42
  60  0.422  0.101  0.469-  43 2.31  62 2.33  74 2.34  85 2.37
  61  0.453  0.531  0.643- 127 2.35 130 2.42  53 2.46 118 3.06
  62  0.443  0.191  0.534-  60 2.33 100 2.38 134 2.47  50 2.51
  63  0.705  0.157  0.336-  29 1.48  67 2.23 115 2.31
  64  0.309  0.608  0.479-  99 2.30 118 2.33  57 2.34 103 2.35
  65  0.234  0.996  0.519-  85 2.27  52 2.30  49 2.36 134 2.43
  66  0.119  0.621  0.376-  94 2.35 128 2.37  95 2.42 108 2.51
  67  0.856  0.165  0.348-  63 2.23  56 2.24 131 2.27
  68  0.331  0.749  0.362- 108 2.32  96 2.32  57 2.39 129 2.39  41 3.14
  69  0.265  0.072  0.630- 134 2.30  42 2.31  39 2.32
  70  0.418  0.389  0.440-  44 2.33 111 2.35  99 2.37  50 2.40
  71  0.652  0.820  0.435-  84 2.30  79 2.32 123 2.35  54 2.43
  72  0.731  0.107  0.472-   1 1.48 110 2.32  58 2.33 115 2.37
  73  0.961  0.451  0.444-  80 2.29 106 2.32  94 2.36 102 2.49
  74  0.293  0.162  0.432-  52 2.32  44 2.34  60 2.34  91 2.35
  75  0.063  0.090  0.360- 107 2.31 131 2.34 120 2.37
  76  0.968  0.103  0.520-  93 2.30 126 2.31  58 2.36  78 2.39
  77  0.529  0.796  0.571-  97 2.34 117 2.43  54 2.52  53 2.62
  78  0.031  0.010  0.579-  87 2.35  49 2.38  76 2.39  39 2.43 126 3.10
  79  0.801  0.785  0.457-  71 2.32  92 2.34 105 2.34  40 2.41
  80  0.927  0.603  0.454-  73 2.29 133 2.35  92 2.37  95 2.40
  81  0.440  0.197  0.350- 111 2.29  91 2.32  43 2.35
  82  0.264  0.853  0.604-  42 2.27  49 2.31 113 2.32
  83  0.040  0.863  0.421-  33 1.73 128 2.27 107 2.34  40 2.36
  84  0.703  0.940  0.391- 115 2.28  71 2.30 101 2.30
  85  0.385  0.965  0.508- 124 2.26  65 2.27 117 2.35  60 2.37 134 3.13
  86  0.232  0.362  0.522-  47 2.26  46 2.30 112 2.31  44 2.33
  87  0.900  0.916  0.577-  51 2.31  98 2.33  78 2.35 105 2.37
  88  0.656  0.549  0.472-  18 1.49  59 2.38 109 2.38  92 2.44
  89  0.811  0.555  0.617-  23 1.48  17 1.48 122 2.33 119 2.35
  90  0.964  0.301  0.597-  30 1.49 126 2.30 125 2.32 102 2.50
  91  0.283  0.219  0.357-  81 2.32  74 2.35 116 2.47  44 3.05
  92  0.790  0.641  0.493-  79 2.34  80 2.37 119 2.40  88 2.44
  93  0.079  0.183  0.481-  76 2.30  52 2.34  47 2.40 120 2.48
  94  0.106  0.477  0.412-  66 2.35 103 2.36  73 2.36 116 2.40
  95  0.956  0.652  0.377-  38 1.48  40 2.33  80 2.40  66 2.42
  96  0.480  0.802  0.353-  68 2.32  41 2.32 123 2.32
  97  0.685  0.798  0.590-  98 2.33  77 2.34 119 2.36
  98  0.745  0.946  0.588-   6 1.52  97 2.33  87 2.33 110 2.37
  99  0.397  0.546  0.421-  64 2.30  70 2.37  59 2.42 108 2.57
 100  0.543  0.085  0.571- 110 2.33  45 2.34 117 2.37  62 2.38
 101  0.836  0.916  0.350-  84 2.30  40 2.31 131 2.35
 102  0.963  0.389  0.524-  34 1.50  27 1.51  46 2.33  73 2.49  90 2.50
 103  0.160  0.547  0.479-  46 2.28 133 2.30  64 2.35  94 2.36
 104  0.606  0.334  0.642-  10 1.46  31 1.47  35 1.47  36 1.54  45 3.12
 105  0.886  0.895  0.497-  33 1.71  58 2.33  79 2.34  87 2.37
 106  0.854  0.386  0.395-  22 1.48   7 1.48  56 2.30  73 2.32
 107  0.143  0.971  0.393-  75 2.31  52 2.32  83 2.34 129 2.39
 108  0.286  0.597  0.358-  68 2.32  66 2.51  99 2.57
 109  0.603  0.446  0.529- 127 2.33  50 2.36  88 2.38
 110  0.663  0.021  0.529-  21 1.50  72 2.32 100 2.33  98 2.37
 111  0.497  0.335  0.375-  32 1.48   9 1.49  81 2.29  70 2.35
 112  0.354  0.427  0.561-  86 2.31 130 2.31  50 2.39 118 2.41
 113  0.298  0.698  0.602-  53 2.32 114 2.32  82 2.32 118 2.42
 114  0.147  0.654  0.613- 113 2.32 121 2.34  55 2.39 132 2.40 122 3.06
 115  0.653  0.087  0.402-  84 2.28  63 2.31  43 2.31  72 2.37
 116  0.180  0.338  0.388-  44 2.28 120 2.35  94 2.40  91 2.47
 117  0.459  0.947  0.579-  85 2.35  42 2.37 100 2.37  77 2.43
 118  0.372  0.591  0.551-  64 2.33 127 2.38 112 2.41 113 2.42  53 3.04  61 3.06
 119  0.795  0.686  0.571-  89 2.35  97 2.36  51 2.37  92 2.40
 120  0.062  0.230  0.400-  56 2.34 116 2.35  75 2.37  93 2.48
 121  0.105  0.499  0.612-  46 2.32 114 2.34 122 2.34  48 2.35
 122  0.965  0.560  0.637-  89 2.33 132 2.33 121 2.34 114 3.06
 123  0.603  0.715  0.379-  96 2.32  71 2.35  59 2.36
 124  0.408  0.852  0.456-  85 2.26  57 2.31  54 2.34  41 2.37
 125  0.110  0.253  0.618-  90 2.32  47 2.34  39 2.38  48 2.40
 126  0.888  0.168  0.580-  25 1.49  90 2.30  76 2.31  78 3.10
 127  0.526  0.557  0.573-   3 1.50 109 2.33  61 2.35 118 2.38  53 2.96
 128  0.136  0.742  0.429-  83 2.27 133 2.28  57 2.30  66 2.37
 129  0.278  0.904  0.360-  41 2.35 107 2.39  68 2.39
 130  0.347  0.403  0.639- 112 2.31  48 2.37  61 2.42
 131  0.917  0.039  0.382-  67 2.27  75 2.34 101 2.35  58 2.44
 132  0.016  0.707  0.655- 122 2.33  51 2.37 114 2.40  55 3.09
 133  0.059  0.668  0.486- 128 2.28  55 2.30 103 2.30  80 2.35
 134  0.293  0.130  0.559-  69 2.30  47 2.31  65 2.43  62 2.47  85 3.13

  LATTYP: Found a simple tetragonal cell.
 ALAT       =    14.5848868249
 C/A-ratio  =     2.0077039576
  
  Lattice vectors:
  
 A1 = (  14.5848868249,   0.0000000000,   0.0000000000)
 A2 = (   0.0000000000,  14.5848868249,   0.0000000000)
 A3 = (   0.0000000000,   0.0000000000,  29.2821350000)


Analysis of symmetry for initial positions (statically):
=====================================================================
 Subroutine PRICEL returns:
 Original cell was already a primitive cell.
 

 Routine SETGRP: Setting up the symmetry group for a 
 simple tetragonal supercell.


 Subroutine GETGRP returns: Found  1 space group operations
 (whereof  1 operations were pure point group operations)
 out of a pool of 16 trial point group operations.


The static configuration has the point symmetry C_1 .


Analysis of symmetry for dynamics (positions and initial velocities):
=====================================================================
 Subroutine PRICEL returns:
 Original cell was already a primitive cell.
 

 Routine SETGRP: Setting up the symmetry group for a 
 simple tetragonal supercell.


 Subroutine GETGRP returns: Found  1 space group operations
 (whereof  1 operations were pure point group operations)
 out of a pool of 16 trial point group operations.


The dynamic configuration has the point symmetry C_1 .


 Subroutine INISYM returns: Found  1 space group operations
 (whereof  1 operations are pure point group operations),
 and found     1 'primitive' translations


----------------------------------------------------------------------------------------

                                     Primitive cell                                     

  volume of cell :    6228.8642

  direct lattice vectors                    reciprocal lattice vectors
    14.584886825  0.000000000  0.000000000     0.068564125  0.000000000  0.000000000
     0.000000000 14.584886825  0.000000000     0.000000000  0.068564125  0.000000000
     0.000000000  0.000000000 29.282135000     0.000000000  0.000000000  0.034150515

  length of vectors
    14.584886825 14.584886825 29.282135000     0.068564125  0.068564125  0.034150515

  position of ions in fractional coordinates (direct lattice)
     0.738774027  0.201662743  0.489729707
     0.769689456  0.355430589  0.575676077
     0.597510629  0.630848761  0.574878155
     0.763929247  0.275087410  0.658651999
     0.615176135  0.267097140  0.444437749
     0.725196308  0.007011738  0.629134865
     0.775785606  0.339605280  0.418246901
     0.608729179  0.285561545  0.467888091
     0.482135145  0.401577251  0.337585457
     0.670023334  0.407187002  0.629731362
     0.887024145  0.251977433  0.459726931
     0.775326677  0.305029470  0.575405004
     0.445550521  0.208550408  0.673986152
     0.760875026  0.348945593  0.493259483
     0.807246025  0.252949083  0.650848353
     0.647654550  0.500469308  0.340639382
     0.755964480  0.562521124  0.659594827
     0.690818281  0.489931334  0.434012908
     0.488242592  0.178810477  0.667102507
     0.721943537  0.368511666  0.508048784
     0.624628955  0.943678664  0.501798076
     0.813484800  0.457786581  0.365790763
     0.783681105  0.471014737  0.592846906
     0.644789069  0.499443712  0.366032599
     0.786586521  0.171263366  0.573928003
     0.862819065  0.215107545  0.446386356
     0.932631564  0.302097996  0.500996781
     0.767578979  0.590411850  0.390422184
     0.664912187  0.245749062  0.322177120
     0.917553036  0.360604796  0.631214557
     0.591348166  0.331456534  0.691698251
     0.596469719  0.335828498  0.384495268
     0.993209109  0.879610804  0.475274910
     0.886120648  0.448481087  0.540134916
     0.517644656  0.345980386  0.618564646
     0.641156072  0.240420706  0.625019129
     0.738679609  0.628970549  0.381230541
     0.908644824  0.602961526  0.339978822
     0.108277419  0.095204473  0.639165469
     0.902254883  0.799494444  0.392545881
     0.426019267  0.935541113  0.386954501
     0.359792384  0.948451313  0.642829492
     0.494469384  0.080792487  0.399202891
     0.276417344  0.317859350  0.448919401
     0.607376128  0.120023616  0.641779605
     0.107547720  0.453777577  0.536421662
     0.170863333  0.227505646  0.545205560
     0.187423803  0.382535891  0.649576232
     0.139613022  0.894789443  0.559921709
     0.470712039  0.356554605  0.515509470
     0.932135339  0.763565859  0.591828874
     0.175040839  0.065614959  0.454683250
     0.444689192  0.697750360  0.632587120
     0.530969395  0.769143017  0.485826391
     0.072319670  0.742437200  0.555029699
     0.945417104  0.289364492  0.353295407
     0.291901237  0.748703561  0.441471983
     0.874355815  0.038519436  0.462670378
     0.533152124  0.633220018  0.439262420
     0.422432697  0.101457166  0.468665744
     0.453203004  0.530667815  0.642882894
     0.443018278  0.190701082  0.533893234
     0.705144537  0.156528482  0.335964944
     0.309032194  0.607537759  0.478590818
     0.234306837  0.996186437  0.518615597
     0.119453040  0.621251806  0.375719510
     0.855698659  0.164788900  0.348236185
     0.331281338  0.748795850  0.362414906
     0.264904022  0.072451587  0.630398082
     0.417891897  0.389310821  0.439684568
     0.652349160  0.820047110  0.434914740
     0.731435930  0.106853156  0.471708509
     0.960641956  0.450861903  0.444407991
     0.293313293  0.162035970  0.431851714
     0.062617655  0.089692643  0.359525165
     0.968126313  0.103194882  0.520049769
     0.529385486  0.796367566  0.570798202
     0.030857705  0.009981029  0.579372006
     0.801071399  0.784739888  0.457405718
     0.926908053  0.602637776  0.454144110
     0.440117554  0.196867322  0.350295487
     0.264137330  0.853350210  0.603874504
     0.039808383  0.862798505  0.421438948
     0.702637392  0.939935928  0.390627276
     0.385076022  0.964640695  0.507856257
     0.232255237  0.362000630  0.522082436
     0.900144292  0.915799433  0.577082599
     0.656207473  0.548767476  0.471883341
     0.810639533  0.555345244  0.617272092
     0.964054726  0.301208377  0.596835645
     0.283468898  0.219490193  0.356905140
     0.789600959  0.640977587  0.492632741
     0.079034465  0.182806218  0.480826014
     0.106125205  0.477478588  0.411700465
     0.956480308  0.652056140  0.377293686
     0.479737290  0.802299995  0.352929771
     0.684661945  0.798201600  0.590453378
     0.744935674  0.945847190  0.588205258
     0.396720151  0.545734248  0.421108193
     0.543407983  0.084982759  0.570774994
     0.835962596  0.915534255  0.350263469
     0.963404281  0.389447893  0.523820844
     0.160031074  0.546655127  0.479399284
     0.606151404  0.334072996  0.642185534
     0.885956617  0.895331447  0.497181791
     0.853858582  0.386164089  0.395433980
     0.143357261  0.970913428  0.392962601
     0.286080201  0.596908731  0.357705195
     0.602652488  0.446454646  0.529237225
     0.663436641  0.021175074  0.529256439
     0.496624572  0.334860845  0.375313000
     0.354377539  0.427237866  0.560688445
     0.298178799  0.697985106  0.602045573
     0.146886948  0.654188472  0.612809227
     0.652845911  0.086729170  0.401750562
     0.180025055  0.337993511  0.388299451
     0.459281770  0.946529105  0.578702554
     0.372274742  0.590700916  0.551173475
     0.794874827  0.686380278  0.571292655
     0.062291364  0.230479216  0.399782342
     0.105294195  0.499471611  0.612424139
     0.965310750  0.560210489  0.636779139
     0.602570747  0.715443514  0.379073260
     0.407986011  0.852358276  0.455921908
     0.109544680  0.252588916  0.617970834
     0.887942724  0.167602953  0.580143748
     0.526238557  0.556645632  0.572555489
     0.136224806  0.741598970  0.429295284
     0.277677453  0.903826211  0.360396852
     0.347420402  0.402754088  0.638711382
     0.917221230  0.039145168  0.382290033
     0.016337721  0.707151106  0.655169092
     0.059276520  0.667610149  0.486173433
     0.293006858  0.129833647  0.558701187

  ion indices of the primitive-cell ions
   primitive index   ion index
                 1           1
                 2           2
                 3           3
                 4           4
                 5           5
                 6           6
                 7           7
                 8           8
                 9           9
                10          10
                11          11
                12          12
                13          13
                14          14
                15          15
                16          16
                17          17
                18          18
                19          19
                20          20
                21          21
                22          22
                23          23
                24          24
                25          25
                26          26
                27          27
                28          28
                29          29
                30          30
                31          31
                32          32
                33          33
                34          34
                35          35
                36          36
                37          37
                38          38
                39          39
                40          40
                41          41
                42          42
                43          43
                44          44
                45          45
                46          46
                47          47
                48          48
                49          49
                50          50
                51          51
                52          52
                53          53
                54          54
                55          55
                56          56
                57          57
                58          58
                59          59
                60          60
                61          61
                62          62
                63          63
                64          64
                65          65
                66          66
                67          67
                68          68
                69          69
                70          70
                71          71
                72          72
                73          73
                74          74
                75          75
                76          76
                77          77
                78          78
                79          79
                80          80
                81          81
                82          82
                83          83
                84          84
                85          85
                86          86
                87          87
                88          88
                89          89
                90          90
                91          91
                92          92
                93          93
                94          94
                95          95
                96          96
                97          97
                98          98
                99          99
               100         100
               101         101
               102         102
               103         103
               104         104
               105         105
               106         106
               107         107
               108         108
               109         109
               110         110
               111         111
               112         112
               113         113
               114         114
               115         115
               116         116
               117         117
               118         118
               119         119
               120         120
               121         121
               122         122
               123         123
               124         124
               125         125
               126         126
               127         127
               128         128
               129         129
               130         130
               131         131
               132         132
               133         133
               134         134

----------------------------------------------------------------------------------------


 -----------------------------------------------------------------------------
|                                                                             |
|           W    W    AA    RRRRR   N    N  II  N    N   GGGG   !!!           |
|           W    W   A  A   R    R  NN   N  II  NN   N  G    G  !!!           |
|           W    W  A    A  R    R  N N  N  II  N N  N  G       !!!           |
|           W WW W  AAAAAA  RRRRR   N  N N  II  N  N N  G  GGG   !            |
|           WW  WW  A    A  R   R   N   NN  II  N   NN  G    G                |
|           W    W  A    A  R    R  N    N  II  N    N   GGGG   !!!           |
|                                                                             |
|     The requested file  could not be found or opened for reading            |
|     k-point information. Automatic k-point generation is used as a          |
|     fallback, which may lead to unwanted results.                           |
|                                                                             |
 -----------------------------------------------------------------------------



Automatic generation of k-mesh.
 Grid dimensions derived from KSPACING:
 generate k-points for:    2    2    1

 Generating k-lattice:

  Cartesian coordinates                     Fractional coordinates (reciprocal lattice)
     0.034282062  0.000000000  0.000000000     0.500000000  0.000000000  0.000000000
     0.000000000  0.034282062  0.000000000     0.000000000  0.500000000  0.000000000
     0.000000000  0.000000000  0.034150515     0.000000000  0.000000000  1.000000000

  Length of vectors
     0.034282062  0.034282062  0.034150515

  Shift w.r.t. Gamma in fractional coordinates (k-lattice)
     0.000000000  0.000000000  0.000000000

 
 Subroutine IBZKPT returns following result:
 ===========================================
 
 Found      4 irreducible k-points:
 
 Following reciprocal coordinates:
            Coordinates               Weight
  0.000000  0.000000  0.000000      1.000000
  0.500000  0.000000  0.000000      1.000000
  0.000000  0.500000  0.000000      1.000000
  0.500000  0.500000  0.000000      1.000000
 
 Following cartesian coordinates:
            Coordinates               Weight
  0.000000  0.000000  0.000000      1.000000
  0.034282  0.000000  0.000000      1.000000
  0.000000  0.034282  0.000000      1.000000
  0.034282  0.034282  0.000000      1.000000
 


--------------------------------------------------------------------------------------------------------




 Dimension of arrays:
   k-points           NKPTS =      4   k-points in BZ     NKDIM =      4   number of bands    NBANDS=    280
   number of dos      NEDOS =   2000   number of ions     NIONS =    134
   non local maximal  LDIM  =      4   non local SUM 2l+1 LMDIM =      8
   total plane-waves  NPLWV = ******
   max r-space proj   IRMAX =      1   max aug-charges    IRDMAX= 407382
   dimension x,y,z NGX =   168 NGY =  168 NGZ =  336
   dimension x,y,z NGXF=   336 NGYF=  336 NGZF=  672
   support grid    NGXF=   672 NGYF=  672 NGZF= 1344
   ions per type =              38  96
   NGX,Y,Z   is equivalent  to a cutoff of  19.15, 19.15, 19.08 a.u.
   NGXF,Y,Z  is equivalent  to a cutoff of  38.30, 38.30, 38.15 a.u.

 SYSTEM =  a-Si SPC                                
 POSCAR =   H Si                                   

 Startparameter for this run:
   NWRITE =      2    write-flag & timer
   PREC   = accura    normal or accurate (medium, high low for compatibility)
   ISTART =      1    job   : 0-new  1-cont  2-samecut
   ICHARG =      1    charge: 1-file 2-atom 10-const
   ISPIN  =      1    spin polarized calculation?
   LNONCOLLINEAR =      F non collinear calculations
   LSORBIT =      F    spin-orbit coupling
   INIWAV =      1    electr: 0-lowe 1-rand  2-diag
   LASPH  =      T    aspherical Exc in radial PAW
 Electronic Relaxation 1
   ENCUT  = 1200.0 eV  88.20 Ry    9.39 a.u.  41.20 41.20 82.71*2*pi/ulx,y,z
   ENINI  = 1200.0     initial cutoff
   ENAUG  =  400.0 eV  augmentation charge cutoff
   NELM   =    150;   NELMIN=  2; NELMDL=  0     # of ELM steps 
   EDIFF  = 0.1E-05   stopping-criterion for ELM
   LREAL  =      F    real-space projection
   NLSPLINE    = F    spline interpolate recip. space projectors
   LCOMPAT=      F    compatible to vasp.4.4
   GGA_COMPAT  = T    GGA compatible to vasp.4.4-vasp.4.6
   LMAXPAW     = -100 max onsite density
   LMAXMIX     =    2 max onsite mixed and CHGCAR
   VOSKOWN=      0    Vosko Wilk Nusair interpolation
   ROPT   =    0.00000   0.00000
 Ionic relaxation
   EDIFFG = -.1E-01   stopping-criterion for IOM
   NSW    =      0    number of steps for IOM
   NBLOCK =      1;   KBLOCK =      1    inner block; outer block 
   IBRION =     -1    ionic relax: 0-MD 1-quasi-New 2-CG
   NFREE  =      0    steps in history (QN), initial steepest desc. (CG)
   ISIF   =      2    stress and relaxation
   IWAVPR =     10    prediction:  0-non 1-charg 2-wave 3-comb
   ISYM   =      1    0-nonsym 1-usesym 2-fastsym
   LCORR  =      T    Harris-Foulkes like correction to forces

   POTIM  = 0.5000    time-step for ionic-motion
   TEIN   =    0.0    initial temperature
   TEBEG  =    0.0;   TEEND  =   0.0 temperature during run
   SMASS  =  -3.00    Nose mass-parameter (am)
   estimated Nose-frequenzy (Omega)   =  0.10E-29 period in steps = 0.13E+47 mass=  -0.486E-26a.u.
   SCALEE = 1.0000    scale energy and forces
   NPACO  =    256;   APACO  = 10.0  distance and # of slots for P.C.
   PSTRESS=    0.0 pullay stress

  Mass of Ions in am
   POMASS =   1.00 28.09
  Ionic Valenz
   ZVAL   =   1.00  4.00
  Atomic Wigner-Seitz radii
   RWIGS  =  -1.00 -1.00
  virtual crystal weights 
   VCA    =   1.00  1.00
   NELECT =     422.0000    total number of electrons
   NUPDOWN=      -1.0000    fix difference up-down

 DOS related values:
   EMIN   =  10.00;   EMAX   =-10.00  energy-range for DOS
   EFERMI =   0.00;   METHOD = LEGACY      
   ISMEAR =     0;   SIGMA  =   0.10  broadening in eV -4-tet -1-fermi 0-gaus
   EFERMI_NEDOS =   21; number of points for ismear=-14 and -15

 Electronic relaxation 2 (details)
   IALGO  =     38    algorithm
   LDIAG  =      F    sub-space diagonalisation (order eigenvalues)
   LSUBROT=      F    optimize rotation matrix (better conditioning)
   TURBO    =      0    0=normal 1=particle mesh
   IRESTART =      0    0=no restart 2=restart with 2 vectors
   NREBOOT  =      0    no. of reboots
   NMIN     =      0    reboot dimension
   EREF     =   0.00    reference energy to select bands
   IMIX   =      4    mixing-type and parameters
     AMIX     =   0.40;   BMIX     =  1.00
     AMIX_MAG =   1.60;   BMIX_MAG =  1.00
     AMIN     =   0.10
     WC   =   100.;   INIMIX=   1;  MIXPRE=   1;  MAXMIX= -45

 Intra band minimization:
   WEIMIN = 0.0000     energy-eigenvalue tresh-hold
   EBREAK =  0.89E-09  absolut break condition
   DEPER  =   0.30     relativ break condition  

   TIME   =   0.40     timestep for ELM

  volume/ion in A,a.u.               =      46.48       313.69
  Fermi-wavevector in a.u.,A,eV,Ry     =   0.667384  1.261174  6.060061  0.445402
  Thomas-Fermi vector in A             =   1.741975

 Write flags
   LWAVE        =      F    write WAVECAR
   LDOWNSAMPLE  =      F    k-point downsampling of WAVECAR
   LCHARG       =      F    write CHGCAR
   LVTOT        =      F    write LOCPOT, total local potential
   LVHAR        =      F    write LOCPOT, Hartree potential only
   WRT_POTENTIAL= false  ! write potential to hdf5 file
   LELF         =      F    write electronic localiz. function (ELF)
   LORBIT       =     11    0 simple, 1 ext, 2 COOP (PROOUT), +10 PAW based schemes


 Python interface
   PLUGINS active      =      F    recompile with -DPLUGINS to activate

 Dipole corrections
   LMONO      =      F    monopole corrections only (constant potential shift)
   LDIPOL     =      F    correct potential (dipole corrections)
   IDIPOL     =      0    1-x, 2-y, 3-z, 4-all directions 
   EPSILON    =  1.0000000 bulk dielectric constant
   LVACPOTAV  =      F  vacuum potentials using an averaging scheme for the charge density
   VACPOTFLAT =  0.1000000 required flatness to determine vacuum potential

Coulomb truncation method
  LTRUNCATE          =      F  Coulomb kernel truncation to be used
  IDIMENSIONALITY    =      3  Dimensionality of cutoff (0 molecules / 2 surfaces)
  ISURFACE           =     -1  Direction of surface normal
  LCOARSEN           =      F  Coarsen the charge grid before padding, preferred


 Exchange correlation treatment:
   METAGGA = SCAN    functional components
   XC_C    = 1    coefficients multiplying the functional components
   LIBXC   =     F    Libxc                    
   VOSKOWN =     0    Vosko Wilk Nusair interpolation
   LHFCALC =     F    Hartree Fock is set to
   LHFONE  =     F    Hartree Fock one center treatment
   AEXX    =    0.0000 exact exchange contribution

 Parameters of functionals:
   SCAN:
     P1 =  0.000000E+00
     P2 =  0.000000E+00
     P3 =  0.000000E+00

 Accuracy and mixing parameters for tau-dependent meta-GGA functionals:
   LMAXTAU = 6
   LMIXTAU = T

 Van der Waals corrections
   IVDW    =     0    specifies the selected vdW correction

 Linear response parameters
   LEPSILON=     F    determine dielectric tensor
   LRPA    =     F    only Hartree local field effects (RPA)
   LNABLA  =     F    use nabla operator in PAW spheres
   LVEL    =     F    velocity operator in full k-point grid
   CSHIFT  =0.1000    complex shift for real part using Kramers Kronig
   OMEGAMAX=  -1.0    maximum frequency
   DEG_THRESHOLD= 0.2000000E-02 threshold for treating states as degnerate
   RTIME   =   -0.100 relaxation time in fs
  (WPLASMAI=    0.000 imaginary part of plasma frequency in eV, 0.658/RTIME)
   DFIELD  = 0.0000000 0.0000000 0.0000000 field for delta impulse in time

  Optional k-point grid parameters
   LKPOINTS_OPT  =     F    use optional k-point grid
   KPOINTS_OPT_MODE=     1    mode for optional k-point grid

 Orbital magnetization related:
   ORBITALMAG=     F  switch on orbital magnetization
   LCHIMAG   =     F  perturbation theory with respect to B field
   DQ        =  0.001000  dq finite difference perturbation B field
   LLRAUG    =     F  two centre corrections for induced B field
   LBONE     =     F  B-component reconstruction in AE one-centre
   LVGVCALC  =     T  calculate vGv susceptibility
   LVGVAPPL  =     F  apply vGv susceptibility instead of pGv for G=0

 Random number generation:
   RANDOM_GENERATOR = DEFAULT
   PCG_SEED         = not used


--------------------------------------------------------------------------------------------------------


 Static calculation
 charge density and potential will be updated during run
 non-spin polarized calculation
 Variant of blocked Davidson
 perform Loewdin sub-space diagonalisation
    ordering is kept fixed
    before iterative eigenvector-optimisation
 modified Broyden-mixing scheme, WC =      100.0
 initial mixing is a Kerker type mixing with AMIX =  0.4000 and BMIX =      1.0000
 Hartree-type preconditioning will be used
 using additional bands           69
 reciprocal scheme for non local part
 use partial core corrections
 calculate Harris-corrections to forces   (improved forces if not selfconsistent)
 use gradient corrections 
 use of overlap-Matrix (Vanderbilt PP)
 Gauss-broadening in eV      SIGMA  =   0.10


--------------------------------------------------------------------------------------------------------


  energy-cutoff  :     1200.00
  volume of cell :     6228.86
      direct lattice vectors                 reciprocal lattice vectors
    14.584886825  0.000000000  0.000000000     0.068564125  0.000000000  0.000000000
     0.000000000 14.584886825  0.000000000     0.000000000  0.068564125  0.000000000
     0.000000000  0.000000000 29.282135000     0.000000000  0.000000000  0.034150515

  length of vectors
    14.584886825 14.584886825 29.282135000     0.068564125  0.068564125  0.034150515



 old parameters found on file WAVECAR:
  energy-cutoff  :     1200.00
  volume of cell :     6228.86
      direct lattice vectors                 reciprocal lattice vectors
    14.584886825  0.000000000  0.000000000     0.068564125  0.000000000  0.000000000
     0.000000000 14.584886825  0.000000000     0.000000000  0.068564125  0.000000000
     0.000000000  0.000000000 29.282135000     0.000000000  0.000000000  0.034150515

  length of vectors


 k-points in units of 2pi/SCALE and weight: read from INCAR                         
   0.00000000  0.00000000  0.00000000       0.250
   0.03428206  0.00000000  0.00000000       0.250
   0.00000000  0.03428206  0.00000000       0.250
   0.03428206  0.03428206  0.00000000       0.250

 k-points in reciprocal lattice and weights: read from INCAR                         
   0.00000000  0.00000000  0.00000000       0.250
   0.50000000  0.00000000  0.00000000       0.250
   0.00000000  0.50000000  0.00000000       0.250
   0.50000000  0.50000000  0.00000000       0.250

 position of ions in fractional coordinates (direct lattice) 
   0.73877403  0.20166274  0.48972971
   0.76968946  0.35543059  0.57567608
   0.59751063  0.63084876  0.57487815
   0.76392925  0.27508741  0.65865200
   0.61517613  0.26709714  0.44443775
   0.72519631  0.00701174  0.62913486
   0.77578561  0.33960528  0.41824690
   0.60872918  0.28556155  0.46788809
   0.48213515  0.40157725  0.33758546
   0.67002333  0.40718700  0.62973136
   0.88702414  0.25197743  0.45972693
   0.77532668  0.30502947  0.57540500
   0.44555052  0.20855041  0.67398615
   0.76087503  0.34894559  0.49325948
   0.80724602  0.25294908  0.65084835
   0.64765455  0.50046931  0.34063938
   0.75596448  0.56252112  0.65959483
   0.69081828  0.48993133  0.43401291
   0.48824259  0.17881048  0.66710251
   0.72194354  0.36851167  0.50804878
   0.62462895  0.94367866  0.50179808
   0.81348480  0.45778658  0.36579076
   0.78368110  0.47101474  0.59284691
   0.64478907  0.49944371  0.36603260
   0.78658652  0.17126337  0.57392800
   0.86281907  0.21510755  0.44638636
   0.93263156  0.30209800  0.50099678
   0.76757898  0.59041185  0.39042218
   0.66491219  0.24574906  0.32217712
   0.91755304  0.36060480  0.63121456
   0.59134817  0.33145653  0.69169825
   0.59646972  0.33582850  0.38449527
   0.99320911  0.87961080  0.47527491
   0.88612065  0.44848109  0.54013492
   0.51764466  0.34598039  0.61856465
   0.64115607  0.24042071  0.62501913
   0.73867961  0.62897055  0.38123054
   0.90864482  0.60296153  0.33997882
   0.10827742  0.09520447  0.63916547
   0.90225488  0.79949444  0.39254588
   0.42601927  0.93554111  0.38695450
   0.35979238  0.94845131  0.64282949
   0.49446938  0.08079249  0.39920289
   0.27641734  0.31785935  0.44891940
   0.60737613  0.12002362  0.64177960
   0.10754772  0.45377758  0.53642166
   0.17086333  0.22750565  0.54520556
   0.18742380  0.38253589  0.64957623
   0.13961302  0.89478944  0.55992171
   0.47071204  0.35655460  0.51550947
   0.93213534  0.76356586  0.59182887
   0.17504084  0.06561496  0.45468325
   0.44468919  0.69775036  0.63258712
   0.53096940  0.76914302  0.48582639
   0.07231967  0.74243720  0.55502970
   0.94541710  0.28936449  0.35329541
   0.29190124  0.74870356  0.44147198
   0.87435581  0.03851944  0.46267038
   0.53315212  0.63322002  0.43926242
   0.42243270  0.10145717  0.46866574
   0.45320300  0.53066781  0.64288289
   0.44301828  0.19070108  0.53389323
   0.70514454  0.15652848  0.33596494
   0.30903219  0.60753776  0.47859082
   0.23430684  0.99618644  0.51861560
   0.11945304  0.62125181  0.37571951
   0.85569866  0.16478890  0.34823619
   0.33128134  0.74879585  0.36241491
   0.26490402  0.07245159  0.63039808
   0.41789190  0.38931082  0.43968457
   0.65234916  0.82004711  0.43491474
   0.73143593  0.10685316  0.47170851
   0.96064196  0.45086190  0.44440799
   0.29331329  0.16203597  0.43185171
   0.06261765  0.08969264  0.35952517
   0.96812631  0.10319488  0.52004977
   0.52938549  0.79636757  0.57079820
   0.03085770  0.00998103  0.57937201
   0.80107140  0.78473989  0.45740572
   0.92690805  0.60263778  0.45414411
   0.44011755  0.19686732  0.35029549
   0.26413733  0.85335021  0.60387450
   0.03980838  0.86279851  0.42143895
   0.70263739  0.93993593  0.39062728
   0.38507602  0.96464070  0.50785626
   0.23225524  0.36200063  0.52208244
   0.90014429  0.91579943  0.57708260
   0.65620747  0.54876748  0.47188334
   0.81063953  0.55534524  0.61727209
   0.96405473  0.30120838  0.59683565
   0.28346890  0.21949019  0.35690514
   0.78960096  0.64097759  0.49263274
   0.07903447  0.18280622  0.48082601
   0.10612521  0.47747859  0.41170047
   0.95648031  0.65205614  0.37729369
   0.47973729  0.80229999  0.35292977
   0.68466194  0.79820160  0.59045338
   0.74493567  0.94584719  0.58820526
   0.39672015  0.54573425  0.42110819
   0.54340798  0.08498276  0.57077499
   0.83596260  0.91553426  0.35026347
   0.96340428  0.38944789  0.52382084
   0.16003107  0.54665513  0.47939928
   0.60615140  0.33407300  0.64218553
   0.88595662  0.89533145  0.49718179
   0.85385858  0.38616409  0.39543398
   0.14335726  0.97091343  0.39296260
   0.28608020  0.59690873  0.35770519
   0.60265249  0.44645465  0.52923722
   0.66343664  0.02117507  0.52925644
   0.49662457  0.33486085  0.37531300
   0.35437754  0.42723787  0.56068844
   0.29817880  0.69798511  0.60204557
   0.14688695  0.65418847  0.61280923
   0.65284591  0.08672917  0.40175056
   0.18002505  0.33799351  0.38829945
   0.45928177  0.94652911  0.57870255
   0.37227474  0.59070092  0.55117348
   0.79487483  0.68638028  0.57129265
   0.06229136  0.23047922  0.39978234
   0.10529420  0.49947161  0.61242414
   0.96531075  0.56021049  0.63677914
   0.60257075  0.71544351  0.37907326
   0.40798601  0.85235828  0.45592191
   0.10954468  0.25258892  0.61797083
   0.88794272  0.16760295  0.58014375
   0.52623856  0.55664563  0.57255549
   0.13622481  0.74159897  0.42929528
   0.27767745  0.90382621  0.36039685
   0.34742040  0.40275409  0.63871138
   0.91722123  0.03914517  0.38229003
   0.01633772  0.70715111  0.65516909
   0.05927652  0.66761015  0.48617343
   0.29300686  0.12983365  0.55870119

 position of ions in cartesian coordinates  (Angst):
  10.77493558  2.94122829 14.34033140
  11.22583361  5.18391491 16.85702460
   8.71462490  9.20085779 16.83365974
  11.14182161  4.01211874 19.28673675
   8.97227430  3.89558156 13.01408616
  10.57690608  0.10226541 18.42241205
  11.31474526  4.95310458 12.24716223
   8.87824618  4.16488282 13.70076225
   7.03188653  5.85695876  9.88522293
   9.77221449  5.93877634 18.43987876
  12.93714676  3.67506234 13.46178605
  11.30805184  4.44882030 16.84908702
   6.49830392  3.04168410 19.73575348
  11.09727614  5.08933198 14.44369076
  11.77359191  3.68923375 19.05822934
   9.44596831  7.29928821  9.97464836
  11.02565639  8.20430693 19.31434477
  10.07550645  7.14559306 12.70882456
   7.12096295  2.60793057 19.53418567
  10.52946478  5.37470094 14.87675309
   9.11014261 13.76344651 14.69371899
  11.86458374  6.67676547 10.71113449
  11.42990022  6.86969663 17.35982315
   9.40417559  7.28433001 10.71821598
  11.47227539  2.49785681 16.80583727
  12.58411842  3.13731920 13.07114554
  13.60232580  4.40606508 14.67025537
  11.19505254  8.61109001 11.43239511
   9.69766900  3.58422225  9.43403393
  13.38240719  5.25938014 18.48330986
   8.62474607  4.83425604 20.25440157
   8.69944334  4.89802063 11.25884235
  14.48584244 12.82902403 13.91706409
  12.92396937  6.54104589 15.81630352
   7.54978872  5.04608478 18.11289347
   9.35118874  3.50650879 18.30189452
  10.77355850  9.17346427 11.16324418
  13.25248192  8.79412561  9.95530575
   1.57921390  1.38854646 18.71612954
  13.15928535 11.66053599 11.49458147
   6.21344280 13.64476126 11.33085393
   5.24753120 13.83305506 18.82341997
   7.21178000  1.17834928 11.68951295
   4.03151568  4.63594265 13.14531851
   8.85851208  1.75053085 18.79267703
   1.56857132  6.61829460 15.70757151
   2.49202237  3.31814410 15.96478281
   2.73355496  5.57924268 19.02097891
   2.03624012 13.05040276 16.39570308
   6.86528182  5.20030856 15.09521788
  13.59508843 11.13652163 17.33001300
   2.55295083  0.95698675 13.31409630
   6.48574154 10.17661003 18.52350145
   7.74412854 11.21786386 14.22603397
   1.05477420 10.82836254 16.25245457
  13.78880146  4.22034836 10.34524381
   4.25734650 10.91975670 12.92724220
  12.75238060  0.56180161 13.54797648
   7.77596339  9.23544230 12.86254147
   6.16113307  1.47974128 13.72353358
   6.60991452  7.73973002 18.82498370
   6.46137144  2.78135370 15.63353374
  10.28445327  2.28295019  9.83777086
   4.50719957  8.86086946 14.01416093
   3.41733870 14.52926644 15.18617191
   1.74220907  9.06088728 11.00186941
  12.48026810  2.40342746 10.19709899
   4.83170082 10.92110272 10.61228219
   3.86359518  1.05669819 18.45940175
   6.09490603  5.67805426 12.87490287
   9.51443867 11.96029429 12.73523212
  10.66791026  1.55844118 13.81263225
  14.01085421  6.57576983 13.01321479
   4.27794118  2.36327629 12.64554018
   0.91327141  1.30815704 10.52766443
  14.12001271  1.50508568 15.22816755
   7.72102740 11.61493082 16.71419000
   0.45005613  0.14557218 16.96524930
  11.68353569 11.44534246 13.39381599
  13.51884905  8.78940376 13.29830915
   6.41906471  2.87128761 10.25739974
   3.85241307 12.44601624 17.68273475
   0.58060076 12.58381855 12.34063217
  10.24788684 13.70885913 11.43840064
   5.61629020 14.06917537 14.87111548
   3.38741634  5.27973822 15.28768838
  13.12850263 13.35683108 16.89821058
   9.57071173  8.00371153 13.81775170
  11.82308584  8.09964753 18.07504472
  14.06062907  4.39309009 17.47662193
   4.13436180  3.20123962 10.45094450
  11.51624063  9.34858557 14.42533843
   1.15270873  2.66620800 14.07961226
   1.54782411  6.96397117 12.05546860
  13.95015704  9.51016501 11.04796465
   6.99691408 11.70145462 10.33453721
   9.98571698 11.64168000 17.28973552
  10.86480249 13.79507422 17.22390578
   5.78611851  7.95947224 12.33094695
   7.92554393  1.23946392 16.71351043
  12.19241985 13.35296350 10.25646219
  14.05114240  5.68005345 15.33859266
   2.33403511  7.97290316 14.03783454
   8.84064963  4.87241684 18.80456351
  12.92157699 13.05830783 14.55854431
  12.45343078  5.63215953 11.57915120
   2.09084942 14.16066246 11.50678394
   4.17244736  8.70584628 10.47437181
   8.78961833  6.51149049 15.49719586
   9.67614832  0.30883606 15.49775851
   7.24321318  4.88390753 10.98996593
   5.16855630  6.23121593 16.41815473
   4.34890403 10.18003378 17.62917975
   2.14232951  9.54126483 17.94436251
   9.52168373  1.26493513 11.76411419
   2.62564505  4.92959710 11.37023694
   6.69857264 13.80501988 16.94564632
   5.42958498  8.61530600 16.13953611
  11.59315939 10.01077867 16.72866864
   0.90851250  3.36151328 11.70648050
   1.53570392  7.28473692 17.93308631
  14.07894804  8.17060658 18.64625270
   8.78842615 10.43466268 11.10007436
   5.95042980 12.43154899 13.35036687
   1.59769676  3.68398076 18.09550539
  12.95054414  2.44447010 16.98784754
   7.67512979  8.11861354 16.76564713
   1.98682338 10.81613705 12.57068247
   4.04989423 13.18220300 10.55318928
   5.06708724  5.87412279 18.70283290
  13.37756783  0.57092785 11.19426837
   0.23828381 10.31371885 19.18474981
   0.86454133  9.73701847 14.23619610
   4.27347187  1.89360905 16.35996359



--------------------------------------------------------------------------------------------------------


 k-point     1 :   0.0000 0.0000 0.0000  plane waves:  588013
 k-point     2 :   0.5000 0.0000 0.0000  plane waves:  588026
 k-point     3 :   0.0000 0.5000 0.0000  plane waves:  588026
 k-point     4 :   0.5000 0.5000 0.0000  plane waves:  588068

 maximum and minimum number of plane-waves per node :     36808    36678

 maximum number of plane-waves:    588068
 maximum index in each direction: 
   IXMAX=   41   IYMAX=   41   IZMAX=   82
   IXMIN=  -41   IYMIN=  -41   IZMIN=  -82


 parallel 3D FFT for wavefunctions:
    minimum data exchange during FFTs selected (reduces bandwidth)
 parallel 3D FFT for charge:
    minimum data exchange during FFTs selected (reduces bandwidth)


 total amount of memory used by VASP MPI-rank0   412658. kBytes
=======================================================================

   base                                    :      30000. kBytes
   nonl-proj                               :      97655. kBytes
   fftplans                                :     114289. kBytes
   grid                                    :      88184. kBytes
   one-center                              :         27. kBytes
   wavefun                                 :      82503. kBytes

     INWAV:  cpu time     24.4182: real time     24.4323
 Broyden mixing: mesh for mixing (old mesh)
   NGX = 83   NGY = 83   NGZ =165
  (NGX  =336   NGY  =336   NGZ  =672)
  gives a total of ****** points

 initial charge density was supplied:
 number of electron     421.9999999 magnetization 
 keeping initial charge density in first step


--------------------------------------------------------------------------------------------------------


 Maximum index for augmentation-charges        11217 (set IRDMAX)


--------------------------------------------------------------------------------------------------------


 First call to EWALD:  gamma=   0.096
 Maximum number of real-space cells   3x   3x   2
 Maximum number of reciprocal cells   2x   2x   4

    FEWALD:  cpu time      0.0238: real time      0.0241


--------------------------------------- Ionic step        1  -------------------------------------------




--------------------------------------- Iteration      1(   1)  ---------------------------------------


    POTLOK:  cpu time      2.3141: real time      2.3166
    SETDIJ:  cpu time      2.2153: real time      2.2164
    EDDIAG:  cpu time     49.4711: real time     49.4978
     EDDAV:  cpu time    242.1807: real time    242.3207
       DOS:  cpu time      0.0083: real time      0.0087
    CHARGE:  cpu time     28.3634: real time     28.3891
    MIXING:  cpu time      0.0561: real time      0.0569
    --------------------------------------------
      LOOP:  cpu time    324.6091: real time    324.8063

 eigenvalue-minimisations  :  2288
 total energy-change (2. order) :-0.1106243E+04  (-0.1207184E+01)
 number of electron     421.9999999 magnetization 
 augmentation part      -20.9847637 magnetization 

 Broyden mixing:
  rms(total) = 0.12267E+01    rms(broyden)= 0.12267E+01
  rms(prec ) = 0.12290E+01
  weight for this iteration     100.00

 Free energy of the ion-electron system (eV)
  ---------------------------------------------------
  alpha Z        PSCENC =        61.00736123
  Ewald energy   TEWEN  =     70937.83384465
  -Hartree energ DENC   =    -80206.51494925
  -exchange      EXHF   =         0.00000000
  -V(xc)+E(xc)   XCENC  =      -349.39012095
  PAW double counting   =     37961.55016543   -37005.41202550
  entropy T*S    EENTRO =        -0.19732691
  eigenvalues    EBANDS =     -2874.09418348
  atomic energy  EATOM  =     10368.97399388
  Solvation  Ediel_sol  =         0.00000000
  ---------------------------------------------------
  free energy    TOTEN  =     -1106.24324090 eV

  energy without entropy =    -1106.04591399  energy(sigma->0) =    -1106.14457744


--------------------------------------------------------------------------------------------------------




--------------------------------------- Iteration      1(   2)  ---------------------------------------


    POTLOK:  cpu time      2.2775: real time      2.2795
    SETDIJ:  cpu time      2.2262: real time      2.2278
    EDDIAG:  cpu time     49.3944: real time     49.4236
     EDDAV:  cpu time    240.9414: real time    241.1808
       DOS:  cpu time      0.0119: real time      0.0121
    CHARGE:  cpu time     28.2591: real time     28.3407
    MIXING:  cpu time      0.0594: real time      0.0600
    --------------------------------------------
      LOOP:  cpu time    323.1703: real time    323.5250

 eigenvalue-minimisations  :  2272
 total energy-change (2. order) : 0.7517488E+02  (-0.1246432E+01)
 number of electron     421.9999999 magnetization 
 augmentation part      -20.9090319 magnetization 

 Broyden mixing:
  rms(total) = 0.83398E+00    rms(broyden)= 0.83398E+00
  rms(prec ) = 0.83587E+00
  weight for this iteration     100.00

 eigenvalues of (default mixing * dielectric matrix)
  average eigenvalue GAMMA=   2.6095
  2.6095

 Free energy of the ion-electron system (eV)
  ---------------------------------------------------
  alpha Z        PSCENC =        61.00736123
  Ewald energy   TEWEN  =     70937.83384465
  -Hartree energ DENC   =    -80191.02175096
  -exchange      EXHF   =         0.00000000
  -V(xc)+E(xc)   XCENC  =      -340.85670087
  PAW double counting   =     45206.32082044   -44249.89679587
  entropy T*S    EENTRO =        -0.19100041
  eigenvalues    EBANDS =     -2823.23813142
  atomic energy  EATOM  =     10368.97399388
  Solvation  Ediel_sol  =         0.00000000
  ---------------------------------------------------
  free energy    TOTEN  =     -1031.06835933 eV

  energy without entropy =    -1030.87735892  energy(sigma->0) =    -1030.97285913


--------------------------------------------------------------------------------------------------------




--------------------------------------- Iteration      1(   3)  ---------------------------------------


    POTLOK:  cpu time      2.2778: real time      2.2804
    SETDIJ:  cpu time      2.2443: real time      2.2466
    EDDIAG:  cpu time     49.4297: real time     49.4592
     EDDAV:  cpu time    239.6893: real time    239.8285
       DOS:  cpu time      0.0060: real time      0.0060
    CHARGE:  cpu time     28.2620: real time     28.2881
    MIXING:  cpu time      0.0448: real time      0.0448
    --------------------------------------------
      LOOP:  cpu time    321.9535: real time    322.1531

 eigenvalue-minimisations  :  2264
 total energy-change (2. order) :-0.2575382E+01  (-0.9284201E+00)
 number of electron     421.9999999 magnetization 
 augmentation part      -20.8342704 magnetization 

 Broyden mixing:
  rms(total) = 0.14127E+00    rms(broyden)= 0.14127E+00
  rms(prec ) = 0.18425E+00
  weight for this iteration     100.00

 eigenvalues of (default mixing * dielectric matrix)
  average eigenvalue GAMMA=   1.7563
  0.8826  2.6300

 Free energy of the ion-electron system (eV)
  ---------------------------------------------------
  alpha Z        PSCENC =        61.00736123
  Ewald energy   TEWEN  =     70937.83384465
  -Hartree energ DENC   =    -80191.57470335
  -exchange      EXHF   =         0.00000000
  -V(xc)+E(xc)   XCENC  =      -342.88534531
  PAW double counting   =     59058.73371743   -58102.55807838
  entropy T*S    EENTRO =        -0.19083203
  eigenvalues    EBANDS =     -2822.98369895
  atomic energy  EATOM  =     10368.97399388
  Solvation  Ediel_sol  =         0.00000000
  ---------------------------------------------------
  free energy    TOTEN  =     -1033.64374084 eV

  energy without entropy =    -1033.45290881  energy(sigma->0) =    -1033.54832482


--------------------------------------------------------------------------------------------------------




--------------------------------------- Iteration      1(   4)  ---------------------------------------


    POTLOK:  cpu time      2.2641: real time      2.2806
    SETDIJ:  cpu time      2.2332: real time      2.2342
    EDDIAG:  cpu time     49.4115: real time     49.4410
     EDDAV:  cpu time    260.8550: real time    261.0017
       DOS:  cpu time      0.0055: real time      0.0055
    CHARGE:  cpu time     28.2689: real time     28.2938
    MIXING:  cpu time      0.0467: real time      0.0467
    --------------------------------------------
      LOOP:  cpu time    343.0849: real time    343.3037

 eigenvalue-minimisations  :  2608
 total energy-change (2. order) :-0.2821741E+00  (-0.1198953E+00)
 number of electron     421.9999999 magnetization 
 augmentation part      -20.8384150 magnetization 

 Broyden mixing:
  rms(total) = 0.11439E+00    rms(broyden)= 0.11439E+00
  rms(prec ) = 0.18454E+00
  weight for this iteration     100.00

 eigenvalues of (default mixing * dielectric matrix)
  average eigenvalue GAMMA=   1.3513
  2.5968  0.9763  0.4809

 Free energy of the ion-electron system (eV)
  ---------------------------------------------------
  alpha Z        PSCENC =        61.00736123
  Ewald energy   TEWEN  =     70937.83384465
  -Hartree energ DENC   =    -80195.71106949
  -exchange      EXHF   =         0.00000000
  -V(xc)+E(xc)   XCENC  =      -344.89662406
  PAW double counting   =     60080.14375454   -59123.93396935
  entropy T*S    EENTRO =        -0.19331503
  eigenvalues    EBANDS =     -2817.14989132
  atomic energy  EATOM  =     10368.97399388
  Solvation  Ediel_sol  =         0.00000000
  ---------------------------------------------------
  free energy    TOTEN  =     -1033.92591496 eV

  energy without entropy =    -1033.73259992  energy(sigma->0) =    -1033.82925744


--------------------------------------------------------------------------------------------------------




--------------------------------------- Iteration      1(   5)  ---------------------------------------


    POTLOK:  cpu time      2.2647: real time      2.2815
    SETDIJ:  cpu time      2.2237: real time      2.2252
    EDDIAG:  cpu time     49.4316: real time     49.4622
     EDDAV:  cpu time    260.0490: real time    260.2059
       DOS:  cpu time      0.0033: real time      0.0033
    CHARGE:  cpu time     28.2587: real time     28.2853
    MIXING:  cpu time      0.0454: real time      0.0454
    --------------------------------------------
      LOOP:  cpu time    342.2765: real time    342.5090

 eigenvalue-minimisations  :  2600
 total energy-change (2. order) : 0.1695755E-01  (-0.3277126E-01)
 number of electron     421.9999999 magnetization 
 augmentation part      -20.8402442 magnetization 

 Broyden mixing:
  rms(total) = 0.60675E-01    rms(broyden)= 0.60675E-01
  rms(prec ) = 0.84396E-01
  weight for this iteration     100.00

 eigenvalues of (default mixing * dielectric matrix)
  average eigenvalue GAMMA=   1.1795
  2.5567  1.1507  0.6821  0.3285

 Free energy of the ion-electron system (eV)
  ---------------------------------------------------
  alpha Z        PSCENC =        61.00736123
  Ewald energy   TEWEN  =     70937.83384465
  -Hartree energ DENC   =    -80196.95415777
  -exchange      EXHF   =         0.00000000
  -V(xc)+E(xc)   XCENC  =      -345.94895526
  PAW double counting   =     59953.70960587   -58997.48549180
  entropy T*S    EENTRO =        -0.19006374
  eigenvalues    EBANDS =     -2814.85509446
  atomic energy  EATOM  =     10368.97399388
  Solvation  Ediel_sol  =         0.00000000
  ---------------------------------------------------
  free energy    TOTEN  =     -1033.90895741 eV

  energy without entropy =    -1033.71889367  energy(sigma->0) =    -1033.81392554


--------------------------------------------------------------------------------------------------------




--------------------------------------- Iteration      1(   6)  ---------------------------------------


    POTLOK:  cpu time      2.2555: real time      2.2725
    SETDIJ:  cpu time      2.2275: real time      2.2288
    EDDIAG:  cpu time     49.4322: real time     49.4590
     EDDAV:  cpu time    243.0101: real time    243.1473
       DOS:  cpu time      0.0027: real time      0.0027
    CHARGE:  cpu time     28.2818: real time     28.3080
    MIXING:  cpu time      0.0473: real time      0.0473
    --------------------------------------------
      LOOP:  cpu time    325.2568: real time    325.4654

 eigenvalue-minimisations  :  2320
 total energy-change (2. order) :-0.4290571E-03  (-0.9582724E-02)
 number of electron     421.9999999 magnetization 
 augmentation part      -20.8369621 magnetization 

 Broyden mixing:
  rms(total) = 0.37198E-01    rms(broyden)= 0.37198E-01
  rms(prec ) = 0.42172E-01
  weight for this iteration     100.00

 eigenvalues of (default mixing * dielectric matrix)
  average eigenvalue GAMMA=   1.1670
  2.5142  1.6122  0.8333  0.5658  0.3095

 Free energy of the ion-electron system (eV)
  ---------------------------------------------------
  alpha Z        PSCENC =        61.00736123
  Ewald energy   TEWEN  =     70937.83384465
  -Hartree energ DENC   =    -80197.90173247
  -exchange      EXHF   =         0.00000000
  -V(xc)+E(xc)   XCENC  =      -346.14279337
  PAW double counting   =     59796.10794786   -58839.86534463
  entropy T*S    EENTRO =        -0.19119846
  eigenvalues    EBANDS =     -2813.73146516
  atomic energy  EATOM  =     10368.97399388
  Solvation  Ediel_sol  =         0.00000000
  ---------------------------------------------------
  free energy    TOTEN  =     -1033.90938647 eV

  energy without entropy =    -1033.71818801  energy(sigma->0) =    -1033.81378724


--------------------------------------------------------------------------------------------------------




--------------------------------------- Iteration      1(   7)  ---------------------------------------


    POTLOK:  cpu time      2.2627: real time      2.2809
    SETDIJ:  cpu time      2.2377: real time      2.2395
    EDDIAG:  cpu time     49.4032: real time     49.4325
     EDDAV:  cpu time    246.8609: real time    247.0116
       DOS:  cpu time      0.0062: real time      0.0062
    CHARGE:  cpu time     28.2730: real time     28.3003
    MIXING:  cpu time      0.0458: real time      0.0458
    --------------------------------------------
      LOOP:  cpu time    329.0895: real time    329.3167

 eigenvalue-minimisations  :  2384
 total energy-change (2. order) : 0.4170625E-03  (-0.1711322E-02)
 number of electron     421.9999999 magnetization 
 augmentation part      -20.8357310 magnetization 

 Broyden mixing:
  rms(total) = 0.22644E-01    rms(broyden)= 0.22644E-01
  rms(prec ) = 0.24262E-01
  weight for this iteration     100.00

 eigenvalues of (default mixing * dielectric matrix)
  average eigenvalue GAMMA=   1.2371
  2.4728  2.4728  0.8430  0.8430  0.4823  0.3090

 Free energy of the ion-electron system (eV)
  ---------------------------------------------------
  alpha Z        PSCENC =        61.00736123
  Ewald energy   TEWEN  =     70937.83384465
  -Hartree energ DENC   =    -80197.20403635
  -exchange      EXHF   =         0.00000000
  -V(xc)+E(xc)   XCENC  =      -346.04817522
  PAW double counting   =     59771.93426012   -58815.67702231
  entropy T*S    EENTRO =        -0.19206201
  eigenvalues    EBANDS =     -2814.53713339
  atomic energy  EATOM  =     10368.97399388
  Solvation  Ediel_sol  =         0.00000000
  ---------------------------------------------------
  free energy    TOTEN  =     -1033.90896941 eV

  energy without entropy =    -1033.71690739  energy(sigma->0) =    -1033.81293840


--------------------------------------------------------------------------------------------------------




--------------------------------------- Iteration      1(   8)  ---------------------------------------


    POTLOK:  cpu time      2.2780: real time      2.2804
    SETDIJ:  cpu time      2.2293: real time      2.2306
    EDDIAG:  cpu time     49.4279: real time     49.4565
     EDDAV:  cpu time    245.0641: real time    245.2058
       DOS:  cpu time      0.0044: real time      0.0044
    CHARGE:  cpu time     28.2957: real time     28.3212
    MIXING:  cpu time      0.0473: real time      0.0473
    --------------------------------------------
      LOOP:  cpu time    327.3468: real time    327.5463

 eigenvalue-minimisations  :  2352
 total energy-change (2. order) :-0.1299338E-02  (-0.7581723E-03)
 number of electron     421.9999999 magnetization 
 augmentation part      -20.8330944 magnetization 

 Broyden mixing:
  rms(total) = 0.99395E-02    rms(broyden)= 0.99395E-02
  rms(prec ) = 0.11314E-01
  weight for this iteration     100.00

 eigenvalues of (default mixing * dielectric matrix)
  average eigenvalue GAMMA=   1.2205
  2.6166  2.6166  0.9501  0.9501  0.6120  0.4893  0.3089

 Free energy of the ion-electron system (eV)
  ---------------------------------------------------
  alpha Z        PSCENC =        61.00736123
  Ewald energy   TEWEN  =     70937.83384465
  -Hartree energ DENC   =    -80197.09525051
  -exchange      EXHF   =         0.00000000
  -V(xc)+E(xc)   XCENC  =      -345.80820443
  PAW double counting   =     59773.22495902   -58816.94858431
  entropy T*S    EENTRO =        -0.19151535
  eigenvalues    EBANDS =     -2814.90687293
  atomic energy  EATOM  =     10368.97399388
  Solvation  Ediel_sol  =         0.00000000
  ---------------------------------------------------
  free energy    TOTEN  =     -1033.91026874 eV

  energy without entropy =    -1033.71875339  energy(sigma->0) =    -1033.81451107


--------------------------------------------------------------------------------------------------------




--------------------------------------- Iteration      1(   9)  ---------------------------------------


    POTLOK:  cpu time      2.2699: real time      2.2890
    SETDIJ:  cpu time      2.2243: real time      2.2258
    EDDIAG:  cpu time     49.4117: real time     49.4408
     EDDAV:  cpu time    257.1875: real time    257.3337
       DOS:  cpu time      0.0038: real time      0.0038
    CHARGE:  cpu time     28.2731: real time     28.2969
    MIXING:  cpu time      0.0488: real time      0.0488
    --------------------------------------------
      LOOP:  cpu time    339.4191: real time    339.6388

 eigenvalue-minimisations  :  2552
 total energy-change (2. order) :-0.2612209E-03  (-0.1766759E-03)
 number of electron     421.9999999 magnetization 
 augmentation part      -20.8323534 magnetization 

 Broyden mixing:
  rms(total) = 0.35075E-02    rms(broyden)= 0.35075E-02
  rms(prec ) = 0.39155E-02
  weight for this iteration     100.00

 eigenvalues of (default mixing * dielectric matrix)
  average eigenvalue GAMMA=   1.2195
  2.6077  2.6077  1.3314  0.9802  0.8530  0.5872  0.4802  0.3087

 Free energy of the ion-electron system (eV)
  ---------------------------------------------------
  alpha Z        PSCENC =        61.00736123
  Ewald energy   TEWEN  =     70937.83384465
  -Hartree energ DENC   =    -80197.36554062
  -exchange      EXHF   =         0.00000000
  -V(xc)+E(xc)   XCENC  =      -345.73862407
  PAW double counting   =     59797.03242225   -58840.74624622
  entropy T*S    EENTRO =        -0.19167223
  eigenvalues    EBANDS =     -2814.71606885
  atomic energy  EATOM  =     10368.97399388
  Solvation  Ediel_sol  =         0.00000000
  ---------------------------------------------------
  free energy    TOTEN  =     -1033.91052996 eV

  energy without entropy =    -1033.71885774  energy(sigma->0) =    -1033.81469385


--------------------------------------------------------------------------------------------------------




--------------------------------------- Iteration      1(  10)  ---------------------------------------


    POTLOK:  cpu time      2.2781: real time      2.2800
    SETDIJ:  cpu time      2.2273: real time      2.2283
    EDDIAG:  cpu time     49.4049: real time     49.4334
     EDDAV:  cpu time    251.6674: real time    251.8162
       DOS:  cpu time      0.0051: real time      0.0051
    CHARGE:  cpu time     28.2712: real time     28.2958
    MIXING:  cpu time      0.0500: real time      0.0506
    --------------------------------------------
      LOOP:  cpu time    333.9040: real time    334.1095

 eigenvalue-minimisations  :  2456
 total energy-change (2. order) :-0.7762032E-04  (-0.5047200E-04)
 number of electron     421.9999999 magnetization 
 augmentation part      -20.8324978 magnetization 

 Broyden mixing:
  rms(total) = 0.19545E-02    rms(broyden)= 0.19545E-02
  rms(prec ) = 0.21750E-02
  weight for this iteration     100.00

 eigenvalues of (default mixing * dielectric matrix)
  average eigenvalue GAMMA=   1.2384
  2.6980  2.6980  1.6457  1.0334  0.8296  0.8296  0.6288  0.4742  0.3087

 Free energy of the ion-electron system (eV)
  ---------------------------------------------------
  alpha Z        PSCENC =        61.00736123
  Ewald energy   TEWEN  =     70937.83384465
  -Hartree energ DENC   =    -80197.37915661
  -exchange      EXHF   =         0.00000000
  -V(xc)+E(xc)   XCENC  =      -345.76223027
  PAW double counting   =     59799.36707210   -58843.07672067
  entropy T*S    EENTRO =        -0.19182584
  eigenvalues    EBANDS =     -2814.68294607
  atomic energy  EATOM  =     10368.97399388
  Solvation  Ediel_sol  =         0.00000000
  ---------------------------------------------------
  free energy    TOTEN  =     -1033.91060758 eV

  energy without entropy =    -1033.71878174  energy(sigma->0) =    -1033.81469466


--------------------------------------------------------------------------------------------------------




--------------------------------------- Iteration      1(  11)  ---------------------------------------


    POTLOK:  cpu time      2.2631: real time      2.2819
    SETDIJ:  cpu time      2.2263: real time      2.2276
    EDDIAG:  cpu time     49.4042: real time     49.4355
     EDDAV:  cpu time    250.9322: real time    251.0824
       DOS:  cpu time      0.0022: real time      0.0022
    CHARGE:  cpu time     28.2685: real time     28.2942
    MIXING:  cpu time      0.0511: real time      0.0511
    --------------------------------------------
      LOOP:  cpu time    333.1476: real time    333.3749

 eigenvalue-minimisations  :  2448
 total energy-change (2. order) :-0.2636535E-04  (-0.1827727E-04)
 number of electron     421.9999999 magnetization 
 augmentation part      -20.8325116 magnetization 

 Broyden mixing:
  rms(total) = 0.10974E-02    rms(broyden)= 0.10974E-02
  rms(prec ) = 0.13009E-02
  weight for this iteration     100.00

 eigenvalues of (default mixing * dielectric matrix)
  average eigenvalue GAMMA=   1.2509
  2.8073  2.8073  1.9908  1.0862  0.8906  0.8906  0.3087  0.4767  0.6255  0.6255

 Free energy of the ion-electron system (eV)
  ---------------------------------------------------
  alpha Z        PSCENC =        61.00736123
  Ewald energy   TEWEN  =     70937.83384465
  -Hartree energ DENC   =    -80197.21919254
  -exchange      EXHF   =         0.00000000
  -V(xc)+E(xc)   XCENC  =      -345.76445355
  PAW double counting   =     59793.55877184   -58837.26607523
  entropy T*S    EENTRO =        -0.19162142
  eigenvalues    EBANDS =     -2814.84326280
  atomic energy  EATOM  =     10368.97399388
  Solvation  Ediel_sol  =         0.00000000
  ---------------------------------------------------
  free energy    TOTEN  =     -1033.91063395 eV

  energy without entropy =    -1033.71901253  energy(sigma->0) =    -1033.81482324


--------------------------------------------------------------------------------------------------------




--------------------------------------- Iteration      1(  12)  ---------------------------------------


    POTLOK:  cpu time      2.2786: real time      2.2796
    SETDIJ:  cpu time      2.2223: real time      2.2239
    EDDIAG:  cpu time     49.4371: real time     49.4665
     EDDAV:  cpu time    245.1675: real time    245.3157
       DOS:  cpu time      0.0117: real time      0.0119
    CHARGE:  cpu time     28.2722: real time     28.3316
    MIXING:  cpu time      0.0675: real time      0.0689
    --------------------------------------------
      LOOP:  cpu time    327.4577: real time    327.6988

 eigenvalue-minimisations  :  2336
 total energy-change (2. order) :-0.5109172E-04  (-0.1017883E-04)
 number of electron     421.9999999 magnetization 
 augmentation part      -20.8326144 magnetization 

 Broyden mixing:
  rms(total) = 0.56068E-03    rms(broyden)= 0.56068E-03
  rms(prec ) = 0.70744E-03
  weight for this iteration     100.00

[...]
   -.305E+02 -.151E+02 -.186E+03   0.269E+02 0.153E+02 0.188E+03   0.370E+01 0.180E+00 -.185E+01   -.157E-04 -.454E-05 0.483E-04
 -----------------------------------------------------------------------------------------------
   -.167E+02 0.334E+01 0.268E+01   0.107E-12 0.888E-13 -.171E-12   0.167E+02 -.333E+01 -.269E+01   -.760E-04 0.448E-04 0.213E-02


 POSITION                                       TOTAL-FORCE (eV/Angst)
 -----------------------------------------------------------------------------------
     10.77494      2.94123     14.34033         0.063410     -0.088037     -0.201096
     11.22583      5.18391     16.85702        -0.124793      0.172022      0.039518
      8.71462      9.20086     16.83366        -0.143549      0.056118      0.163173
     11.14182      4.01212     19.28674         0.142043     -0.031523      0.192076
      8.97227      3.89558     13.01409         0.017090     -0.030581     -0.015756
     10.57691      0.10227     18.42241        -0.214576      0.169684      0.200717
     11.31475      4.95310     12.24716         0.024847      0.098873      0.032506
      8.87825      4.16488     13.70076        -0.017877     -0.043152      0.065387
      7.03189      5.85696      9.88522        -0.154358      0.065269      0.064625
      9.77221      5.93878     18.43988         0.220575     -0.045479     -0.036926
     12.93715      3.67506     13.46179        -0.084666     -0.195862     -0.082411
     11.30805      4.44882     16.84909        -0.040428     -0.145983     -0.015677
      6.49830      3.04168     19.73575         0.123594     -0.015699     -0.231487
     11.09728      5.08933     14.44369        -0.179774      0.048895      0.053649
     11.77359      3.68923     19.05823        -0.016842     -0.008493      0.172321
      9.44597      7.29929      9.97465        -0.056130     -0.018744      0.036889
     11.02566      8.20431     19.31434        -0.059510     -0.032290      0.160527
     10.07551      7.14559     12.70882         0.072581     -0.088417      0.080984
      7.12096      2.60793     19.53419        -0.425208      0.185945      0.237345
     10.52946      5.37470     14.87675         0.454743     -0.194152     -0.303713
      9.11014     13.76345     14.69372        -0.135739      0.008637      0.075522
     11.86458      6.67677     10.71113         0.002947      0.116778      0.031332
     11.42990      6.86970     17.35982        -0.042410      0.053326      0.026582
      9.40418      7.28433     10.71822        -0.022797     -0.031743     -0.195357
     11.47228      2.49786     16.80584        -0.147494     -0.051518     -0.011997
     12.58412      3.13732     13.07115         0.145612      0.171405     -0.023939
     13.60233      4.40607     14.67026         0.312116      0.368104      0.195562
     11.19505      8.61109     11.43240         0.171131     -0.032969     -0.015719
      9.69767      3.58422      9.43403        -0.045350      0.087280      0.055749
     13.38241      5.25938     18.48331         0.059049     -0.025870      0.036713
      8.62475      4.83426     20.25440         0.076822     -0.247980      0.177636
      8.69944      4.89802     11.25884         0.064550     -0.007569     -0.063578
     14.48584     12.82902     13.91706        -0.021683      0.038493      0.116618
     12.92397      6.54105     15.81630         0.092002     -0.116962     -0.125511
      7.54979      5.04608     18.11289         0.048812     -0.177264     -0.067797
      9.35119      3.50651     18.30189        -0.028516     -0.322113     -0.006517
     10.77356      9.17346     11.16324         0.064892      0.050341     -0.039276
     13.25248      8.79413      9.95531        -0.096034     -0.143266      0.058451
      1.57921      1.38855     18.71613        -0.261526      0.070573      0.054307
     13.15929     11.66054     11.49458        -0.198341     -0.106628      0.121716
      6.21344     13.64476     11.33085         0.163331      0.181412     -0.181049
      5.24753     13.83306     18.82342         0.119300     -0.230803      0.387328
      7.21178      1.17835     11.68951        -0.230675     -0.111236     -0.020042
      4.03152      4.63594     13.14532         0.325430      0.109654     -0.122141
      8.85851      1.75053     18.79268         0.436975     -0.217759      0.105838
      1.56857      6.61829     15.70757         0.116919     -0.287864      0.149969
      2.49202      3.31814     15.96478         0.121454     -0.144532     -0.082654
      2.73355      5.57924     19.02098         0.037344      0.082458     -0.250708
      2.03624     13.05040     16.39570        -0.201904     -0.359186      0.262941
      6.86528      5.20031     15.09522        -0.151909      0.098532     -0.073352
     13.59509     11.13652     17.33001        -0.182191     -0.075923      0.156383
      2.55295      0.95699     13.31410        -0.281754      0.226530      0.091706
      6.48574     10.17661     18.52350        -0.081829     -0.170047     -0.365554
      7.74413     11.21786     14.22603         0.086438      0.017133     -0.159204
      1.05477     10.82836     16.25245         0.284462      0.286958     -0.044616
     13.78880      4.22035     10.34524         0.335515     -0.021494      0.049365
      4.25735     10.91976     12.92724         0.105733      0.113391      0.027339
     12.75238      0.56180     13.54798         0.299375      0.041570     -0.150911
      7.77596      9.23544     12.86254         0.078295     -0.110027     -0.218598
      6.16113      1.47974     13.72353        -0.011752      0.130755      0.071556
      6.60991      7.73973     18.82498         0.035092      0.177315      0.124602
      6.46137      2.78135     15.63353        -0.008409     -0.053115     -0.365832
     10.28445      2.28295      9.83777         0.106444      0.186841     -0.140179
      4.50720      8.86087     14.01416         0.086536     -0.012022     -0.096406
      3.41734     14.52927     15.18617         0.199230     -0.161907      0.234515
      1.74221      9.06089     11.00187        -0.006782      0.064389      0.039080
     12.48027      2.40343     10.19710        -0.570536      0.307486      0.287301
      4.83170     10.92110     10.61228        -0.168707      0.254645     -0.366800
      3.86360      1.05670     18.45940        -0.034702     -0.518831     -0.826874
      6.09491      5.67805     12.87490        -0.061839     -0.249388      0.028137
      9.51444     11.96029     12.73523        -0.217546     -0.099713     -0.241326
     10.66791      1.55844     13.81263        -0.185414     -0.094889      0.284725
     14.01085      6.57577     13.01321         0.390266      0.023907      0.006411
      4.27794      2.36328     12.64554         0.112330     -0.173386      0.246598
      0.91327      1.30816     10.52766         0.228390      0.320387     -0.043765
     14.12001      1.50509     15.22817        -0.224253      0.089623     -0.073107
      7.72103     11.61493     16.71419        -0.057559     -0.158110      0.175905
      0.45006      0.14557     16.96525         0.070115      0.126719      0.102681
     11.68354     11.44534     13.39382         0.280837     -0.225393     -0.050712
     13.51885      8.78940     13.29831         0.013043     -0.035011     -0.007708
      6.41906      2.87129     10.25740        -0.374902      0.177138      0.321695
      3.85241     12.44602     17.68273        -0.129880      0.478286     -0.120994
      0.58060     12.58382     12.34063         0.082828      0.083461     -0.263661
     10.24789     13.70886     11.43840         0.749645     -0.048741     -0.006679
      5.61629     14.06918     14.87112         0.277668      0.387799      0.054806
      3.38742      5.27974     15.28769        -0.082121      0.112215      0.201419
     13.12850     13.35683     16.89821         0.058402      0.042530      0.094811
      9.57071      8.00371     13.81775        -0.116440     -0.263054     -0.212160
     11.82309      8.09965     18.07504        -0.109407      0.108952     -0.077273
     14.06063      4.39309     17.47662        -0.187841     -0.398191      0.529818
      4.13436      3.20124     10.45094         0.036886     -0.292627     -0.023691
     11.51624      9.34859     14.42534        -0.122474      0.052796      0.157652
      1.15271      2.66621     14.07961         0.078984      0.021114     -0.131944
      1.54782      6.96397     12.05547         0.006461     -0.135405      0.135293
     13.95016      9.51017     11.04796         0.017931      0.041717     -0.271387
      6.99691     11.70145     10.33454         0.342864     -0.296059      0.995689
      9.98572     11.64168     17.28974         0.081768      0.098038     -0.091233
     10.86480     13.79507     17.22391        -0.045284     -0.158046     -0.341640
      5.78612      7.95947     12.33095        -0.090578     -0.029701      0.297063
      7.92554      1.23946     16.71351         0.049244      0.416228      0.163433
     12.19242     13.35296     10.25646        -0.412400      0.252021     -0.057084
     14.05114      5.68005     15.33859        -0.379567     -0.249074     -0.614825
      2.33404      7.97290     14.03783        -0.000300      0.075152      0.001462
      8.84065      4.87242     18.80456        -0.703153      0.517814     -0.080881
     12.92158     13.05831     14.55854        -0.090755     -0.021692     -0.133686
     12.45343      5.63216     11.57915        -0.301874      0.051581     -0.360226
      2.09085     14.16066     11.50678         0.072120     -0.381736      0.037022
      4.17245      8.70585     10.47437        -0.107132     -0.066533     -0.297524
      8.78962      6.51149     15.49720        -0.284035      0.402469      0.295477
      9.67615      0.30884     15.49776         0.060924     -0.285331     -0.199722
      7.24321      4.88391     10.98997         0.344881      0.192693     -0.254725
      5.16856      6.23122     16.41815         0.015219      0.085274     -0.229172
      4.34890     10.18003     17.62918         0.235699      0.058826      0.011976
      2.14233      9.54126     17.94436        -0.166959      0.024484     -0.071676
      9.52168      1.26494     11.76411         0.143354      0.143270     -0.407928
      2.62565      4.92960     11.37024        -0.258056     -0.047550     -0.034144
      6.69857     13.80502     16.94565        -0.106861     -0.313698      0.057248
      5.42958      8.61531     16.13954        -0.171689     -0.009070     -0.085263
     11.59316     10.01078     16.72867         0.151153     -0.053541     -0.151611
      0.90851      3.36151     11.70648        -0.174362     -0.034719      0.048707
      1.53570      7.28474     17.93309         0.062064      0.091404      0.210055
     14.07895      8.17061     18.64625         0.362443      0.793913      0.268275
      8.78843     10.43466     11.10007        -0.375622      0.302463     -0.017529
      5.95043     12.43155     13.35037         0.286609     -0.041056     -0.180027
      1.59770      3.68398     18.09551         0.062929      0.081881     -0.003419
     12.95054      2.44447     16.98785         0.458034      0.015850      0.125779
      7.67513      8.11861     16.76565         0.396662     -0.416198      0.075755
      1.98682     10.81614     12.57068        -0.094839      0.289373      0.167255
      4.04989     13.18220     10.55319        -0.259781     -0.147345     -0.061850
      5.06709      5.87412     18.70283        -0.017871     -0.159431      0.286462
     13.37757      0.57093     11.19427        -0.242766     -0.063979      0.254056
      0.23828     10.31372     19.18475        -0.201213     -0.681482     -0.126153
      0.86454      9.73702     14.23620        -0.090414     -0.147900     -0.032896
      4.27347      1.89361     16.35996         0.269492      0.454904      0.185807
 -----------------------------------------------------------------------------------
    total drift:                                0.003369      0.004602     -0.004964


--------------------------------------------------------------------------------------------------------



  FREE ENERGIE OF THE ION-ELECTRON SYSTEM (eV)
  ---------------------------------------------------
  free  energy   TOTEN  =     -1033.91103871 eV

  energy  without entropy=    -1033.71932930  energy(sigma->0) =    -1033.81518401



--------------------------------------------------------------------------------------------------------


    POTLOK:  cpu time      4.4834: real time      4.4864


--------------------------------------------------------------------------------------------------------


     LOOP+:  cpu time   7694.7979: real time   7700.5077
    4ORBIT:  cpu time      0.0000: real time      0.0000



 total charge

# of ion       s       p       d       tot
------------------------------------------
    1        0.569   0.016   0.000   0.585
    2        0.620   0.035   0.000   0.655
    3        0.564   0.016   0.000   0.580
    4        0.623   0.031   0.000   0.655
    5        0.612   0.034   0.000   0.646
    6        0.552   0.015   0.000   0.567
    7        0.574   0.016   0.000   0.589
    8        0.616   0.033   0.000   0.650
    9        0.571   0.015   0.000   0.586
   10        0.577   0.018   0.000   0.595
   11        0.610   0.035   0.000   0.645
   12        0.622   0.035   0.000   0.657
   13        0.564   0.027   0.000   0.591
   14        0.594   0.029   0.000   0.624
   15        0.605   0.034   0.000   0.639
   16        0.614   0.032   0.000   0.646
   17        0.574   0.016   0.000   0.589
   18        0.570   0.016   0.000   0.585
   19        0.595   0.029   0.000   0.624
   20        0.600   0.033   0.000   0.633
   21        0.569   0.016   0.000   0.586
   22        0.578   0.016   0.000   0.593
   23        0.577   0.017   0.000   0.594
   24        0.612   0.033   0.000   0.644
   25        0.566   0.016   0.000   0.582
   26        0.612   0.034   0.000   0.645
   27        0.563   0.018   0.000   0.581
   28        0.610   0.032   0.000   0.642
   29        0.563   0.016   0.000   0.579
   30        0.568   0.016   0.000   0.584
   31        0.582   0.016   0.000   0.598
   32        0.576   0.016   0.000   0.592
   33        0.545   0.016   0.000   0.561
   34        0.562   0.016   0.000   0.578
   35        0.577   0.018   0.000   0.595
   36        0.577   0.016   0.000   0.593
   37        0.606   0.034   0.000   0.640
   38        0.569   0.016   0.000   0.584
   39        0.799   0.838   0.000   1.637
   40        0.755   0.940   0.000   1.695
   41        0.761   0.926   0.000   1.686
   42        0.799   0.881   0.000   1.680
   43        0.752   0.945   0.000   1.697
   44        0.760   0.968   0.000   1.728
   45        0.926   0.636   0.000   1.562
   46        0.763   0.965   0.000   1.728
   47        0.770   0.946   0.000   1.716
   48        0.791   0.839   0.000   1.630
   49        0.754   0.931   0.000   1.685
   50        0.756   0.886   0.000   1.642
   51        0.753   0.936   0.000   1.689
   52        0.760   0.957   0.000   1.717
   53        0.838   0.755   0.000   1.593
   54        0.779   0.861   0.000   1.640
   55        0.763   0.918   0.000   1.681
   56        0.788   0.914   0.000   1.702
   57        0.762   0.937   0.000   1.699
   58        0.755   0.943   0.000   1.698
   59        0.758   0.890   0.000   1.649
   60        0.757   0.961   0.000   1.719
   61        0.815   0.804   0.000   1.619
   62        0.757   0.885   0.000   1.642
   63        0.764   0.948   0.000   1.713
   64        0.762   0.963   0.000   1.725
   65        0.771   0.929   0.000   1.700
   66        0.766   0.889   0.000   1.655
   67        0.786   0.928   0.000   1.714
   68        0.761   0.933   0.000   1.693
   69        0.792   0.873   0.000   1.665
   70        0.751   0.948   0.000   1.699
   71        0.760   0.925   0.000   1.685
   72        0.745   0.982   0.000   1.728
   73        0.768   0.946   0.000   1.714
   74        0.762   0.938   0.000   1.700
   75        0.808   0.849   0.000   1.657
   76        0.756   0.952   0.000   1.708
   77        0.766   0.836   0.000   1.603
   78        0.757   0.885   0.000   1.643
   79        0.756   0.940   0.000   1.695
   80        0.756   0.939   0.000   1.695
   81        0.785   0.895   0.000   1.679
   82        0.801   0.858   0.000   1.658
   83        0.776   0.898   0.000   1.674
   84        0.796   0.880   0.000   1.676
   85        0.761   0.986   0.000   1.747
   86        0.765   0.986   0.000   1.751
   87        0.759   0.950   0.000   1.710
   88        0.742   0.943   0.000   1.685
   89        0.740   1.009   0.000   1.749
   90        0.766   0.953   0.000   1.720
   91        0.808   0.812   0.000   1.619
   92        0.746   0.928   0.000   1.674
   93        0.766   0.911   0.000   1.677
   94        0.758   0.921   0.000   1.679
   95        0.751   0.931   0.000   1.682
   96        0.796   0.863   0.000   1.660
   97        0.769   0.893   0.000   1.662
   98        0.741   0.956   0.000   1.697
   99        0.766   0.895   0.000   1.661
  100        0.751   0.960   0.000   1.711
  101        0.792   0.883   0.000   1.675
  102        0.726   0.994   0.000   1.720
  103        0.765   0.961   0.000   1.725
  104        0.748   1.014   0.000   1.762
  105        0.778   0.883   0.000   1.661
  106        0.739   1.006   0.000   1.745
  107        0.758   0.935   0.000   1.693
  108        0.835   0.752   0.000   1.588
  109        0.804   0.867   0.000   1.671
  110        0.754   0.978   0.000   1.732
  111        0.739   1.005   0.000   1.745
  112        0.758   0.920   0.000   1.678
  113        0.756   0.942   0.000   1.698
  114        0.757   0.914   0.000   1.671
  115        0.744   0.976   0.000   1.720
  116        0.763   0.901   0.000   1.664
  117        0.755   0.904   0.000   1.659
  118        0.769   0.875   0.000   1.643
  119        0.742   0.928   0.000   1.670
  120        0.758   0.898   0.000   1.656
  121        0.756   0.935   0.000   1.691
  122        0.786   0.881   0.000   1.667
  123        0.808   0.860   0.000   1.668
  124        0.767   0.952   0.000   1.719
  125        0.749   0.933   0.000   1.682
  126        0.773   0.929   0.000   1.702
  127        0.756   0.935   0.000   1.691
  128        0.764   0.984   0.000   1.748
  129        0.801   0.829   0.000   1.630
  130        0.801   0.834   0.000   1.635
  131        0.750   0.936   0.000   1.687
  132        0.813   0.828   0.000   1.642
  133        0.758   0.989   0.000   1.748
  134        0.764   0.907   0.000   1.671
--------------------------------------------------
tot         96.127  88.641   0.000 184.768


 total amount of memory used by VASP MPI-rank0   412658. kBytes
=======================================================================

   base                                    :      30000. kBytes
   nonl-proj                               :      97655. kBytes
   fftplans                                :     114289. kBytes
   grid                                    :      88184. kBytes
   one-center                              :         27. kBytes
   wavefun                                 :      82503. kBytes

  
  
 General timing and accounting informations for this job:
 ========================================================
  
                  Total CPU time used (sec):     7859.384
                            User time (sec):     7012.780
                          System time (sec):      846.604
                         Elapsed time (sec):     7865.127
  
                   Maximum memory used (kb):      676428.
                   Average memory used (kb):          N/A
  
                          Minor page faults:     14270182
                          Major page faults:         1271
                 Voluntary context switches:         2384
