 vasp.6.5.0 16Dec24 (build Jan 20 2025 08:32:48) complex                         
 executed on        HPECrayEX_GCC date 2025.07.21  22:55:23
 running  128 mpi-ranks, with    1 threads/rank, on    1 nodes
 distrk:  each k-point on  128 cores,    1 groups
 distr:  one band on NCORE=  16 cores,    8 groups


--------------------------------------------------------------------------------------------------------


 INCAR:
   SYSTEM = a-Si SPC
   NCORE = 16
   ISTART = 1
   ICHARG = 1
   ISPIN = 1
   ISYM = 1
   EDIFF = 1E-6
   NELM = 150
   EDIFFG = -0.01
   NSW = 0
   ISIF = 2
   IBRION = -1
   PREC = Accurate
   ENCUT = 1200
   KSPACING = 0.23
   KGAMMA = .TRUE.
   METAGGA = SCAN
   LASPH = .TRUE.
   LDIAG = .FALSE.
   LMIXTAU = .TRUE.
   ADDGRID = .TRUE.
   ALGO = Normal
   ISMEAR = 0
   SIGMA = 0.1
   LORBIT = 11
   NEDOS = 2000
   LWAVE = .FALSE.
   LCHARG = .FALSE.

 POTCAR:    PAW_PBE H 15Jun2001                   
 POTCAR:    PAW_PBE Si 05Jan2001                  
 POTCAR:    PAW_PBE H 15Jun2001                   
   SHA256 =  030f79b5d3ab3cf0e668861823c8fb652ff669f3e15e46930bd03bfd63a607b6 H/POTCAR              
   COPYR  = (c) Copyright 15Jun2001 Georg Kresse                                                    
   COPYR  = This file is part of the software VASP. Any use, copying, and all other rights are regul
   COPYR  = If you do not have a valid VASP license, you may not use, copy or distribute this file. 
   VRHFIN =H: ultrasoft test                                                                        
   LEXCH  = PE                                                                                      
   EATOM  =    12.4884 eV,    0.9179 Ry                                                             
                                                                                                    
   TITEL  = PAW_PBE H 15Jun2001                                                                     
   LULTRA =        F    use ultrasoft PP ?                                                          
   IUNSCR =        0    unscreen: 0-lin 1-nonlin 2-no                                               
   RPACOR =    0.000    partial core radius                                                         
   POMASS =    1.000; ZVAL   =    1.000    mass and valenz                                          
   RCORE  =    1.100    outmost cutoff radius                                                       
   RWIGS  =    0.700; RWIGS  =    0.370    wigner-seitz radius (au A)                               
   ENMAX  =  250.000; ENMIN  =  200.000 eV                                                          
   RCLOC  =    0.701    cutoff for local pot                                                        
   LCOR   =        T    correct aug charges                                                         
   LPAW   =        T    paw PP                                                                      
   EAUG   =  400.000                                                                                
   RMAX   =    1.123    core radius for proj-oper                                                   
   RAUG   =    1.200    factor for augmentation sphere                                              
   RDEP   =    1.112    radius for radial grids                                                     
   RDEPT  =    0.926    core radius for aug-charge                                                  
                                                                                                    
   Atomic configuration                                                                             
    2 entries                                                                                       
     n  l   j            E        occ.                                                              
     1  0  0.50        -6.4927   1.0000                                                             
     2  1  0.50        -3.4015   0.0000                                                             
   Description                                                                                      
     l       E           TYP  RCUT    TYP  RCUT                                                     
     0     -6.4927494     23  1.100                                                                 
     0      6.8029130     23  1.100                                                                 
     1     -4.0817478     23  1.100                                                                 
  local pseudopotential read in
  atomic valenz-charges read in
  non local Contribution for L=           0  read in
    real space projection operators read in
  non local Contribution for L=           0  read in
    real space projection operators read in
  non local Contribution for L=           1  read in
    real space projection operators read in
    PAW grid and wavefunctions read in

   number of l-projection  operators is LMAX  =           3
   number of lm-projection operators is LMMAX =           5

 POTCAR:    PAW_PBE Si 05Jan2001                  
   SHA256 =  79d9987ad8750f624c4d6acb2a16d13abf6a777132adc04dc6c8399be72b42bb Si/POTCAR             
   COPYR  = (c) Copyright 05Jan2001 Georg Kresse                                                    
   COPYR  = This file is part of the software VASP. Any use, copying, and all other rights are regul
   COPYR  = If you do not have a valid VASP license, you may not use, copy or distribute this file. 
   VRHFIN =Si: s2p2                                                                                 
   LEXCH  = PE                                                                                      
   EATOM  =   103.0669 eV,    7.5752 Ry                                                             
                                                                                                    
   TITEL  = PAW_PBE Si 05Jan2001                                                                    
   LULTRA =        F    use ultrasoft PP ?                                                          
   IUNSCR =        1    unscreen: 0-lin 1-nonlin 2-no                                               
   RPACOR =    1.500    partial core radius                                                         
   POMASS =   28.085; ZVAL   =    4.000    mass and valenz                                          
   RCORE  =    1.900    outmost cutoff radius                                                       
   RWIGS  =    2.480; RWIGS  =    1.312    wigner-seitz radius (au A)                               
   ENMAX  =  245.345; ENMIN  =  184.009 eV                                                          
   ICORE  =        2    local potential                                                             
   LCOR   =        T    correct aug charges                                                         
   LPAW   =        T    paw PP                                                                      
   EAUG   =  322.069                                                                                
   DEXC   =    0.000                                                                                
   RMAX   =    1.950    core radius for proj-oper                                                   
   RAUG   =    1.300    factor for augmentation sphere                                              
   RDEP   =    1.993    radius for radial grids                                                     
   RDEPT  =    1.837    core radius for aug-charge                                                  
                                                                                                    
   Atomic configuration                                                                             
    6 entries                                                                                       
     n  l   j            E        occ.                                                              
     1  0  0.50     -1785.8828   2.0000                                                             
     2  0  0.50      -139.4969   2.0000                                                             
     2  1  1.50       -95.5546   6.0000                                                             
     3  0  0.50       -10.8127   2.0000                                                             
     3  1  0.50        -4.0811   2.0000                                                             
     3  2  1.50        -4.0817   0.0000                                                             
   Description                                                                                      
     l       E           TYP  RCUT    TYP  RCUT                                                     
     0    -10.8127223     23  1.900                                                                 
     0     -7.6451159     23  1.900                                                                 
     1     -4.0811372     23  1.900                                                                 
     1      2.4879257     23  1.900                                                                 
     2     -4.0817478      7  1.900                                                                 
  local pseudopotential read in
  partial core-charges read in
  partial kinetic energy density read in
  atomic valenz-charges read in
  non local Contribution for L=           0  read in
    real space projection operators read in
  non local Contribution for L=           0  read in
    real space projection operators read in
  non local Contribution for L=           1  read in
    real space projection operators read in
  non local Contribution for L=           1  read in
    real space projection operators read in
    PAW grid and wavefunctions read in

   number of l-projection  operators is LMAX  =           4
   number of lm-projection operators is LMMAX =           8

 -----------------------------------------------------------------------------
|                                                                             |
|               ----> ADVICE to this user running VASP <----                  |
|                                                                             |
|     You have a (more or less) 'large supercell' and for larger cells it     |
|     might be more efficient to use real-space projection operators.         |
|     Therefore, try LREAL= Auto in the INCAR file.                           |
|     Mind: For very accurate calculation, you might also keep the            |
|     reciprocal projection scheme (i.e. LREAL=.FALSE.).                      |
|                                                                             |
 -----------------------------------------------------------------------------

 -----------------------------------------------------------------------------
|                                                                             |
|               ----> ADVICE to this user running VASP <----                  |
|                                                                             |
|     You enforced a specific xc type in the INCAR file but a different       |
|     type was found in the POTCAR file.                                      |
|     I HOPE YOU KNOW WHAT YOU ARE DOING!                                     |
|                                                                             |
 -----------------------------------------------------------------------------

  PAW_PBE H 15Jun2001                   :
 energy of atom  1       EATOM=  -12.4884
 kinetic energy error for atom=    0.0000 (will be added to EATOM!!)
  PAW_PBE Si 05Jan2001                  :
 energy of atom  2       EATOM= -103.0669
 kinetic energy error for atom=    0.0001 (will be added to EATOM!!)


 POSCAR:  H Si
  positions in cartesian coordinates
  No initial velocities read in


 exchange-correlation table for SCAN
   RHO(1)=    0.500       N(1)  =     2000
   RHO(2)=  100.500       N(2)  =     4000



--------------------------------------------------------------------------------------------------------


 ion  position               nearest neighbor table
   1  0.103  0.103  0.151-  38 1.57
   2  0.226  0.138  0.895-  88 1.49
   3  0.059  0.131  0.899-  90 1.48
   4  0.956  0.157  0.335-  41 1.50
   5  0.848  0.019  0.338-  33 1.47
   6  0.499  0.393  0.590-  29 1.50
   7  0.845  0.954  0.599-  25 1.54
   8  0.142  0.856  0.233-  66 1.49
   9  0.955  0.083  0.096-  16 1.62
  10  0.627  0.523  0.480-  29 2.29  85 2.34  95 2.35  74 2.66
  11  0.051  0.457  0.657-  23 2.34  39 2.34  55 2.41  20 2.50
  12  0.371  0.858  0.953-  48 2.36  28 2.41  14 2.56  50 2.58
  13  0.381  0.299  0.002-  86 2.33  34 2.35  46 2.36  88 2.44
  14  0.353  0.822  0.178-  78 2.25  66 2.37  51 2.42  12 2.56
  15  0.749  0.754  0.256-  77 2.34  19 2.38  74 2.47  70 2.47
  16  0.885  0.170  0.091-   9 1.62  62 2.25  36 2.30  41 2.39
  17  0.452  0.680  0.537-  85 2.32  57 2.32  60 2.37  44 2.39
  18  0.605  0.664  0.949-  94 2.19  64 2.30  27 2.37  48 2.62
  19  0.840  0.655  0.134-  52 2.24  27 2.36  15 2.38  69 2.48
  20  0.136  0.354  0.798-  53 2.34  90 2.43  11 2.50  24 2.67
  21  0.573  0.899  0.109-  78 2.20  77 2.35  48 2.35  82 2.39
  22  0.181  0.646  0.460-  83 2.24  84 2.39  68 2.46  55 2.47
  23  0.010  0.480  0.454- 102 2.26  11 2.34  83 2.36  59 2.53
  24  0.308  0.335  0.717-  32 2.38  34 2.40  43 2.48  20 2.67
  25  0.763  0.020  0.607-   7 1.54  45 2.29  87 2.34  91 2.38
  26  0.881  0.421  0.017-  67 2.30  98 2.31  62 2.31 103 2.39
  27  0.766  0.640  0.945- 103 2.31  19 2.36  18 2.37  37 2.38
  28  0.320  0.744  0.810-  49 2.36  57 2.39  12 2.41  54 2.58
  29  0.500  0.431  0.464-   6 1.50  10 2.29  60 2.34  58 2.35
  30  0.615  0.425  0.048-  64 2.28  98 2.38  46 2.40  35 2.43
  31  0.446  0.191  0.428-  92 2.35  43 2.35  58 2.37  93 2.41
  32  0.308  0.498  0.695-  60 2.29  55 2.35  24 2.38  49 2.43
  33  0.761  0.007  0.272-   5 1.47  77 2.26  36 2.37  91 2.41
  34  0.453  0.302  0.811-  13 2.35  24 2.40  96 2.42  35 2.49
  35  0.570  0.425  0.836-  94 2.39  30 2.43  34 2.49  65 2.54
  36  0.740  0.148  0.169-  40 2.26  16 2.30 101 2.33  33 2.37
  37  0.803  0.761  0.808- 100 2.31  27 2.38  73 2.46  61 2.63
  38  0.155  0.191  0.104-   1 1.57  72 2.34  88 2.41  90 2.51
  39  0.967  0.557  0.782-  61 2.21  11 2.34 103 2.39  56 2.57
  40  0.601  0.170  0.083-  36 2.26  82 2.29  46 2.46  42 2.52
  41  0.918  0.243  0.279-   4 1.50 101 2.28  16 2.39  59 2.45
  42  0.656  0.146  0.869-  96 2.39  87 2.41  89 2.49  40 2.52
  43  0.337  0.200  0.585-  31 2.35  24 2.48  79 2.56  99 2.57
  44  0.491  0.694  0.328-  74 2.27  78 2.31  17 2.39  51 2.44
  45  0.820  0.167  0.607-  25 2.29  75 2.40  89 2.48
  46  0.512  0.310  0.126-  13 2.36  30 2.40  58 2.41  40 2.46
  47  0.589  0.882  0.743-  48 2.36 100 2.48  80 2.49  87 2.52
  48  0.529  0.827  0.928-  21 2.35  12 2.36  47 2.36  18 2.62
  49  0.387  0.597  0.837-  28 2.36  76 2.42  32 2.43  94 2.43
  50  0.393  0.034  0.951-  88 2.33  82 2.48  99 2.51  12 2.58
  51  0.350  0.658  0.219-  76 2.40  68 2.41  14 2.42  44 2.44
  52  0.792  0.541  0.256-  19 2.24  98 2.26 102 2.37  74 2.71
  53  0.149  0.450  0.968-  20 2.34  86 2.39  56 2.44  67 2.45
  54  0.151  0.689  0.815-  56 2.30  55 2.38  28 2.58  61 3.00
  55  0.168  0.575  0.662-  32 2.35  54 2.38  11 2.41  22 2.47
  56  0.075  0.601  0.955-  54 2.30  53 2.44  69 2.49  39 2.57  67 2.87
  57  0.357  0.796  0.612-  84 2.27  17 2.32  28 2.39  80 2.44
  58  0.438  0.331  0.318-  29 2.35  31 2.37  46 2.41  81 2.55
  59  0.037  0.362  0.289-  72 2.35  67 2.39  41 2.45  23 2.53
  60  0.383  0.533  0.519-  68 2.28  32 2.29  29 2.34  17 2.37
  61  0.958  0.700  0.717-  39 2.21  71 2.46  37 2.63  54 3.00
  62  0.913  0.275  0.946-  16 2.25  26 2.31  90 2.34  89 2.43
  63  0.521  0.957  0.423-  91 2.26  92 2.31  78 2.45  80 2.47
  64  0.558  0.565  0.099-  30 2.28  18 2.30  76 2.33  74 2.56
  65  0.730  0.403  0.749- 103 2.31  95 2.34  35 2.54  89 2.57
  66  0.230  0.883  0.292-   8 1.49  97 2.31  14 2.37  84 2.46
  67  0.019  0.452  0.109-  26 2.30  69 2.38  59 2.39  53 2.45  56 2.87
  68  0.289  0.543  0.355-  60 2.28  81 2.34  51 2.41  22 2.46
  69  0.004  0.611  0.160-  67 2.38  83 2.45  19 2.48  56 2.49
  70  0.802  0.789  0.464-  71 2.39  15 2.47 100 2.58
  71  0.918  0.676  0.504- 102 2.38  70 2.39  83 2.43  61 2.46
  72  0.176  0.279  0.278-  38 2.34  59 2.35  79 2.46  81 2.49
  73  0.791  0.899  0.938-  87 2.37  77 2.44  37 2.46
  74  0.632  0.634  0.288-  44 2.27  15 2.47  64 2.56  10 2.66  52 2.71
  75  0.718  0.262  0.490-  93 2.34  45 2.40  95 2.42 101 2.43
  76  0.402  0.568  0.051-  64 2.33  51 2.40  49 2.42  86 2.44
  77  0.732  0.890  0.144-  33 2.26  15 2.34  21 2.35  73 2.44
  78  0.492  0.844  0.262-  21 2.20  14 2.25  44 2.31  63 2.45
  79  0.218  0.158  0.423-  97 2.28  72 2.46  43 2.56
  80  0.453  0.934  0.626-  57 2.44  63 2.47  47 2.49  99 2.54
  81  0.288  0.405  0.245-  86 2.24  68 2.34  72 2.49  58 2.55
  82  0.505  0.048  0.120-  40 2.29  92 2.36  21 2.39  50 2.48
  83  0.043  0.627  0.374-  22 2.24  23 2.36  71 2.43  69 2.45 102 3.11
  84  0.234  0.800  0.486-  57 2.27  22 2.39  66 2.46
  85  0.597  0.646  0.611-  17 2.32  94 2.33  10 2.34 100 2.38
  86  0.301  0.433  0.047-  81 2.24  13 2.33  53 2.39  76 2.44
  87  0.710  0.997  0.805-  25 2.34  73 2.37  42 2.41  47 2.52
  88  0.294  0.156  0.994-   2 1.49  50 2.33  38 2.41  13 2.44
  89  0.789  0.242  0.804-  62 2.43  45 2.48  42 2.49  65 2.57
  90  0.067  0.232  0.916-   3 1.48  62 2.34  20 2.43  38 2.51
  91  0.658  0.026  0.442-  63 2.26  25 2.38  33 2.41  93 2.44
  92  0.432  0.057  0.310-  97 2.27  63 2.31  31 2.35  82 2.36
  93  0.592  0.167  0.526-  75 2.34  31 2.41  96 2.42  91 2.44
  94  0.551  0.585  0.796-  18 2.19  85 2.33  35 2.39  49 2.43
  95  0.745  0.422  0.540-  65 2.34  10 2.35  75 2.42 102 2.51
  96  0.533  0.170  0.730-  99 2.30  42 2.39  93 2.42  34 2.42
  97  0.279  0.031  0.330-  92 2.27  79 2.28  66 2.31
  98  0.758  0.413  0.150-  52 2.26  26 2.31  30 2.38 101 2.41
  99  0.403  0.080  0.732-  96 2.30  50 2.51  80 2.54  43 2.57
 100  0.698  0.772  0.651-  37 2.31  85 2.38  47 2.48  70 2.58
 101  0.766  0.281  0.281-  41 2.28  36 2.33  98 2.41  75 2.43
 102  0.862  0.528  0.449-  23 2.26  52 2.37  71 2.38  95 2.51  83 3.11
 103  0.819  0.507  0.853-  27 2.31  65 2.31  39 2.39  26 2.39

  LATTYP: Found a simple tetragonal cell.
 ALAT       =    14.5388263618
 C/A-ratio  =     0.7608851610
  
  Lattice vectors:
  
 A1 = (  14.5388263618,   0.0000000000,   0.0000000000)
 A2 = (   0.0000000000,  14.5388263618,   0.0000000000)
 A3 = (   0.0000000000,   0.0000000000,  11.0623772367)


Analysis of symmetry for initial positions (statically):
=====================================================================
 Subroutine PRICEL returns:
 Original cell was already a primitive cell.
 

 Routine SETGRP: Setting up the symmetry group for a 
 simple tetragonal supercell.


 Subroutine GETGRP returns: Found  1 space group operations
 (whereof  1 operations were pure point group operations)
 out of a pool of 16 trial point group operations.


The static configuration has the point symmetry C_1 .


Analysis of symmetry for dynamics (positions and initial velocities):
=====================================================================
 Subroutine PRICEL returns:
 Original cell was already a primitive cell.
 

 Routine SETGRP: Setting up the symmetry group for a 
 simple tetragonal supercell.


 Subroutine GETGRP returns: Found  1 space group operations
 (whereof  1 operations were pure point group operations)
 out of a pool of 16 trial point group operations.


The dynamic configuration has the point symmetry C_1 .


 Subroutine INISYM returns: Found  1 space group operations
 (whereof  1 operations are pure point group operations),
 and found     1 'primitive' translations


----------------------------------------------------------------------------------------

                                     Primitive cell                                     

  volume of cell :    2338.3373

  direct lattice vectors                    reciprocal lattice vectors
    14.538826362  0.000000000  0.000000000     0.068781343  0.000000000  0.000000000
     0.000000000 14.538826362  0.000000000     0.000000000  0.068781343  0.000000000
     0.000000000  0.000000000 11.062377237     0.000000000  0.000000000  0.090396483

  length of vectors
    14.538826362 14.538826362 11.062377237     0.068781343  0.068781343  0.090396483

  position of ions in fractional coordinates (direct lattice)
     0.102959480  0.102792341  0.151292978
     0.226244534  0.137923788  0.895284963
     0.058906268  0.131118562  0.899059921
     0.956438962  0.157143358  0.334504051
     0.847943272  0.018892422  0.337791771
     0.498512041  0.392784800  0.590396608
     0.845164506  0.954079762  0.598784498
     0.142056859  0.855763711  0.232751057
     0.954726307  0.083403568  0.095552699
     0.626813319  0.522913598  0.480020694
     0.050748869  0.457459896  0.656513500
     0.370783024  0.858239839  0.953023005
     0.380940652  0.298663722  0.001942250
     0.352590359  0.821854509  0.178006947
     0.749262680  0.754483184  0.255944083
     0.884583094  0.169918117  0.090996716
     0.451788875  0.680190392  0.537288674
     0.605051590  0.663814242  0.949163075
     0.839641364  0.654722036  0.134199003
     0.136414037  0.354204657  0.798139479
     0.572966469  0.898703903  0.109252286
     0.180815145  0.646006064  0.460160587
     0.009871017  0.480199696  0.453981083
     0.308156235  0.334800064  0.716563884
     0.762743823  0.019925817  0.607423690
     0.881082123  0.420624048  0.017249005
     0.766313575  0.639590141  0.944579974
     0.319629651  0.743546950  0.810455096
     0.499695080  0.430877283  0.464259163
     0.615070968  0.424556278  0.047642653
     0.445880557  0.191234831  0.427720001
     0.308080576  0.497593122  0.695129070
     0.760845458  0.007022575  0.272191043
     0.452619065  0.302150936  0.811382563
     0.570312885  0.424951082  0.836304874
     0.739626414  0.147987874  0.169195098
     0.802692027  0.761306293  0.808309083
     0.155010449  0.190560086  0.103608833
     0.966618601  0.556625397  0.781889807
     0.600600061  0.169522624  0.082773890
     0.918354733  0.243455002  0.278538684
     0.656007560  0.145966390  0.869171227
     0.337069849  0.199699063  0.584829089
     0.491256297  0.693893699  0.328207032
     0.820148732  0.166772746  0.606614641
     0.512418940  0.310031215  0.125536308
     0.588877657  0.882265162  0.743482149
     0.528691918  0.826531640  0.927775268
     0.387476256  0.597472573  0.836732449
     0.393499438  0.034124419  0.950618459
     0.349639639  0.658284910  0.219139155
     0.792409216  0.541336680  0.256387930
     0.149235567  0.450120927  0.967721474
     0.150845051  0.689147786  0.814949609
     0.168227472  0.574727271  0.662165992
     0.075152559  0.600666779  0.955499869
     0.357286061  0.795807014  0.612087244
     0.437648118  0.331290840  0.318103417
     0.037062070  0.362481803  0.288996653
     0.383096260  0.533240429  0.518867679
     0.958282302  0.700310998  0.717424459
     0.912996666  0.274681732  0.945601454
     0.520512441  0.956535256  0.423039271
     0.557640610  0.565278778  0.098801548
     0.730224004  0.402500852  0.748589550
     0.229704924  0.883475714  0.292495901
     0.019251829  0.452141723  0.109121211
     0.288973119  0.543418004  0.354949024
     0.003526853  0.610738431  0.159624822
     0.801543378  0.789190249  0.463846051
     0.917776970  0.676438370  0.503517452
     0.175622154  0.279136699  0.278117437
     0.791178030  0.898655756  0.937971991
     0.631973295  0.633720341  0.288248171
     0.718476151  0.262332729  0.490275271
     0.401600504  0.567805805  0.050955413
     0.731957294  0.890016820  0.143822613
     0.492187596  0.844483571  0.261715899
     0.218103575  0.157913709  0.423145035
     0.452653456  0.933617313  0.625520162
     0.288345145  0.405474957  0.245222156
     0.504551043  0.047963913  0.119937150
     0.043200461  0.626660624  0.373770476
     0.234208038  0.800456633  0.486231837
     0.597261415  0.646001938  0.611005199
     0.301041493  0.433468276  0.047142308
     0.709582723  0.997191908  0.804572996
     0.293921249  0.155540753  0.994343238
     0.789417228  0.241595842  0.803791067
     0.066748717  0.231821326  0.916114121
     0.658460990  0.026444844  0.441703433
     0.432439307  0.057159084  0.310299489
     0.592277519  0.166591851  0.525535324
     0.551112573  0.585221241  0.795706909
     0.744771258  0.422090466  0.539607344
     0.533133130  0.170126525  0.729906405
     0.279013581  0.031465470  0.330249993
     0.758431233  0.413210795  0.149541998
     0.403397073  0.080125450  0.732436603
     0.697944920  0.771637251  0.651415139
     0.765900887  0.281338390  0.281332840
     0.861843982  0.528215264  0.449089729
     0.819495309  0.507415098  0.852696468

  ion indices of the primitive-cell ions
   primitive index   ion index
                 1           1
                 2           2
                 3           3
                 4           4
                 5           5
                 6           6
                 7           7
                 8           8
                 9           9
                10          10
                11          11
                12          12
                13          13
                14          14
                15          15
                16          16
                17          17
                18          18
                19          19
                20          20
                21          21
                22          22
                23          23
                24          24
                25          25
                26          26
                27          27
                28          28
                29          29
                30          30
                31          31
                32          32
                33          33
                34          34
                35          35
                36          36
                37          37
                38          38
                39          39
                40          40
                41          41
                42          42
                43          43
                44          44
                45          45
                46          46
                47          47
                48          48
                49          49
                50          50
                51          51
                52          52
                53          53
                54          54
                55          55
                56          56
                57          57
                58          58
                59          59
                60          60
                61          61
                62          62
                63          63
                64          64
                65          65
                66          66
                67          67
                68          68
                69          69
                70          70
                71          71
                72          72
                73          73
                74          74
                75          75
                76          76
                77          77
                78          78
                79          79
                80          80
                81          81
                82          82
                83          83
                84          84
                85          85
                86          86
                87          87
                88          88
                89          89
                90          90
                91          91
                92          92
                93          93
                94          94
                95          95
                96          96
                97          97
                98          98
                99          99
               100         100
               101         101
               102         102
               103         103

----------------------------------------------------------------------------------------


 -----------------------------------------------------------------------------
|                                                                             |
|           W    W    AA    RRRRR   N    N  II  N    N   GGGG   !!!           |
|           W    W   A  A   R    R  NN   N  II  NN   N  G    G  !!!           |
|           W    W  A    A  R    R  N N  N  II  N N  N  G       !!!           |
|           W WW W  AAAAAA  RRRRR   N  N N  II  N  N N  G  GGG   !            |
|           WW  WW  A    A  R   R   N   NN  II  N   NN  G    G                |
|           W    W  A    A  R    R  N    N  II  N    N   GGGG   !!!           |
|                                                                             |
|     The requested file  could not be found or opened for reading            |
|     k-point information. Automatic k-point generation is used as a          |
|     fallback, which may lead to unwanted results.                           |
|                                                                             |
 -----------------------------------------------------------------------------



Automatic generation of k-mesh.
 Grid dimensions derived from KSPACING:
 generate k-points for:    2    2    3

 Generating k-lattice:

  Cartesian coordinates                     Fractional coordinates (reciprocal lattice)
     0.034390671  0.000000000  0.000000000     0.500000000  0.000000000  0.000000000
     0.000000000  0.034390671  0.000000000     0.000000000  0.500000000  0.000000000
     0.000000000  0.000000000  0.030132161     0.000000000  0.000000000  0.333333333

  Length of vectors
     0.034390671  0.034390671  0.030132161

  Shift w.r.t. Gamma in fractional coordinates (k-lattice)
     0.000000000  0.000000000  0.000000000

 
 Subroutine IBZKPT returns following result:
 ===========================================
 
 Found      8 irreducible k-points:
 
 Following reciprocal coordinates:
            Coordinates               Weight
  0.000000  0.000000  0.000000      1.000000
  0.500000  0.000000  0.000000      1.000000
  0.000000  0.500000  0.000000      1.000000
  0.500000  0.500000  0.000000      1.000000
  0.000000  0.000000  0.333333      2.000000
  0.500000  0.000000  0.333333      2.000000
  0.000000  0.500000  0.333333      2.000000
  0.500000  0.500000  0.333333      2.000000
 
 Following cartesian coordinates:
            Coordinates               Weight
  0.000000  0.000000  0.000000      1.000000
  0.034391  0.000000  0.000000      1.000000
  0.000000  0.034391  0.000000      1.000000
  0.034391  0.034391  0.000000      1.000000
  0.000000  0.000000  0.030132      2.000000
  0.034391  0.000000  0.030132      2.000000
  0.000000  0.034391  0.030132      2.000000
  0.034391  0.034391  0.030132      2.000000
 


--------------------------------------------------------------------------------------------------------




 Dimension of arrays:
   k-points           NKPTS =      8   k-points in BZ     NKDIM =      8   number of bands    NBANDS=    248
   number of dos      NEDOS =   2000   number of ions     NIONS =    103
   non local maximal  LDIM  =      4   non local SUM 2l+1 LMDIM =      8
   total plane-waves  NPLWV = ******
   max r-space proj   IRMAX =      1   max aug-charges    IRDMAX= 406944
   dimension x,y,z NGX =   168 NGY =  168 NGZ =  126
   dimension x,y,z NGXF=   336 NGYF=  336 NGZF=  252
   support grid    NGXF=   672 NGYF=  672 NGZF=  504
   ions per type =               9  94
   NGX,Y,Z   is equivalent  to a cutoff of  19.21, 19.21, 18.94 a.u.
   NGXF,Y,Z  is equivalent  to a cutoff of  38.42, 38.42, 37.87 a.u.

 SYSTEM =  a-Si SPC                                
 POSCAR =   H Si                                   

 Startparameter for this run:
   NWRITE =      2    write-flag & timer
   PREC   = accura    normal or accurate (medium, high low for compatibility)
   ISTART =      1    job   : 0-new  1-cont  2-samecut
   ICHARG =      1    charge: 1-file 2-atom 10-const
   ISPIN  =      1    spin polarized calculation?
   LNONCOLLINEAR =      F non collinear calculations
   LSORBIT =      F    spin-orbit coupling
   INIWAV =      1    electr: 0-lowe 1-rand  2-diag
   LASPH  =      T    aspherical Exc in radial PAW
 Electronic Relaxation 1
   ENCUT  = 1200.0 eV  88.20 Ry    9.39 a.u.  41.07 41.07 31.25*2*pi/ulx,y,z
   ENINI  = 1200.0     initial cutoff
   ENAUG  =  400.0 eV  augmentation charge cutoff
   NELM   =    150;   NELMIN=  2; NELMDL=  0     # of ELM steps 
   EDIFF  = 0.1E-05   stopping-criterion for ELM
   LREAL  =      F    real-space projection
   NLSPLINE    = F    spline interpolate recip. space projectors
   LCOMPAT=      F    compatible to vasp.4.4
   GGA_COMPAT  = T    GGA compatible to vasp.4.4-vasp.4.6
   LMAXPAW     = -100 max onsite density
   LMAXMIX     =    2 max onsite mixed and CHGCAR
   VOSKOWN=      0    Vosko Wilk Nusair interpolation
   ROPT   =    0.00000   0.00000
 Ionic relaxation
   EDIFFG = -.1E-01   stopping-criterion for IOM
   NSW    =      0    number of steps for IOM
   NBLOCK =      1;   KBLOCK =      1    inner block; outer block 
   IBRION =     -1    ionic relax: 0-MD 1-quasi-New 2-CG
   NFREE  =      0    steps in history (QN), initial steepest desc. (CG)
   ISIF   =      2    stress and relaxation
   IWAVPR =     10    prediction:  0-non 1-charg 2-wave 3-comb
   ISYM   =      1    0-nonsym 1-usesym 2-fastsym
   LCORR  =      T    Harris-Foulkes like correction to forces

   POTIM  = 0.5000    time-step for ionic-motion
   TEIN   =    0.0    initial temperature
   TEBEG  =    0.0;   TEEND  =   0.0 temperature during run
   SMASS  =  -3.00    Nose mass-parameter (am)
   estimated Nose-frequenzy (Omega)   =  0.10E-29 period in steps = 0.13E+47 mass=  -0.483E-26a.u.
   SCALEE = 1.0000    scale energy and forces
   NPACO  =    256;   APACO  = 10.0  distance and # of slots for P.C.
   PSTRESS=    0.0 pullay stress

  Mass of Ions in am
   POMASS =   1.00 28.09
  Ionic Valenz
   ZVAL   =   1.00  4.00
  Atomic Wigner-Seitz radii
   RWIGS  =  -1.00 -1.00
  virtual crystal weights 
   VCA    =   1.00  1.00
   NELECT =     385.0000    total number of electrons
   NUPDOWN=      -1.0000    fix difference up-down

 DOS related values:
   EMIN   =  10.00;   EMAX   =-10.00  energy-range for DOS
   EFERMI =   0.00;   METHOD = LEGACY      
   ISMEAR =     0;   SIGMA  =   0.10  broadening in eV -4-tet -1-fermi 0-gaus
   EFERMI_NEDOS =   21; number of points for ismear=-14 and -15

 Electronic relaxation 2 (details)
   IALGO  =     38    algorithm
   LDIAG  =      F    sub-space diagonalisation (order eigenvalues)
   LSUBROT=      F    optimize rotation matrix (better conditioning)
   TURBO    =      0    0=normal 1=particle mesh
   IRESTART =      0    0=no restart 2=restart with 2 vectors
   NREBOOT  =      0    no. of reboots
   NMIN     =      0    reboot dimension
   EREF     =   0.00    reference energy to select bands
   IMIX   =      4    mixing-type and parameters
     AMIX     =   0.40;   BMIX     =  1.00
     AMIX_MAG =   1.60;   BMIX_MAG =  1.00
     AMIN     =   0.10
     WC   =   100.;   INIMIX=   1;  MIXPRE=   1;  MAXMIX= -45

 Intra band minimization:
   WEIMIN = 0.0000     energy-eigenvalue tresh-hold
   EBREAK =  0.10E-08  absolut break condition
   DEPER  =   0.30     relativ break condition  

   TIME   =   0.40     timestep for ELM

  volume/ion in A,a.u.               =      22.70       153.20
  Fermi-wavevector in a.u.,A,eV,Ry     =   0.897276  1.695606 10.954106  0.805104
  Thomas-Fermi vector in A             =   2.019840

 Write flags
   LWAVE        =      F    write WAVECAR
   LDOWNSAMPLE  =      F    k-point downsampling of WAVECAR
   LCHARG       =      F    write CHGCAR
   LVTOT        =      F    write LOCPOT, total local potential
   LVHAR        =      F    write LOCPOT, Hartree potential only
   WRT_POTENTIAL= false  ! write potential to hdf5 file
   LELF         =      F    write electronic localiz. function (ELF)
   LORBIT       =     11    0 simple, 1 ext, 2 COOP (PROOUT), +10 PAW based schemes


 Python interface
   PLUGINS active      =      F    recompile with -DPLUGINS to activate

 Dipole corrections
   LMONO      =      F    monopole corrections only (constant potential shift)
   LDIPOL     =      F    correct potential (dipole corrections)
   IDIPOL     =      0    1-x, 2-y, 3-z, 4-all directions 
   EPSILON    =  1.0000000 bulk dielectric constant
   LVACPOTAV  =      F  vacuum potentials using an averaging scheme for the charge density
   VACPOTFLAT =  0.1000000 required flatness to determine vacuum potential

Coulomb truncation method
  LTRUNCATE          =      F  Coulomb kernel truncation to be used
  IDIMENSIONALITY    =      3  Dimensionality of cutoff (0 molecules / 2 surfaces)
  ISURFACE           =     -1  Direction of surface normal
  LCOARSEN           =      F  Coarsen the charge grid before padding, preferred


 Exchange correlation treatment:
   METAGGA = SCAN    functional components
   XC_C    = 1    coefficients multiplying the functional components
   LIBXC   =     F    Libxc                    
   VOSKOWN =     0    Vosko Wilk Nusair interpolation
   LHFCALC =     F    Hartree Fock is set to
   LHFONE  =     F    Hartree Fock one center treatment
   AEXX    =    0.0000 exact exchange contribution

 Parameters of functionals:
   SCAN:
     P1 =  0.000000E+00
     P2 =  0.000000E+00
     P3 =  0.000000E+00

 Accuracy and mixing parameters for tau-dependent meta-GGA functionals:
   LMAXTAU = 6
   LMIXTAU = T

 Van der Waals corrections
   IVDW    =     0    specifies the selected vdW correction

 Linear response parameters
   LEPSILON=     F    determine dielectric tensor
   LRPA    =     F    only Hartree local field effects (RPA)
   LNABLA  =     F    use nabla operator in PAW spheres
   LVEL    =     F    velocity operator in full k-point grid
   CSHIFT  =0.1000    complex shift for real part using Kramers Kronig
   OMEGAMAX=  -1.0    maximum frequency
   DEG_THRESHOLD= 0.2000000E-02 threshold for treating states as degnerate
   RTIME   =   -0.100 relaxation time in fs
  (WPLASMAI=    0.000 imaginary part of plasma frequency in eV, 0.658/RTIME)
   DFIELD  = 0.0000000 0.0000000 0.0000000 field for delta impulse in time

  Optional k-point grid parameters
   LKPOINTS_OPT  =     F    use optional k-point grid
   KPOINTS_OPT_MODE=     1    mode for optional k-point grid

 Orbital magnetization related:
   ORBITALMAG=     F  switch on orbital magnetization
   LCHIMAG   =     F  perturbation theory with respect to B field
   DQ        =  0.001000  dq finite difference perturbation B field
   LLRAUG    =     F  two centre corrections for induced B field
   LBONE     =     F  B-component reconstruction in AE one-centre
   LVGVCALC  =     T  calculate vGv susceptibility
   LVGVAPPL  =     F  apply vGv susceptibility instead of pGv for G=0

 Random number generation:
   RANDOM_GENERATOR = DEFAULT
   PCG_SEED         = not used


--------------------------------------------------------------------------------------------------------


 Static calculation
 charge density and potential will be updated during run
 non-spin polarized calculation
 Variant of blocked Davidson
 perform Loewdin sub-space diagonalisation
    ordering is kept fixed
    before iterative eigenvector-optimisation
 modified Broyden-mixing scheme, WC =      100.0
 initial mixing is a Kerker type mixing with AMIX =  0.4000 and BMIX =      1.0000
 Hartree-type preconditioning will be used
 using additional bands           55
 reciprocal scheme for non local part
 use partial core corrections
 calculate Harris-corrections to forces   (improved forces if not selfconsistent)
 use gradient corrections 
 use of overlap-Matrix (Vanderbilt PP)
 Gauss-broadening in eV      SIGMA  =   0.10


--------------------------------------------------------------------------------------------------------


  energy-cutoff  :     1200.00
  volume of cell :     2338.34
      direct lattice vectors                 reciprocal lattice vectors
    14.538826362  0.000000000  0.000000000     0.068781343  0.000000000  0.000000000
     0.000000000 14.538826362  0.000000000     0.000000000  0.068781343  0.000000000
     0.000000000  0.000000000 11.062377237     0.000000000  0.000000000  0.090396483

  length of vectors
    14.538826362 14.538826362 11.062377237     0.068781343  0.068781343  0.090396483



 old parameters found on file WAVECAR:
  energy-cutoff  :     1200.00
  volume of cell :     2338.34
      direct lattice vectors                 reciprocal lattice vectors
    14.538826362  0.000000000  0.000000000     0.068781343  0.000000000  0.000000000
     0.000000000 14.538826362  0.000000000     0.000000000  0.068781343  0.000000000
     0.000000000  0.000000000 11.062377237     0.000000000  0.000000000  0.090396483

  length of vectors


 k-points in units of 2pi/SCALE and weight: read from INCAR                         
   0.00000000  0.00000000  0.00000000       0.083
   0.03439067  0.00000000  0.00000000       0.083
   0.00000000  0.03439067  0.00000000       0.083
   0.03439067  0.03439067  0.00000000       0.083
   0.00000000  0.00000000  0.03013216       0.167
   0.03439067  0.00000000  0.03013216       0.167
   0.00000000  0.03439067  0.03013216       0.167
   0.03439067  0.03439067  0.03013216       0.167

 k-points in reciprocal lattice and weights: read from INCAR                         
   0.00000000  0.00000000  0.00000000       0.083
   0.50000000  0.00000000  0.00000000       0.083
   0.00000000  0.50000000  0.00000000       0.083
   0.50000000  0.50000000  0.00000000       0.083
   0.00000000  0.00000000  0.33333333       0.167
   0.50000000  0.00000000  0.33333333       0.167
   0.00000000  0.50000000  0.33333333       0.167
   0.50000000  0.50000000  0.33333333       0.167

 position of ions in fractional coordinates (direct lattice) 
   0.10295948  0.10279234  0.15129298
   0.22624453  0.13792379  0.89528496
   0.05890627  0.13111856  0.89905992
   0.95643896  0.15714336  0.33450405
   0.84794327  0.01889242  0.33779177
   0.49851204  0.39278480  0.59039661
   0.84516451  0.95407976  0.59878450
   0.14205686  0.85576371  0.23275106
   0.95472631  0.08340357  0.09555270
   0.62681332  0.52291360  0.48002069
   0.05074887  0.45745990  0.65651350
   0.37078302  0.85823984  0.95302301
   0.38094065  0.29866372  0.00194225
   0.35259036  0.82185451  0.17800695
   0.74926268  0.75448318  0.25594408
   0.88458309  0.16991812  0.09099672
   0.45178887  0.68019039  0.53728867
   0.60505159  0.66381424  0.94916308
   0.83964136  0.65472204  0.13419900
   0.13641404  0.35420466  0.79813948
   0.57296647  0.89870390  0.10925229
   0.18081515  0.64600606  0.46016059
   0.00987102  0.48019970  0.45398108
   0.30815624  0.33480006  0.71656388
   0.76274382  0.01992582  0.60742369
   0.88108212  0.42062405  0.01724900
   0.76631357  0.63959014  0.94457997
   0.31962965  0.74354695  0.81045510
   0.49969508  0.43087728  0.46425916
   0.61507097  0.42455628  0.04764265
   0.44588056  0.19123483  0.42772000
   0.30808058  0.49759312  0.69512907
   0.76084546  0.00702258  0.27219104
   0.45261907  0.30215094  0.81138256
   0.57031288  0.42495108  0.83630487
   0.73962641  0.14798787  0.16919510
   0.80269203  0.76130629  0.80830908
   0.15501045  0.19056009  0.10360883
   0.96661860  0.55662540  0.78188981
   0.60060006  0.16952262  0.08277389
   0.91835473  0.24345500  0.27853868
   0.65600756  0.14596639  0.86917123
   0.33706985  0.19969906  0.58482909
   0.49125630  0.69389370  0.32820703
   0.82014873  0.16677275  0.60661464
   0.51241894  0.31003121  0.12553631
   0.58887766  0.88226516  0.74348215
   0.52869192  0.82653164  0.92777527
   0.38747626  0.59747257  0.83673245
   0.39349944  0.03412442  0.95061846
   0.34963964  0.65828491  0.21913916
   0.79240922  0.54133668  0.25638793
   0.14923557  0.45012093  0.96772147
   0.15084505  0.68914779  0.81494961
   0.16822747  0.57472727  0.66216599
   0.07515256  0.60066678  0.95549987
   0.35728606  0.79580701  0.61208724
   0.43764812  0.33129084  0.31810342
   0.03706207  0.36248180  0.28899665
   0.38309626  0.53324043  0.51886768
   0.95828230  0.70031100  0.71742446
   0.91299667  0.27468173  0.94560145
   0.52051244  0.95653526  0.42303927
   0.55764061  0.56527878  0.09880155
   0.73022400  0.40250085  0.74858955
   0.22970492  0.88347571  0.29249590
   0.01925183  0.45214172  0.10912121
   0.28897312  0.54341800  0.35494902
   0.00352685  0.61073843  0.15962482
   0.80154338  0.78919025  0.46384605
   0.91777697  0.67643837  0.50351745
   0.17562215  0.27913670  0.27811744
   0.79117803  0.89865576  0.93797199
   0.63197329  0.63372034  0.28824817
   0.71847615  0.26233273  0.49027527
   0.40160050  0.56780580  0.05095541
   0.73195729  0.89001682  0.14382261
   0.49218760  0.84448357  0.26171590
   0.21810357  0.15791371  0.42314503
   0.45265346  0.93361731  0.62552016
   0.28834515  0.40547496  0.24522216
   0.50455104  0.04796391  0.11993715
   0.04320046  0.62666062  0.37377048
   0.23420804  0.80045663  0.48623184
   0.59726141  0.64600194  0.61100520
   0.30104149  0.43346828  0.04714231
   0.70958272  0.99719191  0.80457300
   0.29392125  0.15554075  0.99434324
   0.78941723  0.24159584  0.80379107
   0.06674872  0.23182133  0.91611412
   0.65846099  0.02644484  0.44170343
   0.43243931  0.05715908  0.31029949
   0.59227752  0.16659185  0.52553532
   0.55111257  0.58522124  0.79570691
   0.74477126  0.42209047  0.53960734
   0.53313313  0.17012652  0.72990641
   0.27901358  0.03146547  0.33024999
   0.75843123  0.41321080  0.14954200
   0.40339707  0.08012545  0.73243660
   0.69794492  0.77163725  0.65141514
   0.76590089  0.28133839  0.28133284
   0.86184398  0.52821526  0.44908973
   0.81949531  0.50741510  0.85269647

 position of ions in cartesian coordinates  (Angst):
   1.49691000  1.49448000  1.67366000
   3.28933000  2.00525000  9.90398000
   0.85642800  1.90631000  9.94574000
  13.90550000  2.28468000  3.70041000
  12.32810000  0.27467364  3.73678000
   7.24778000  5.71063000  6.53119000
  12.28770000 13.87120000  6.62398000
   2.06534000 12.44180000  2.57478000
  13.88060000  1.21259000  1.05704000
   9.11313000  7.60255000  5.31017000
   0.73782900  6.65093000  7.26260000
   5.39075000 12.47780000 10.54270000
   5.53843000  4.34222000  0.02148590
   5.12625000 11.94880000  1.96918000
  10.89340000 10.96930000  2.83135000
  12.86080000  2.47041000  1.00664000
   6.56848000  9.88917000  5.94369000
   8.79674000  9.65108000 10.50000000
  12.20740000  9.51889000  1.48456000
   1.98330000  5.14972000  8.82932000
   8.33026000 13.06610000  1.20859000
   2.62884000  9.39217000  5.09047000
   0.14351300  6.98154000  5.02211000
   4.48023000  4.86760000  7.92690000
  11.08940000  0.28969800  6.71955000
  12.80990000  6.11538000  0.19081500
  11.14130000  9.29889000 10.44930000
   4.64704000 10.81030000  8.96556000
   7.26498000  6.26445000  5.13581000
   8.94241000  6.17255000  0.52704100
   6.48258000  2.78033000  4.73160000
   4.47913000  7.23442000  7.68978000
  11.06180000  0.10210000  3.01108000
   6.58055000  4.39292000  8.97582000
   8.29168000  6.17829000  9.25152000
  10.75330000  2.15157000  1.87170000
  11.67020000 11.06850000  8.94182000
   2.25367000  2.77052000  1.14616000
  14.05350000  8.09268000  8.64956000
   8.73202000  2.46466000  0.91567600
  13.35180000  3.53955000  3.08130000
   9.53758000  2.12218000  9.61510000
   4.90060000  2.90339000  6.46960000
   7.14229000 10.08840000  3.63075000
  11.92400000  2.42468000  6.71060000
   7.44997000  4.50749000  1.38873000
   8.56159000 12.82710000  8.22468000
   7.68656000 12.01680000 10.26340000
   5.63345000  8.68655000  9.25625000
   5.72102000  0.49612900 10.51610000
   5.08335000  9.57069000  2.42420000
  11.52070000  7.87040000  2.83626000
   2.16971000  6.54423000 10.70530000
   2.19311000 10.01940000  9.01528000
   2.44583000  8.35586000  7.32513000
   1.09263000  8.73299000 10.57010000
   5.19452000 11.57010000  6.77114000
   6.36289000  4.81658000  3.51898000
   0.53883900  5.27006000  3.19699000
   5.56977000  7.75269000  5.73991000
  13.93230000 10.18170000  7.93642000
  13.27390000  3.99355000 10.46060000
   7.56764000 13.90690000  4.67982000
   8.10744000  8.21849000  1.09298000
  10.61660000  5.85189000  8.28118000
   3.33964000 12.84470000  3.23570000
   0.27989900  6.57361000  1.20714000
   4.20133000  7.90066000  3.92658000
   0.05127630  8.87942000  1.76583000
  11.65350000 11.47390000  5.13124000
  13.34340000  9.83462000  5.57010000
   2.55334000  4.05832000  3.07664000
  11.50280000 13.06540000 10.37620000
   9.18815000  9.21355000  3.18871000
  10.44580000  3.81401000  5.42361000
   5.83880000  8.25523000  0.56368800
  10.64180000 12.93980000  1.59102000
   7.15583000 12.27780000  2.89520000
   3.17097000  2.29588000  4.68099000
   6.58105000 13.57370000  6.91974000
   4.19220000  5.89513000  2.71274000
   7.33558000  0.69733900  1.32679000
   0.62808400  9.11091000  4.13479000
   3.40511000 11.63770000  5.37888000
   8.68348000  9.39211000  6.75917000
   4.37679000  6.30212000  0.52150600
  10.31650000 14.49800000  8.90049000
   4.27327000  2.26138000 10.99980000
  11.47720000  3.51252000  8.89184000
   0.97044800  3.37041000 10.13440000
   9.57325000  0.38447700  4.88629000
   6.28716000  0.83102600  3.43265000
   8.61102000  2.42205000  5.81367000
   8.01253000  8.50843000  8.80241000
  10.82810000  6.13670000  5.96934000
   7.75113000  2.47344000  8.07450000
   4.05653000  0.45747100  3.65335000
  11.02670000  6.00760000  1.65429000
   5.86492000  1.16493000  8.10249000
  10.14730000 11.21870000  7.20620000
  11.13530000  4.09033000  3.11221000
  12.53020000  7.67963000  4.96800000
  11.91450000  7.37722000  9.43285000



--------------------------------------------------------------------------------------------------------


 k-point     1 :   0.0000 0.0000 0.0000  plane waves:  220647
 k-point     2 :   0.5000 0.0000 0.0000  plane waves:  220778
 k-point     3 :   0.0000 0.5000 0.0000  plane waves:  220778
 k-point     4 :   0.5000 0.5000 0.0000  plane waves:  220772
 k-point     5 :   0.0000 0.0000 0.3333  plane waves:  220658
 k-point     6 :   0.5000 0.0000 0.3333  plane waves:  220728
 k-point     7 :   0.0000 0.5000 0.3333  plane waves:  220728
 k-point     8 :   0.5000 0.5000 0.3333  plane waves:  220748

 maximum and minimum number of plane-waves per node :     13866    13744

 maximum number of plane-waves:    220778
 maximum index in each direction: 
   IXMAX=   41   IYMAX=   41   IZMAX=   31
   IXMIN=  -41   IYMIN=  -41   IZMIN=  -31


 parallel 3D FFT for wavefunctions:
    minimum data exchange during FFTs selected (reduces bandwidth)
 parallel 3D FFT for charge:
    minimum data exchange during FFTs selected (reduces bandwidth)


 total amount of memory used by VASP MPI-rank0   198115. kBytes
=======================================================================

   base                                    :      30000. kBytes
   nonl-proj                               :      36916. kBytes
   fftplans                                :      42986. kBytes
   grid                                    :      33148. kBytes
   one-center                              :         21. kBytes
   wavefun                                 :      55044. kBytes

     INWAV:  cpu time     10.0804: real time     10.0860
 Broyden mixing: mesh for mixing (old mesh)
   NGX = 83   NGY = 83   NGZ = 63
  (NGX  =336   NGY  =336   NGZ  =252)
  gives a total of 434007 points

 initial charge density was supplied:
 number of electron     384.9999999 magnetization 
 keeping initial charge density in first step


--------------------------------------------------------------------------------------------------------


 Maximum index for augmentation-charges        11093 (set IRDMAX)


--------------------------------------------------------------------------------------------------------


 First call to EWALD:  gamma=   0.134
 Maximum number of real-space cells   3x   3x   3
 Maximum number of reciprocal cells   3x   3x   2

    FEWALD:  cpu time      0.0220: real time      0.0223


--------------------------------------- Ionic step        1  -------------------------------------------




--------------------------------------- Iteration      1(   1)  ---------------------------------------


    POTLOK:  cpu time      0.7727: real time      0.7738
    SETDIJ:  cpu time      1.3762: real time      1.3770
    EDDIAG:  cpu time     22.9124: real time     22.9311
     EDDAV:  cpu time    106.9058: real time    106.9952
       DOS:  cpu time      0.0117: real time      0.0120
    CHARGE:  cpu time     10.1660: real time     10.1749
    MIXING:  cpu time      0.0244: real time      0.0246
    --------------------------------------------
      LOOP:  cpu time    142.1692: real time    142.2885

 eigenvalue-minimisations  :  3976
 total energy-change (2. order) :-0.1001257E+04  (-0.1094268E+01)
 number of electron     384.9999999 magnetization 
 augmentation part      -20.8363370 magnetization 

 Broyden mixing:
  rms(total) = 0.12292E+01    rms(broyden)= 0.45245E+02
  rms(prec ) = 0.13145E+01
  weight for this iteration     100.00
  WARNING: grid for Broyden might be to small

 Free energy of the ion-electron system (eV)
  ---------------------------------------------------
  alpha Z        PSCENC =       133.85942725
  Ewald energy   TEWEN  =     -7187.40085510
  -Hartree energ DENC   =     -3665.68295177
  -exchange      EXHF   =         0.00000000
  -V(xc)+E(xc)   XCENC  =      -434.00364931
  PAW double counting   =     35061.33584618   -34124.08201698
  entropy T*S    EENTRO =        -0.13329840
  eigenvalues    EBANDS =      -585.82732621
  atomic energy  EATOM  =      9800.67782177
  Solvation  Ediel_sol  =         0.00000000
  ---------------------------------------------------
  free energy    TOTEN  =     -1001.25700257 eV

  energy without entropy =    -1001.12370417  energy(sigma->0) =    -1001.19035337


--------------------------------------------------------------------------------------------------------




--------------------------------------- Iteration      1(   2)  ---------------------------------------


    POTLOK:  cpu time      0.7664: real time      0.7754
    SETDIJ:  cpu time      1.3626: real time      1.3631
    EDDIAG:  cpu time     23.0451: real time     23.0644
     EDDAV:  cpu time    107.1018: real time    107.2011
       DOS:  cpu time      0.0045: real time      0.0045
    CHARGE:  cpu time     10.1432: real time     10.1518
    MIXING:  cpu time      0.0184: real time      0.0184
    --------------------------------------------
      LOOP:  cpu time    142.4420: real time    142.5788

 eigenvalue-minimisations  :  3968
 total energy-change (2. order) : 0.6893996E+02  (-0.1026152E+01)
 number of electron     384.9999999 magnetization 
 augmentation part      -20.7530008 magnetization 

 Broyden mixing:
  rms(total) = 0.81850E+00    rms(broyden)= 0.26045E+02
  rms(prec ) = 0.86221E+00
  weight for this iteration     100.00
  WARNING: grid for Broyden might be to small

 eigenvalues of (default mixing * dielectric matrix)
  average eigenvalue GAMMA=   0.6347
  0.6347

 Free energy of the ion-electron system (eV)
  ---------------------------------------------------
  alpha Z        PSCENC =       133.85942725
  Ewald energy   TEWEN  =     -7187.40085510
  -Hartree energ DENC   =     -3656.34914371
  -exchange      EXHF   =         0.00000000
  -V(xc)+E(xc)   XCENC  =      -423.83413432
  PAW double counting   =     42103.61207612   -41166.09925933
  entropy T*S    EENTRO =        -0.13001516
  eigenvalues    EBANDS =      -536.65295832
  atomic energy  EATOM  =      9800.67782177
  Solvation  Ediel_sol  =         0.00000000
  ---------------------------------------------------
  free energy    TOTEN  =      -932.31704080 eV

  energy without entropy =     -932.18702564  energy(sigma->0) =     -932.25203322


--------------------------------------------------------------------------------------------------------




--------------------------------------- Iteration      1(   3)  ---------------------------------------


    POTLOK:  cpu time      0.7499: real time      0.7765
    SETDIJ:  cpu time      1.3652: real time      1.3659
    EDDIAG:  cpu time     23.0288: real time     23.0510
     EDDAV:  cpu time    107.2689: real time    107.3651
       DOS:  cpu time      0.0056: real time      0.0056
    CHARGE:  cpu time     10.0247: real time     10.0326
    MIXING:  cpu time      0.0148: real time      0.0148
    --------------------------------------------
      LOOP:  cpu time    142.4579: real time    142.6115

 eigenvalue-minimisations  :  3968
 total energy-change (2. order) :-0.3793248E+01  (-0.8249271E+00)
 number of electron     384.9999999 magnetization 
 augmentation part      -20.6867077 magnetization 

 Broyden mixing:
  rms(total) = 0.45886E+00    rms(broyden)= 0.22892E+02
  rms(prec ) = 0.52102E+00
  weight for this iteration     100.00
  WARNING: grid for Broyden might be to small

 eigenvalues of (default mixing * dielectric matrix)
  average eigenvalue GAMMA=   0.7063
  0.7907  0.6219

 Free energy of the ion-electron system (eV)
  ---------------------------------------------------
  alpha Z        PSCENC =       133.85942725
  Ewald energy   TEWEN  =     -7187.40085510
  -Hartree energ DENC   =     -3659.73129204
  -exchange      EXHF   =         0.00000000
  -V(xc)+E(xc)   XCENC  =      -429.33908796
  PAW double counting   =     48255.73476099   -47318.32283118
  entropy T*S    EENTRO =        -0.12455018
  eigenvalues    EBANDS =      -531.46368238
  atomic energy  EATOM  =      9800.67782177
  Solvation  Ediel_sol  =         0.00000000
  ---------------------------------------------------
  free energy    TOTEN  =      -936.11028882 eV

  energy without entropy =     -935.98573864  energy(sigma->0) =     -936.04801373


--------------------------------------------------------------------------------------------------------




--------------------------------------- Iteration      1(   4)  ---------------------------------------


    POTLOK:  cpu time      0.7760: real time      0.7770
    SETDIJ:  cpu time      1.3604: real time      1.3609
    EDDIAG:  cpu time     23.0275: real time     23.0470
     EDDAV:  cpu time    111.7561: real time    111.8606
       DOS:  cpu time      0.0042: real time      0.0042
    CHARGE:  cpu time      9.8628: real time      9.8711
    MIXING:  cpu time      0.0152: real time      0.0152
    --------------------------------------------
      LOOP:  cpu time    146.8021: real time    146.9359

 eigenvalue-minimisations  :  4272
 total energy-change (2. order) :-0.2660045E+00  (-0.9869748E-01)
 number of electron     384.9999999 magnetization 
 augmentation part      -20.6736265 magnetization 

 Broyden mixing:
  rms(total) = 0.88099E-01    rms(broyden)= 0.20053E+01
  rms(prec ) = 0.15680E+00
  weight for this iteration     100.00
  WARNING: grid for Broyden might be to small

 eigenvalues of (default mixing * dielectric matrix)
  average eigenvalue GAMMA=   0.8703
  1.3285  0.6741  0.6083

 Free energy of the ion-electron system (eV)
  ---------------------------------------------------
  alpha Z        PSCENC =       133.85942725
  Ewald energy   TEWEN  =     -7187.40085510
  -Hartree energ DENC   =     -3665.56314953
  -exchange      EXHF   =         0.00000000
  -V(xc)+E(xc)   XCENC  =      -429.87440584
  PAW double counting   =     56276.01379738   -55338.67154028
  entropy T*S    EENTRO =        -0.12994280
  eigenvalues    EBANDS =      -525.28744617
  atomic energy  EATOM  =      9800.67782177
  Solvation  Ediel_sol  =         0.00000000
  ---------------------------------------------------
  free energy    TOTEN  =      -936.37629333 eV

  energy without entropy =     -936.24635052  energy(sigma->0) =     -936.31132192


--------------------------------------------------------------------------------------------------------




--------------------------------------- Iteration      1(   5)  ---------------------------------------


    POTLOK:  cpu time      0.7765: real time      0.7782
    SETDIJ:  cpu time      1.3653: real time      1.3659
    EDDIAG:  cpu time     23.1066: real time     23.1261
     EDDAV:  cpu time    118.1362: real time    118.2486
       DOS:  cpu time      0.0068: real time      0.0068
    CHARGE:  cpu time     10.1562: real time     10.1651
    MIXING:  cpu time      0.0157: real time      0.0157
    --------------------------------------------
      LOOP:  cpu time    153.5633: real time    153.7064

 eigenvalue-minimisations  :  4672
 total energy-change (2. order) :-0.7676895E-02  (-0.1809772E-01)
 number of electron     384.9999999 magnetization 
 augmentation part      -20.6766218 magnetization 

 Broyden mixing:
  rms(total) = 0.52220E-01    rms(broyden)= 0.11604E+01
  rms(prec ) = 0.86374E-01
  weight for this iteration     100.00
  WARNING: grid for Broyden might be to small

 eigenvalues of (default mixing * dielectric matrix)
  average eigenvalue GAMMA=   1.0272
  2.2528  0.7537  0.6215  0.4807

 Free energy of the ion-electron system (eV)
  ---------------------------------------------------
  alpha Z        PSCENC =       133.85942725
  Ewald energy   TEWEN  =     -7187.40085510
  -Hartree energ DENC   =     -3665.95035384
  -exchange      EXHF   =         0.00000000
  -V(xc)+E(xc)   XCENC  =      -431.06620655
  PAW double counting   =     56264.28510032   -55326.92197225
  entropy T*S    EENTRO =        -0.12449100
  eigenvalues    EBANDS =      -523.74244082
  atomic energy  EATOM  =      9800.67782177
  Solvation  Ediel_sol  =         0.00000000
  ---------------------------------------------------
  free energy    TOTEN  =      -936.38397022 eV

  energy without entropy =     -936.25947922  energy(sigma->0) =     -936.32172472


--------------------------------------------------------------------------------------------------------




--------------------------------------- Iteration      1(   6)  ---------------------------------------


    POTLOK:  cpu time      0.7526: real time      0.7776
    SETDIJ:  cpu time      1.3615: real time      1.3629
    EDDIAG:  cpu time     23.1655: real time     23.1864
     EDDAV:  cpu time    110.7735: real time    110.8774
       DOS:  cpu time      0.0056: real time      0.0056
    CHARGE:  cpu time      9.9102: real time      9.9186
    MIXING:  cpu time      0.0156: real time      0.0157
    --------------------------------------------
      LOOP:  cpu time    145.9845: real time    146.1441

 eigenvalue-minimisations  :  4200
 total energy-change (2. order) :-0.5622127E-02  (-0.4976782E-02)
 number of electron     384.9999999 magnetization 
 augmentation part      -20.6761043 magnetization 

 Broyden mixing:
  rms(total) = 0.27687E-01    rms(broyden)= 0.26999E+00
  rms(prec ) = 0.40335E-01
  weight for this iteration     100.00
  WARNING: grid for Broyden might be to small

 eigenvalues of (default mixing * dielectric matrix)
  average eigenvalue GAMMA=   1.0400
  2.5441  0.9184  0.6406  0.6406  0.4565

 Free energy of the ion-electron system (eV)
  ---------------------------------------------------
  alpha Z        PSCENC =       133.85942725
  Ewald energy   TEWEN  =     -7187.40085510
  -Hartree energ DENC   =     -3666.37889716
  -exchange      EXHF   =         0.00000000
  -V(xc)+E(xc)   XCENC  =      -431.34241371
  PAW double counting   =     55989.94168399   -55052.55746272
  entropy T*S    EENTRO =        -0.13181478
  eigenvalues    EBANDS =      -523.05708190
  atomic energy  EATOM  =      9800.67782177
  Solvation  Ediel_sol  =         0.00000000
  ---------------------------------------------------
  free energy    TOTEN  =      -936.38959235 eV

  energy without entropy =     -936.25777756  energy(sigma->0) =     -936.32368496


--------------------------------------------------------------------------------------------------------




--------------------------------------- Iteration      1(   7)  ---------------------------------------


    POTLOK:  cpu time      0.7516: real time      0.7756
    SETDIJ:  cpu time      1.3713: real time      1.3720
    EDDIAG:  cpu time     23.0877: real time     23.1086
     EDDAV:  cpu time    109.6218: real time    109.7196
       DOS:  cpu time      0.0055: real time      0.0055
    CHARGE:  cpu time      9.9153: real time      9.9237
    MIXING:  cpu time      0.0159: real time      0.0159
    --------------------------------------------
      LOOP:  cpu time    144.7691: real time    144.9208

 eigenvalue-minimisations  :  4128
 total energy-change (2. order) :-0.7982646E-03  (-0.1202342E-02)
 number of electron     384.9999999 magnetization 
 augmentation part      -20.6747177 magnetization 

 Broyden mixing:
  rms(total) = 0.17380E-01    rms(broyden)= 0.18330E+00
  rms(prec ) = 0.23648E-01
  weight for this iteration     100.00
  WARNING: grid for Broyden might be to small

 eigenvalues of (default mixing * dielectric matrix)
  average eigenvalue GAMMA=   0.9736
  2.5766  1.0234  0.6823  0.6235  0.5344  0.4017

 Free energy of the ion-electron system (eV)
  ---------------------------------------------------
  alpha Z        PSCENC =       133.85942725
  Ewald energy   TEWEN  =     -7187.40085510
  -Hartree energ DENC   =     -3666.72025059
  -exchange      EXHF   =         0.00000000
  -V(xc)+E(xc)   XCENC  =      -431.32078933
  PAW double counting   =     55964.02286135   -55026.62592267
  entropy T*S    EENTRO =        -0.12922183
  eigenvalues    EBANDS =      -522.75346146
  atomic energy  EATOM  =      9800.67782177
  Solvation  Ediel_sol  =         0.00000000
  ---------------------------------------------------
  free energy    TOTEN  =      -936.39039061 eV

  energy without entropy =     -936.26116878  energy(sigma->0) =     -936.32577970


--------------------------------------------------------------------------------------------------------




--------------------------------------- Iteration      1(   8)  ---------------------------------------


    POTLOK:  cpu time      0.7502: real time      0.7764
    SETDIJ:  cpu time      1.3667: real time      1.3681
    EDDIAG:  cpu time     23.0665: real time     23.0857
     EDDAV:  cpu time    115.8222: real time    115.9281
       DOS:  cpu time      0.0052: real time      0.0052
    CHARGE:  cpu time      9.8689: real time      9.8781
    MIXING:  cpu time      0.0158: real time      0.0158
    --------------------------------------------
      LOOP:  cpu time    150.8955: real time    151.0574

 eigenvalue-minimisations  :  4528
 total energy-change (2. order) :-0.6963869E-03  (-0.3816137E-03)
 number of electron     384.9999999 magnetization 
 augmentation part      -20.6731994 magnetization 

 Broyden mixing:
  rms(total) = 0.11291E-01    rms(broyden)= 0.10663E+00
  rms(prec ) = 0.18776E-01
  weight for this iteration     100.00
  WARNING: grid for Broyden might be to small

 eigenvalues of (default mixing * dielectric matrix)
  average eigenvalue GAMMA=   0.9499
  2.5551  1.1953  0.8339  0.6519  0.6367  0.3882  0.3882

 Free energy of the ion-electron system (eV)
  ---------------------------------------------------
  alpha Z        PSCENC =       133.85942725
  Ewald energy   TEWEN  =     -7187.40085510
  -Hartree energ DENC   =     -3667.05388729
  -exchange      EXHF   =         0.00000000
  -V(xc)+E(xc)   XCENC  =      -431.17339062
  PAW double counting   =     55973.83332676   -55036.42109634
  entropy T*S    EENTRO =        -0.12937244
  eigenvalues    EBANDS =      -522.58306100
  atomic energy  EATOM  =      9800.67782177
  Solvation  Ediel_sol  =         0.00000000
  ---------------------------------------------------
  free energy    TOTEN  =      -936.39108700 eV

  energy without entropy =     -936.26171456  energy(sigma->0) =     -936.32640078


--------------------------------------------------------------------------------------------------------




--------------------------------------- Iteration      1(   9)  ---------------------------------------


    POTLOK:  cpu time      0.7499: real time      0.7769
    SETDIJ:  cpu time      1.3611: real time      1.3617
    EDDIAG:  cpu time     23.0841: real time     23.1048
     EDDAV:  cpu time    109.8827: real time    109.9825
       DOS:  cpu time      0.0053: real time      0.0053
    CHARGE:  cpu time     10.0060: real time     10.0142
    MIXING:  cpu time      0.0161: real time      0.0161
    --------------------------------------------
      LOOP:  cpu time    145.1054: real time    145.2618

 eigenvalue-minimisations  :  4144
 total energy-change (2. order) :-0.1010525E-03  (-0.1765724E-03)
 number of electron     384.9999999 magnetization 
 augmentation part      -20.6730471 magnetization 

 Broyden mixing:
  rms(total) = 0.36782E-02    rms(broyden)= 0.98598E-01
  rms(prec ) = 0.54472E-02
  weight for this iteration     100.00
  WARNING: grid for Broyden might be to small

 eigenvalues of (default mixing * dielectric matrix)
  average eigenvalue GAMMA=   0.9893
  2.5585  1.7728  0.9401  0.6522  0.6522  0.5976  0.3705  0.3705

 Free energy of the ion-electron system (eV)
  ---------------------------------------------------
  alpha Z        PSCENC =       133.85942725
  Ewald energy   TEWEN  =     -7187.40085510
  -Hartree energ DENC   =     -3667.12808290
  -exchange      EXHF   =         0.00000000
  -V(xc)+E(xc)   XCENC  =      -431.16151161
  PAW double counting   =     55998.47998943   -55061.06188988
  entropy T*S    EENTRO =        -0.13008806
  eigenvalues    EBANDS =      -522.52599895
  atomic energy  EATOM  =      9800.67782177
  Solvation  Ediel_sol  =         0.00000000
  ---------------------------------------------------
  free energy    TOTEN  =      -936.39118805 eV

  energy without entropy =     -936.26109999  energy(sigma->0) =     -936.32614402


--------------------------------------------------------------------------------------------------------




--------------------------------------- Iteration      1(  10)  ---------------------------------------


    POTLOK:  cpu time      0.7525: real time      0.7776
    SETDIJ:  cpu time      1.3620: real time      1.3625
    EDDIAG:  cpu time     23.1086: real time     23.1274
     EDDAV:  cpu time    109.1522: real time    109.2480
       DOS:  cpu time      0.0038: real time      0.0038
    CHARGE:  cpu time      9.8677: real time      9.8750
    MIXING:  cpu time      0.0163: real time      0.0163
    --------------------------------------------
      LOOP:  cpu time    144.2630: real time    144.4104

 eigenvalue-minimisations  :  4096
 total energy-change (2. order) : 0.1592500E-04  (-0.8614781E-04)
 number of electron     384.9999999 magnetization 
 augmentation part      -20.6728828 magnetization 

 Broyden mixing:
  rms(total) = 0.25731E-02    rms(broyden)= 0.22458E-01
  rms(prec ) = 0.44128E-02
  weight for this iteration     100.00
  WARNING: grid for Broyden might be to small

 eigenvalues of (default mixing * dielectric matrix)
  average eigenvalue GAMMA=   1.0678
  2.6359  2.3854  1.0269  0.8958  0.6723  0.6330  0.5940  0.3835  0.3835

 Free energy of the ion-electron system (eV)
  ---------------------------------------------------
  alpha Z        PSCENC =       133.85942725
  Ewald energy   TEWEN  =     -7187.40085510
  -Hartree energ DENC   =     -3667.13368372
  -exchange      EXHF   =         0.00000000
  -V(xc)+E(xc)   XCENC  =      -431.15063569
  PAW double counting   =     56000.56511397   -55063.14360931
  entropy T*S    EENTRO =        -0.12990981
  eigenvalues    EBANDS =      -522.53484149
  atomic energy  EATOM  =      9800.67782177
  Solvation  Ediel_sol  =         0.00000000
  ---------------------------------------------------
  free energy    TOTEN  =      -936.39117213 eV

  energy without entropy =     -936.26126232  energy(sigma->0) =     -936.32621722


--------------------------------------------------------------------------------------------------------




--------------------------------------- Iteration      1(  11)  ---------------------------------------


    POTLOK:  cpu time      0.7506: real time      0.7769
    SETDIJ:  cpu time      1.3624: real time      1.3631
    EDDIAG:  cpu time     23.1182: real time     23.1376
     EDDAV:  cpu time    119.0709: real time    119.1768
       DOS:  cpu time      0.0043: real time      0.0043
    CHARGE:  cpu time      9.9780: real time      9.9860
    MIXING:  cpu time      0.0166: real time      0.0166
    --------------------------------------------
      LOOP:  cpu time    154.3010: real time    154.4614

 eigenvalue-minimisations  :  4736
 total energy-change (2. order) :-0.8399591E-05  (-0.7582286E-05)
 number of electron     384.9999999 magnetization 
 augmentation part      -20.6729869 magnetization 

 Broyden mixing:
  rms(total) = 0.10186E-02    rms(broyden)= 0.69473E-02
  rms(prec ) = 0.15043E-02
  weight for this iteration     100.00
  WARNING: grid for Broyden might be to small

 eigenvalues of (default mixing * dielectric matrix)
  average eigenvalue GAMMA=   1.0984
  2.8186  2.5965  1.1666  0.9350  0.7310  0.7043  0.6300  0.6300  0.3859  0.3859

 Free energy of the ion-electron system (eV)
  ---------------------------------------------------
  alpha Z        PSCENC =       133.85942725
  Ewald energy   TEWEN  =     -7187.40085510
  -Hartree energ DENC   =     -3667.09059694
  -exchange      EXHF   =         0.00000000
  -V(xc)+E(xc)   XCENC  =      -431.16169060
  PAW double counting   =     55996.82264670   -55059.39948682
  entropy T*S    EENTRO =        -0.12989212
  eigenvalues    EBANDS =      -522.56855467
  atomic energy  EATOM  =      9800.67782177
  Solvation  Ediel_sol  =         0.00000000
  ---------------------------------------------------
  free energy    TOTEN  =      -936.39118053 eV

  energy without entropy =     -936.26128841  energy(sigma->0) =     -936.32623447


--------------------------------------------------------------------------------------------------------




--------------------------------------- Iteration      1(  12)  ---------------------------------------


    POTLOK:  cpu time      0.7519: real time      0.7761
    SETDIJ:  cpu time      1.3703: real time      1.3707
    EDDIAG:  cpu time     23.0951: real time     23.1132
     EDDAV:  cpu time    111.0831: real time    111.1894
       DOS:  cpu time      0.0037: real time      0.0037
    CHARGE:  cpu time     10.0471: real time     10.0575
    MIXING:  cpu time      0.0168: real time      0.0168
    --------------------------------------------
      LOOP:  cpu time    146.3680: real time    146.5273

 eigenvalue-minimisations  :  4216
 total energy-change (2. order) :-0.2661414E-04  (-0.4814735E-05)
 number of electron     384.9999999 magnetization 
 augmentation part      -20.6730793 magnetization 

 Broyden mixing:
  rms(total) = 0.78626E-03    rms(broyden)= 0.73381E-02
  rms(prec ) = 0.13967E-02
  weight for this iteration     100.00
  WARNING: grid for Broyden might be to small

 eigenvalues of (default mixing * dielectric matrix)
  average eigenvalue GAMMA=   1.1245
  3.1366  2.6267  1.4859  1.0498  0.8305  0.6560  0.6287  0.5917  0.5917  0.3858
  0.3858

 Free energy of the ion-electron system (eV)
  ---------------------------------------------------
  alpha Z        PSCENC =       133.85942725
  Ewald energy   TEWEN  =     -7187.40085510
  -Hartree energ DENC   =     -3667.03068882
  -exchange      EXHF   =         0.00000000
  -V(xc)+E(xc)   XCENC  =      -431.16927768
  PAW double counting   =     55993.45561343   -55056.03126975
  entropy T*S    EENTRO =        -0.12977956
  eigenvalues    EBANDS =      -522.62219868
  atomic energy  EATOM  =      9800.67782177
  Solvation  Ediel_sol  =         0.00000000
  ---------------------------------------------------
  free energy    TOTEN  =      -936.39120714 eV

  energy without entropy =     -936.26142758  energy(sigma->0) =     -936.32631736


--------------------------------------------------------------------------------------------------------




--------------------------------------- Iteration      1(  13)  ---------------------------------------


    POTLOK:  cpu time      0.7490: real time      0.7739
    SETDIJ:  cpu time      1.3658: real time      1.3670
    EDDIAG:  cpu time     23.0765: real time     23.0988
     EDDAV:  cpu time    113.2800: real time    113.3927
       DOS:  cpu time      0.0035: real time      0.0035
    CHARGE:  cpu time      9.9747: real time      9.9844
    MIXING:  cpu time      0.0178: real time      0.0178
    --------------------------------------------
      LOOP:  cpu time    148.4673: real time    148.6381

 eigenvalue-minimisations  :  4360
 total energy-change (2. order) :-0.1206561E-04  (-0.1133495E-05)
 number of electron     384.9999999 magnetization 
 augmentation part      -20.6731355 magnetization 

 Broyden mixing:
  rms(total) = 0.58910E-03    rms(broyden)= 0.72745E-02
  rms(prec ) = 0.10823E-02
  weight for this iteration     100.00
  WARNING: grid for Broyden might be to small

 eigenvalues of (default mixing * dielectric matrix)
  average eigenvalue GAMMA=   1.1543
  3.3691  2.6227  1.8567  1.1251  0.9864  0.7577  0.3858  0.3858  0.6480  0.6206
  0.5647  0.5291

 Free energy of the ion-electron system (eV)
  ---------------------------------------------------
  alpha Z        PSCENC =       133.85942725
  Ewald energy   TEWEN  =     -7187.40085510
  -Hartree energ DENC   =     -3666.98387654
  -exchange      EXHF   =         0.00000000
  -V(xc)+E(xc)   XCENC  =      -431.17607114
  PAW double counting   =     55992.90532544   -55055.48081889
  entropy T*S    EENTRO =        -0.12989746
  eigenvalues    EBANDS =      -522.66227453
  atomic energy  EATOM  =      9800.67782177
  Solvation  Ediel_sol  =         0.00000000
  ---------------------------------------------------
  free energy    TOTEN  =      -936.39121921 eV

  energy without entropy =     -936.26132175  energy(sigma->0) =     -936.32627048


--------------------------------------------------------------------------------------------------------




--------------------------------------- Iteration      1(  14)  ---------------------------------------


    POTLOK:  cpu time      0.7789: real time      0.7798
    SETDIJ:  cpu time      1.3656: real time      1.3661
    EDDIAG:  cpu time     23.1194: real time     23.1383
     EDDAV:  cpu time    108.5051: real time    108.6046
       DOS:  cpu time      0.0051: real time      0.0051
    CHARGE:  cpu time      9.9568: real time      9.9661
    MIXING:  cpu time      0.0175: real time      0.0175
    --------------------------------------------
      LOOP:  cpu time    143.7483: real time    143.8775

 eigenvalue-minimisations  :  4040
 total energy-change (2. order) :-0.9580479E-05  (-0.1474407E-05)
 number of electron     384.9999999 magnetization 
 augmentation part      -20.6731692 magnetization 

 Broyden mixing:
  rms(total) = 0.17605E-03    rms(broyden)= 0.64045E-02
  rms(prec ) = 0.32733E-03
  weight for this iteration     100.00
  WARNING: grid for Broyden might be to small

 eigenvalues of (default mixing * dielectric matrix)
  average eigenvalue GAMMA=   1.1864
[...]
   0.236E+02 0.468E+02 -.438E+02   -.252E+02 -.464E+02 0.409E+02   0.185E+01 0.306E-02 0.312E+01   0.280E-04 0.711E-04 0.344E-04
   -.118E+03 -.290E+02 -.652E+01   0.119E+03 0.301E+02 0.508E+01   -.910E+00 -.114E+01 0.810E+00   -.199E-04 -.145E-03 0.179E-04
   -.250E+02 -.139E+02 -.909E+01   0.224E+02 0.153E+02 0.850E+01   0.312E+01 -.275E+01 0.238E-01   -.161E-03 0.813E-04 0.149E-04
   -.385E+02 0.143E+02 -.226E+01   0.391E+02 -.155E+02 0.234E+01   0.503E-01 0.186E+01 -.775E+00   -.138E-03 0.166E-03 -.154E-03
   0.472E+02 -.199E+02 -.121E+01   -.465E+02 0.206E+02 0.176E+01   -.163E+01 -.861E+00 -.757E+00   -.205E-04 0.116E-03 0.282E-04
   -.907E+02 -.135E+02 0.100E+02   0.882E+02 0.134E+02 -.828E+01   0.190E+01 -.499E+00 -.260E+01   -.369E-04 -.101E-03 0.516E-05
   0.109E+02 -.166E+02 -.212E+02   -.110E+02 0.149E+02 0.191E+02   0.566E+00 0.150E+01 0.413E+01   -.218E-03 -.115E-03 0.572E-04
   0.962E+02 0.428E+02 -.470E+02   -.964E+02 -.443E+02 0.472E+02   0.358E+00 0.217E+01 0.373E+00   0.899E-05 -.554E-04 0.387E-05
   0.574E+02 -.157E+02 -.650E+01   -.565E+02 0.147E+02 0.641E+01   -.364E+00 0.962E+00 -.313E-01   -.154E-03 -.209E-03 -.833E-04
   0.423E+02 0.204E+02 -.275E+02   -.419E+02 -.196E+02 0.250E+02   -.245E+00 -.237E+01 0.418E+01   -.130E-06 0.195E-03 0.594E-04
   0.240E+02 -.143E+01 0.977E+01   -.221E+02 0.164E+01 -.102E+02   -.209E+01 -.811E+00 -.737E+00   -.879E-04 -.133E-03 0.361E-04
   -.126E+02 -.841E+02 0.301E+02   0.145E+02 0.823E+02 -.262E+02   -.267E+01 0.189E+01 -.397E+01   0.220E-03 0.160E-03 0.112E-03
   0.920E+02 -.799E+02 -.136E+02   -.939E+02 0.800E+02 0.156E+02   0.790E+00 -.208E+00 -.266E+01   -.967E-04 -.925E-04 0.796E-04
   -.356E+02 -.284E+02 0.293E+01   0.332E+02 0.277E+02 -.249E+01   0.247E+01 0.524E+00 -.221E-01   -.180E-03 0.554E-04 -.872E-05
   0.370E+02 -.598E+01 0.134E+02   -.362E+02 0.535E+01 -.103E+02   -.611E+00 0.110E+01 -.344E+01   -.492E-05 0.163E-03 0.226E-04
   -.684E+02 -.520E+00 -.108E+02   0.685E+02 0.550E-01 0.100E+02   -.106E+01 0.370E-01 0.135E+01   -.147E-03 -.171E-03 0.753E-04
   0.542E+02 0.536E+02 -.372E+00   -.571E+02 -.555E+02 -.143E+01   0.182E+01 0.201E+01 0.237E+01   0.938E-04 0.141E-04 0.699E-04
   -.602E+02 0.414E+02 0.134E+02   0.606E+02 -.414E+02 -.141E+02   -.722E+00 0.402E+00 -.145E+00   -.784E-04 0.138E-03 0.210E-03
   -.328E+01 0.754E+02 0.495E+02   0.176E+01 -.778E+02 -.486E+02   0.179E+01 0.281E+01 -.296E+00   0.724E-04 0.229E-03 0.101E-03
   -.497E+02 0.162E+02 0.826E+00   0.490E+02 -.176E+02 -.103E+00   0.146E+01 0.123E+01 -.944E-01   -.178E-03 -.136E-03 -.819E-04
   0.496E+02 -.157E+01 0.820E+01   -.496E+02 0.535E+00 -.559E+01   -.964E-01 0.115E+01 -.206E+01   -.474E-04 -.168E-03 0.135E-04
   -.104E+02 0.682E+01 -.198E+01   0.998E+01 -.564E+01 0.914E+00   0.135E+00 -.352E+00 0.732E+00   -.182E-03 -.815E-04 -.173E-04
   -.155E+00 -.348E+01 0.191E+02   0.834E+00 0.543E+01 -.176E+02   -.196E+01 -.286E+01 -.235E+01   -.106E-03 0.750E-04 -.166E-04
   -.470E+02 0.206E+02 -.723E+00   0.454E+02 -.204E+02 0.198E+01   0.165E+01 0.236E+00 -.126E+01   -.277E-04 0.202E-03 0.513E-05
   -.299E+01 0.132E+02 0.770E+00   0.223E+01 -.154E+02 0.266E+00   0.151E+01 0.236E+01 -.838E+00   -.941E-04 -.346E-04 0.125E-04
   0.100E+03 0.197E+02 -.900E+01   -.994E+02 -.183E+02 0.804E+01   -.152E+01 -.119E+01 0.441E+00   0.210E-04 -.234E-03 0.118E-03
   -.654E+01 0.271E+02 -.938E+01   0.835E+01 -.256E+02 0.935E+01   -.220E+01 -.278E+01 0.330E+00   -.235E-04 0.876E-04 -.212E-04
   0.943E+02 0.386E+02 0.257E+01   -.908E+02 -.379E+02 -.267E+01   -.312E+01 -.170E+01 -.380E+00   0.823E-05 -.122E-03 -.502E-04
   -.457E+02 -.363E+02 0.224E+02   0.459E+02 0.352E+02 -.209E+02   -.557E+00 0.115E+01 -.259E+01   -.410E-04 -.663E-04 -.108E-05
   -.131E+02 0.125E+02 -.270E+02   0.151E+02 -.158E+02 0.268E+02   -.246E+01 0.272E+01 0.105E+01   -.751E-05 0.373E-04 -.104E-03
   -.101E+02 0.258E+01 -.218E+02   0.131E+02 -.252E+01 0.218E+02   -.414E+01 -.102E+01 0.501E+00   0.109E-03 0.161E-03 0.256E-04
   -.252E+02 -.396E+01 0.284E+02   0.259E+02 0.368E+01 -.281E+02   0.180E+00 -.993E-02 0.232E+00   0.420E-04 0.158E-03 -.179E-05
 -----------------------------------------------------------------------------------------------
   0.112E+02 -.221E+02 0.579E+01   -.188E-12 -.272E-12 -.178E-13   -.112E+02 0.221E+02 -.579E+01   -.291E-02 0.332E-02 0.637E-03


 POSITION                                       TOTAL-FORCE (eV/Angst)
 -----------------------------------------------------------------------------------
      1.49691      1.49448      1.67366         0.575659      0.899003     -0.443580
      3.28933      2.00525      9.90398         0.387549      0.460365     -0.700314
      0.85643      1.90631      9.94574         0.026930     -0.124759     -0.753628
     13.90550      2.28468      3.70041        -0.320068      0.344015      0.465673
     12.32810      0.27467      3.73678         0.454310     -0.232824     -0.111788
      7.24778      5.71063      6.53119         0.359437     -0.514971     -0.142092
     12.28770     13.87120      6.62398        -0.474404      0.238858     -0.168189
      2.06534     12.44180      2.57478        -0.079314      0.280086      0.154658
     13.88060      1.21259      1.05704        -1.242240      1.055117     -0.415200
      9.11313      7.60255      5.31017         0.737675      0.544496     -0.732170
      0.73783      6.65093      7.26260         0.811012      0.304420      0.832284
      5.39075     12.47780     10.54270        -0.072482     -0.054880      0.770669
      5.53843      4.34222      0.02149         0.504032     -0.846636     -0.609968
      5.12625     11.94880      1.96918        -1.613691     -0.173142     -0.873914
     10.89340     10.96930      2.83135         0.309024     -0.314697      0.886608
     12.86080      2.47041      1.00664         1.529066     -1.110772      0.692921
      6.56848      9.88917      5.94369         0.225570     -0.030155     -0.831747
      8.79674      9.65108     10.50000         0.215954      1.513741      1.085017
     12.20740      9.51889      1.48456         1.045423      0.393569     -0.014439
      1.98330      5.14972      8.82932         0.626164     -0.819687     -0.425792
      8.33026     13.06610      1.20859         0.953171      0.929423     -1.131210
      2.62884      9.39217      5.09047         1.278876      0.044853      0.664908
      0.14351      6.98154      5.02211         0.585417     -1.484823     -1.555239
      4.48023      4.86760      7.92690        -0.539221      0.050330     -0.189230
     11.08940      0.28970      6.71955         0.614166     -0.702220      0.013935
     12.80990      6.11538      0.19082        -0.193143     -0.432111     -0.576328
     11.14130      9.29889     10.44930        -0.174872      0.937302     -0.211040
      4.64704     10.81030      8.96556        -1.331338      0.333148     -0.012211
      7.26498      6.26445      5.13581        -0.681915      0.295428      0.304661
      8.94241      6.17255      0.52704        -0.555644     -0.479607     -0.128849
      6.48258      2.78033      4.73160         0.257819      0.572253     -0.138593
      4.47913      7.23442      7.68978         0.145945      0.186139      0.106712
     11.06180      0.10210      3.01108        -0.527895      1.708102      0.843733
      6.58055      4.39292      8.97582         0.411767      0.911918     -0.086969
      8.29168      6.17829      9.25152         1.119847     -0.300888     -0.227656
     10.75330      2.15157      1.87170         0.332787     -0.160352      0.512847
     11.67020     11.06850      8.94182         1.360293     -0.206507      0.913910
      2.25367      2.77052      1.14616        -0.281669     -0.660034      0.075242
     14.05350      8.09268      8.64956        -0.178108     -1.085754      1.374004
      8.73202      2.46466      0.91568        -0.390445      0.325278     -1.353982
     13.35180      3.53955      3.08130         1.408701      0.239185     -0.372096
      9.53758      2.12218      9.61510         0.042491      0.286721      0.278090
      4.90060      2.90339      6.46960        -1.224190     -0.269028     -0.413204
      7.14229     10.08840      3.63075        -1.233843      0.348066      0.308059
     11.92400      2.42468      6.71060        -0.357988      1.424603      0.458401
      7.44997      4.50749      1.38873         0.503607     -0.455484      0.365467
      8.56159     12.82710      8.22468         0.361739      0.706522     -0.254480
      7.68656     12.01680     10.26340         0.901817     -0.921742      0.479048
      5.63345      8.68655      9.25625         0.670563     -0.096084      0.309911
      5.72102      0.49613     10.51610        -0.068596     -0.614433      0.056994
      5.08335      9.57069      2.42420         1.005853     -0.426977     -0.240046
     11.52070      7.87040      2.83626        -0.729912     -0.056840      0.926159
      2.16971      6.54423     10.70530        -0.396275      0.915570      0.526201
      2.19311     10.01940      9.01528        -0.040673      0.502297     -1.200267
      2.44583      8.35586      7.32513        -0.103947      0.152076     -0.389125
      1.09263      8.73299     10.57010         0.081765     -0.707898     -0.157526
      5.19452     11.57010      6.77114         0.694816      0.713189      0.409551
      6.36289      4.81658      3.51898        -0.002733      0.298545     -0.423760
      0.53884      5.27006      3.19699        -0.839707     -0.243072      0.670424
      5.56977      7.75269      5.73991         0.705930      0.568253     -0.150181
     13.93230     10.18170      7.93642         0.000619      1.605231     -0.721314
     13.27390      3.99355     10.46060        -0.661191     -0.395315     -0.948128
      7.56764     13.90690      4.67982        -1.164609     -1.173701      0.196800
      8.10744      8.21849      1.09298         0.352588      0.367859      1.008006
     10.61660      5.85189      8.28118        -0.693013     -0.907439      0.452147
      3.33964     12.84470      3.23570         0.495277     -0.484860      0.497106
      0.27990      6.57361      1.20714         0.506324     -0.204529      0.706490
      4.20133      7.90066      3.92658        -1.067666      1.208244     -0.247766
      0.05128      8.87942      1.76583        -0.256210      0.159771     -0.673067
     11.65350     11.47390      5.13124        -0.255726     -0.217610     -0.107315
     13.34340      9.83462      5.57010        -0.447712      0.700063      0.353195
      2.55334      4.05832      3.07664         0.288774      0.397643      0.369999
     11.50280     13.06540     10.37620         0.021067     -0.192922     -0.650212
      9.18815      9.21355      3.18871         0.630853     -1.459761     -0.593385
     10.44580      3.81401      5.42361         0.679203      0.729973     -0.743761
      5.83880      8.25523      0.56369        -1.035809     -0.275727     -0.257733
     10.64180     12.93980      1.59102        -0.485941     -0.588937     -0.979289
      7.15583     12.27780      2.89520         0.435974     -0.167318      2.241567
      3.17097      2.29588      4.68099         0.423834      0.795201      0.489959
      6.58105     13.57370      6.91974         0.493191      0.010906     -0.130895
      4.19220      5.89513      2.71274         0.208392     -1.673316      1.897624
      7.33558      0.69734      1.32679        -0.316037     -0.660509     -1.168558
      0.62808      9.11091      4.13479        -0.980455      0.121497     -0.257025
      3.40511     11.63770      5.37888        -0.938230     -0.194685     -0.931541
      8.68348      9.39211      6.75917         0.123554     -0.156808      0.440084
      4.37679      6.30212      0.52151         0.166474      0.479418     -0.493915
     10.31650     14.49800      8.90049        -1.057539     -0.430097      0.571653
      4.27327      2.26138     10.99980        -1.038016      0.147134      0.604378
     11.47720      3.51252      8.89184        -0.325390      0.452144     -0.844140
      0.97045      3.37041     10.13440         0.321872      0.449162      0.596055
      9.57325      0.38448      4.88629         0.751050     -0.106801      0.666152
      6.28716      0.83103      3.43265        -0.075330      0.176846      0.491403
      8.61102      2.42205      5.81367        -0.310553      0.817394     -0.306406
      8.01253      8.50843      8.80241        -1.406580     -1.058414     -0.960540
     10.82810      6.13670      5.96934         0.130048      0.445455     -0.052370
      7.75113      2.47344      8.07450         0.799901      0.263678      0.160604
      4.05653      0.45747      3.65335        -0.549736      0.196081     -0.444397
     11.02670      6.00760      1.65429        -0.489730     -1.402220      0.334174
      5.86492      1.16493      8.10249         0.310075     -1.020225     -0.501203
     10.14730     11.21870      7.20620        -0.368679      0.063226     -1.125846
     11.13530      4.09033      3.11221        -0.484525     -0.446076      0.925762
     12.53020      7.67963      4.96800        -1.272408     -1.040813      0.472459
     11.91450      7.37722      9.43285         0.951151     -0.285338      0.611915
 -----------------------------------------------------------------------------------
    total drift:                                0.008687     -0.000959      0.004704


--------------------------------------------------------------------------------------------------------



  FREE ENERGIE OF THE ION-ELECTRON SYSTEM (eV)
  ---------------------------------------------------
  free  energy   TOTEN  =      -936.39123422 eV

  energy  without entropy=     -936.26137580  energy(sigma->0) =     -936.32630501



--------------------------------------------------------------------------------------------------------


    POTLOK:  cpu time      2.0977: real time      2.0987


--------------------------------------------------------------------------------------------------------


     LOOP+:  cpu time   2668.2070: real time   2670.8752
    4ORBIT:  cpu time      0.0000: real time      0.0000



 total charge

# of ion       s       p       d       tot
------------------------------------------
    1        0.529   0.012   0.000   0.542
    2        0.570   0.016   0.000   0.586
    3        0.567   0.016   0.000   0.584
    4        0.556   0.015   0.000   0.571
    5        0.571   0.017   0.000   0.588
    6        0.560   0.016   0.000   0.576
    7        0.544   0.014   0.000   0.558
    8        0.562   0.015   0.000   0.577
    9        0.515   0.011   0.000   0.526
   10        0.763   0.897   0.000   1.660
   11        0.748   0.911   0.000   1.659
   12        0.757   0.857   0.000   1.614
   13        0.750   0.930   0.000   1.680
   14        0.763   0.900   0.000   1.662
   15        0.762   0.876   0.000   1.638
   16        0.748   0.963   0.000   1.712
   17        0.759   0.945   0.000   1.704
   18        0.756   0.954   0.000   1.710
   19        0.751   0.945   0.000   1.697
   20        0.762   0.833   0.000   1.595
   21        0.755   0.978   0.000   1.734
   22        0.758   0.907   0.000   1.665
   23        0.755   0.927   0.000   1.682
   24        0.750   0.856   0.000   1.606
   25        0.745   0.956   0.000   1.700
   26        0.754   0.971   0.000   1.724
   27        0.748   0.939   0.000   1.687
   28        0.757   0.873   0.000   1.630
   29        0.746   0.994   0.000   1.741
   30        0.750   0.938   0.000   1.688
   31        0.758   0.919   0.000   1.678
   32        0.750   0.945   0.000   1.695
   33        0.742   0.980   0.000   1.722
   34        0.754   0.895   0.000   1.649
   35        0.757   0.861   0.000   1.618
   36        0.749   0.995   0.000   1.744
   37        0.753   0.876   0.000   1.630
   38        0.750   0.901   0.000   1.651
   39        0.761   0.924   0.000   1.685
   40        0.747   0.939   0.000   1.686
   41        0.742   0.967   0.000   1.709
   42        0.753   0.868   0.000   1.621
   43        0.764   0.826   0.000   1.590
   44        0.770   0.934   0.000   1.704
   45        0.797   0.848   0.000   1.645
   46        0.750   0.904   0.000   1.654
   47        0.757   0.859   0.000   1.616
   48        0.753   0.899   0.000   1.652
   49        0.754   0.899   0.000   1.653
   50        0.760   0.843   0.000   1.603
   51        0.759   0.891   0.000   1.649
   52        0.781   0.907   0.000   1.688
   53        0.748   0.910   0.000   1.658
   54        0.784   0.822   0.000   1.606
   55        0.757   0.908   0.000   1.665
   56        0.766   0.856   0.000   1.622
   57        0.743   0.940   0.000   1.684
   58        0.751   0.894   0.000   1.644
   59        0.749   0.893   0.000   1.643
   60        0.759   0.984   0.000   1.743
   61        0.786   0.834   0.000   1.620
   62        0.748   0.978   0.000   1.726
   63        0.753   0.940   0.000   1.693
   64        0.761   0.939   0.000   1.700
   65        0.755   0.887   0.000   1.642
   66        0.734   0.946   0.000   1.681
   67        0.752   0.924   0.000   1.676
   68        0.755   0.930   0.000   1.684
   69        0.752   0.862   0.000   1.615
   70        0.802   0.787   0.000   1.589
   71        0.759   0.880   0.000   1.638
   72        0.747   0.896   0.000   1.642
   73        0.779   0.827   0.000   1.606
   74        0.752   0.877   0.000   1.629
   75        0.751   0.900   0.000   1.651
   76        0.749   0.915   0.000   1.664
   77        0.747   0.952   0.000   1.699
   78        0.757   0.998   0.000   1.755
   79        0.786   0.821   0.000   1.607
   80        0.752   0.849   0.000   1.601
   81        0.757   0.914   0.000   1.671
   82        0.754   0.925   0.000   1.679
   83        0.759   0.924   0.000   1.682
   84        0.788   0.865   0.000   1.653
   85        0.754   0.952   0.000   1.706
   86        0.752   0.953   0.000   1.704
   87        0.750   0.900   0.000   1.650
   88        0.744   0.946   0.000   1.689
   89        0.756   0.838   0.000   1.594
   90        0.743   0.926   0.000   1.669
   91        0.751   0.929   0.000   1.680
   92        0.751   0.968   0.000   1.719
   93        0.757   0.898   0.000   1.655
   94        0.758   0.970   0.000   1.728
   95        0.750   0.917   0.000   1.667
   96        0.752   0.922   0.000   1.673
   97        0.771   0.909   0.000   1.680
   98        0.750   0.957   0.000   1.707
   99        0.759   0.852   0.000   1.611
  100        0.749   0.880   0.000   1.629
  101        0.753   0.944   0.000   1.697
  102        0.765   0.911   0.000   1.676
  103        0.754   0.955   0.000   1.709
--------------------------------------------------
tot         76.085  85.668   0.000 161.753


 total amount of memory used by VASP MPI-rank0   198115. kBytes
=======================================================================

   base                                    :      30000. kBytes
   nonl-proj                               :      36916. kBytes
   fftplans                                :      42986. kBytes
   grid                                    :      33148. kBytes
   one-center                              :         21. kBytes
   wavefun                                 :      55044. kBytes

  
  
 General timing and accounting informations for this job:
 ========================================================
  
                  Total CPU time used (sec):     2738.861
                            User time (sec):     2730.301
                          System time (sec):        8.560
                         Elapsed time (sec):     2742.171
  
                   Maximum memory used (kb):      369048.
                   Average memory used (kb):          N/A
  
                          Minor page faults:       316186
                          Major page faults:         1136
                 Voluntary context switches:         2452
