 vasp.6.5.0 16Dec24 (build Jan 20 2025 08:32:48) complex                         
 executed on        HPECrayEX_GCC date 2025.07.28  15:44:06
 running  128 mpi-ranks, with    1 threads/rank, on    1 nodes
 distrk:  each k-point on  128 cores,    1 groups
 distr:  one band on NCORE=  16 cores,    8 groups


--------------------------------------------------------------------------------------------------------


 INCAR:
   SYSTEM = a-Si SPC
   NCORE = 16
   ISTART = 1
   ICHARG = 1
   ISPIN = 1
   ISYM = 1
   EDIFF = 1E-6
   NELM = 150
   EDIFFG = -0.01
   NSW = 0
   ISIF = 2
   IBRION = -1
   PREC = Accurate
   ENCUT = 1200
   KSPACING = 0.23
   KGAMMA = .TRUE.
   METAGGA = SCAN
   LASPH = .TRUE.
   LDIAG = .FALSE.
   LMIXTAU = .TRUE.
   ADDGRID = .TRUE.
   ALGO = Normal
   ISMEAR = 0
   SIGMA = 0.1
   LORBIT = 11
   NEDOS = 2000
   LWAVE = .FALSE.
   LCHARG = .FALSE.

 POTCAR:    PAW_PBE H 15Jun2001                   
 POTCAR:    PAW_PBE Si 05Jan2001                  
 POTCAR:    PAW_PBE H 15Jun2001                   
   SHA256 =  030f79b5d3ab3cf0e668861823c8fb652ff669f3e15e46930bd03bfd63a607b6 H/POTCAR              
   COPYR  = (c) Copyright 15Jun2001 Georg Kresse                                                    
   COPYR  = This file is part of the software VASP. Any use, copying, and all other rights are regul
   COPYR  = If you do not have a valid VASP license, you may not use, copy or distribute this file. 
   VRHFIN =H: ultrasoft test                                                                        
   LEXCH  = PE                                                                                      
   EATOM  =    12.4884 eV,    0.9179 Ry                                                             
                                                                                                    
   TITEL  = PAW_PBE H 15Jun2001                                                                     
   LULTRA =        F    use ultrasoft PP ?                                                          
   IUNSCR =        0    unscreen: 0-lin 1-nonlin 2-no                                               
   RPACOR =    0.000    partial core radius                                                         
   POMASS =    1.000; ZVAL   =    1.000    mass and valenz                                          
   RCORE  =    1.100    outmost cutoff radius                                                       
   RWIGS  =    0.700; RWIGS  =    0.370    wigner-seitz radius (au A)                               
   ENMAX  =  250.000; ENMIN  =  200.000 eV                                                          
   RCLOC  =    0.701    cutoff for local pot                                                        
   LCOR   =        T    correct aug charges                                                         
   LPAW   =        T    paw PP                                                                      
   EAUG   =  400.000                                                                                
   RMAX   =    1.123    core radius for proj-oper                                                   
   RAUG   =    1.200    factor for augmentation sphere                                              
   RDEP   =    1.112    radius for radial grids                                                     
   RDEPT  =    0.926    core radius for aug-charge                                                  
                                                                                                    
   Atomic configuration                                                                             
    2 entries                                                                                       
     n  l   j            E        occ.                                                              
     1  0  0.50        -6.4927   1.0000                                                             
     2  1  0.50        -3.4015   0.0000                                                             
   Description                                                                                      
     l       E           TYP  RCUT    TYP  RCUT                                                     
     0     -6.4927494     23  1.100                                                                 
     0      6.8029130     23  1.100                                                                 
     1     -4.0817478     23  1.100                                                                 
  local pseudopotential read in
  atomic valenz-charges read in
  non local Contribution for L=           0  read in
    real space projection operators read in
  non local Contribution for L=           0  read in
    real space projection operators read in
  non local Contribution for L=           1  read in
    real space projection operators read in
    PAW grid and wavefunctions read in

   number of l-projection  operators is LMAX  =           3
   number of lm-projection operators is LMMAX =           5

 POTCAR:    PAW_PBE Si 05Jan2001                  
   SHA256 =  79d9987ad8750f624c4d6acb2a16d13abf6a777132adc04dc6c8399be72b42bb Si/POTCAR             
   COPYR  = (c) Copyright 05Jan2001 Georg Kresse                                                    
   COPYR  = This file is part of the software VASP. Any use, copying, and all other rights are regul
   COPYR  = If you do not have a valid VASP license, you may not use, copy or distribute this file. 
   VRHFIN =Si: s2p2                                                                                 
   LEXCH  = PE                                                                                      
   EATOM  =   103.0669 eV,    7.5752 Ry                                                             
                                                                                                    
   TITEL  = PAW_PBE Si 05Jan2001                                                                    
   LULTRA =        F    use ultrasoft PP ?                                                          
   IUNSCR =        1    unscreen: 0-lin 1-nonlin 2-no                                               
   RPACOR =    1.500    partial core radius                                                         
   POMASS =   28.085; ZVAL   =    4.000    mass and valenz                                          
   RCORE  =    1.900    outmost cutoff radius                                                       
   RWIGS  =    2.480; RWIGS  =    1.312    wigner-seitz radius (au A)                               
   ENMAX  =  245.345; ENMIN  =  184.009 eV                                                          
   ICORE  =        2    local potential                                                             
   LCOR   =        T    correct aug charges                                                         
   LPAW   =        T    paw PP                                                                      
   EAUG   =  322.069                                                                                
   DEXC   =    0.000                                                                                
   RMAX   =    1.950    core radius for proj-oper                                                   
   RAUG   =    1.300    factor for augmentation sphere                                              
   RDEP   =    1.993    radius for radial grids                                                     
   RDEPT  =    1.837    core radius for aug-charge                                                  
                                                                                                    
   Atomic configuration                                                                             
    6 entries                                                                                       
     n  l   j            E        occ.                                                              
     1  0  0.50     -1785.8828   2.0000                                                             
     2  0  0.50      -139.4969   2.0000                                                             
     2  1  1.50       -95.5546   6.0000                                                             
     3  0  0.50       -10.8127   2.0000                                                             
     3  1  0.50        -4.0811   2.0000                                                             
     3  2  1.50        -4.0817   0.0000                                                             
   Description                                                                                      
     l       E           TYP  RCUT    TYP  RCUT                                                     
     0    -10.8127223     23  1.900                                                                 
     0     -7.6451159     23  1.900                                                                 
     1     -4.0811372     23  1.900                                                                 
     1      2.4879257     23  1.900                                                                 
     2     -4.0817478      7  1.900                                                                 
  local pseudopotential read in
  partial core-charges read in
  partial kinetic energy density read in
  atomic valenz-charges read in
  non local Contribution for L=           0  read in
    real space projection operators read in
  non local Contribution for L=           0  read in
    real space projection operators read in
  non local Contribution for L=           1  read in
    real space projection operators read in
  non local Contribution for L=           1  read in
    real space projection operators read in
    PAW grid and wavefunctions read in

   number of l-projection  operators is LMAX  =           4
   number of lm-projection operators is LMMAX =           8

 -----------------------------------------------------------------------------
|                                                                             |
|               ----> ADVICE to this user running VASP <----                  |
|                                                                             |
|     You have a (more or less) 'large supercell' and for larger cells it     |
|     might be more efficient to use real-space projection operators.         |
|     Therefore, try LREAL= Auto in the INCAR file.                           |
|     Mind: For very accurate calculation, you might also keep the            |
|     reciprocal projection scheme (i.e. LREAL=.FALSE.).                      |
|                                                                             |
 -----------------------------------------------------------------------------

 -----------------------------------------------------------------------------
|                                                                             |
|               ----> ADVICE to this user running VASP <----                  |
|                                                                             |
|     You enforced a specific xc type in the INCAR file but a different       |
|     type was found in the POTCAR file.                                      |
|     I HOPE YOU KNOW WHAT YOU ARE DOING!                                     |
|                                                                             |
 -----------------------------------------------------------------------------

  PAW_PBE H 15Jun2001                   :
 energy of atom  1       EATOM=  -12.4884
 kinetic energy error for atom=    0.0000 (will be added to EATOM!!)
  PAW_PBE Si 05Jan2001                  :
 energy of atom  2       EATOM= -103.0669
 kinetic energy error for atom=    0.0001 (will be added to EATOM!!)


 POSCAR:  H Si
  positions in cartesian coordinates
  No initial velocities read in


 exchange-correlation table for SCAN
   RHO(1)=    0.500       N(1)  =     2000
   RHO(2)=  100.500       N(2)  =     4000



--------------------------------------------------------------------------------------------------------


 ion  position               nearest neighbor table
   1  0.452  0.777  0.447-  95 1.51
   2  0.412  0.494  0.399-  21 1.50
   3  0.556  0.472  0.606-  15 1.70  97 1.80
   4  0.474  0.061  0.561-  13 1.64  73 1.64
   5  0.765  0.096  0.493-  75 1.51
   6  0.220  0.151  0.559-  93 1.51
   7  0.035  0.282  0.471-  26 1.53
   8  0.578  0.481  0.509-  24 1.50
   9  0.520  0.651  0.317-  67 1.48
  10  0.429  0.234  0.647-  29 2.30  63 2.31  44 2.37  13 3.13
  11  0.773  0.644  0.424-  88 2.36  12 2.43  76 2.44  14 2.44
  12  0.754  0.659  0.509-  38 2.33  45 2.33  92 2.42  11 2.43
  13  0.377  0.117  0.558-   4 1.64  30 2.34  52 2.35  44 2.36  73 2.68  10 3.13
  14  0.656  0.747  0.392-  61 2.32  67 2.34  16 2.39  11 2.44
  15  0.642  0.393  0.609-   3 1.70  74 2.31  29 2.33  49 2.55
  16  0.611  0.899  0.369-  40 2.31  14 2.39  61 2.98
  17  0.381  0.550  0.527-  24 2.30  27 2.31  48 2.38  97 2.38
  18  0.126  0.635  0.524-  46 2.33  34 2.34  58 2.35  48 2.35
  19  0.195  0.459  0.438-  31 2.34  34 2.35  27 2.35  72 2.41
  20  0.044  0.905  0.603-  96 2.28  42 2.36  41 2.39
  21  0.508  0.524  0.410-   2 1.50  24 2.32  67 2.34  54 2.35
  22  0.800  0.251  0.431-  75 2.32  70 2.34  53 2.36  50 2.37
  23  0.268  0.709  0.427-  95 2.33  72 2.35  48 2.36  36 2.38
  24  0.521  0.558  0.489-   8 1.50  17 2.30  38 2.31  21 2.32
  25  0.427  0.652  0.632-  97 2.33  28 2.37  83 2.45
  26  0.124  0.226  0.469-   7 1.53  32 2.34  93 2.42  80 2.46  31 2.46
  27  0.304  0.424  0.497-  17 2.31  39 2.33  19 2.35  66 2.37
  28  0.272  0.700  0.624-  35 2.32  25 2.37  58 2.45
  29  0.567  0.251  0.608-  10 2.30  78 2.32  15 2.33  30 2.39
  30  0.480  0.233  0.537-  91 2.34  13 2.34  39 2.35  29 2.39
  31  0.178  0.316  0.400-  19 2.34  64 2.37  26 2.46  80 2.74
  32  0.081  0.075  0.450-  65 2.34  47 2.34  26 2.34  69 2.36
  33  0.670  0.837  0.607-  92 2.39  83 2.41  77 2.41
  34  0.064  0.527  0.472-  51 2.29  94 2.32  18 2.34  19 2.35
  35  0.289  0.800  0.560-  28 2.32  42 2.35  48 2.35  84 2.37
  36  0.228  0.866  0.415-  60 2.28  59 2.38  23 2.38  69 2.39  95 3.13
  37  0.893  0.029  0.388-  50 2.27  47 2.30  79 2.34
  38  0.597  0.687  0.517-  24 2.31  12 2.33  61 2.36  83 2.37
  39  0.404  0.307  0.474-  27 2.33  30 2.35  80 2.36  43 2.38
  40  0.656  0.047  0.388-  50 2.30  16 2.31  85 2.32
  41  0.945  0.783  0.578-  68 2.35  92 2.35  46 2.36  20 2.39
  42  0.152  0.879  0.542-  69 2.32  35 2.35  46 2.35  20 2.36
  43  0.476  0.281  0.399-  39 2.38  85 2.41  64 2.44  54 2.54
  44  0.358  0.088  0.640-  73 2.36  13 2.36  10 2.37
  45  0.809  0.514  0.531-  12 2.33  56 2.34  94 2.34  74 2.40  55 3.13
  46  0.045  0.771  0.513-  18 2.33  42 2.35  41 2.36  82 2.37
  47  0.047  0.042  0.371-  37 2.30  60 2.31  32 2.34
  48  0.280  0.674  0.508-  18 2.35  35 2.35  23 2.36  17 2.38
  49  0.804  0.403  0.644-  56 2.39  71 2.47  15 2.55
  50  0.783  0.136  0.372-  37 2.27  40 2.30  22 2.37
  51  0.040  0.604  0.402-  88 2.25  34 2.29  72 2.31
  52  0.322  0.059  0.486-  69 2.31  87 2.32  80 2.33  13 2.35
  53  0.665  0.304  0.467-  22 2.36  74 2.37  54 2.38  91 2.40
  54  0.607  0.397  0.405-  21 2.35  53 2.38  76 2.45  43 2.54
  55  0.982  0.412  0.571-  89 2.29  71 2.30  56 2.35  94 2.38  45 3.13
  56  0.884  0.523  0.604-  45 2.34  68 2.35  55 2.35  49 2.39
  57  0.745  0.899  0.494-  79 2.31  61 2.37  92 2.37  90 2.39
  58  0.132  0.614  0.607-  89 2.30  18 2.35  68 2.40  28 2.45
  59  0.367  0.905  0.376-  95 2.34  87 2.35  36 2.38
  60  0.080  0.891  0.391-  36 2.28  47 2.31  82 2.33
  61  0.620  0.812  0.465-  14 2.32  81 2.32  38 2.36  57 2.37  16 2.98
  62  0.795  0.238  0.563-  71 2.30  75 2.33  78 2.39  74 2.42
  63  0.358  0.366  0.618-  10 2.31  66 2.32  97 2.34
  64  0.318  0.250  0.375-  80 2.32  31 2.37  43 2.44
  65  0.955  0.048  0.500-  75 2.32  96 2.32  32 2.34  79 2.36
  66  0.236  0.363  0.566-  89 2.27  63 2.32  93 2.36  27 2.37
  67  0.526  0.663  0.369-   9 1.48  95 2.33  14 2.34  21 2.34
  68  0.975  0.652  0.624-  41 2.35  56 2.35  58 2.40
  69  0.192  0.969  0.478-  52 2.31  42 2.32  32 2.36  36 2.39
  70  0.884  0.387  0.418-  22 2.34  76 2.35  94 2.38
  71  0.913  0.291  0.610-  62 2.30  55 2.30  86 2.34  49 2.47
  72  0.195  0.590  0.385-  51 2.31  23 2.35  19 2.41
  73  0.474  0.994  0.608-   4 1.64  84 2.35  44 2.36  77 2.37  13 2.68
  74  0.718  0.376  0.537-  15 2.31  53 2.37  45 2.40  62 2.42
  75  0.844  0.162  0.495-   5 1.51  65 2.32  22 2.32  62 2.33
  76  0.753  0.481  0.408-  70 2.35  11 2.44  54 2.45
  77  0.636  0.998  0.599-  90 2.35  73 2.37  78 2.37  33 2.41
  78  0.691  0.150  0.611-  29 2.32  77 2.37  62 2.39
  79  0.880  0.934  0.454-  57 2.31  82 2.34  37 2.34  65 2.36
  80  0.289  0.201  0.452-  64 2.32  52 2.33  39 2.36  26 2.46  31 2.74
  81  0.514  0.920  0.491-  61 2.32  87 2.33  90 2.39  84 2.39
  82  0.979  0.811  0.439-  88 2.33  60 2.33  79 2.34  46 2.37
  83  0.535  0.748  0.588-  84 2.35  38 2.37  33 2.41  25 2.45
  84  0.438  0.866  0.560-  83 2.35  73 2.35  35 2.37  81 2.39
  85  0.527  0.126  0.414-  91 2.32  40 2.32  87 2.35  43 2.41
  86  0.033  0.184  0.606-  96 2.29  71 2.34  93 2.37
  87  0.432  0.002  0.434-  52 2.32  81 2.33  59 2.35  85 2.35
  88  0.915  0.694  0.393-  51 2.25  82 2.33  11 2.36
  89  0.125  0.457  0.595-  66 2.27  55 2.29  58 2.30
  90  0.638  0.016  0.517-  77 2.35  81 2.39  57 2.39  91 2.41
  91  0.588  0.163  0.487-  85 2.32  30 2.34  53 2.40  90 2.41
  92  0.790  0.795  0.555-  41 2.35  57 2.37  33 2.39  12 2.42
  93  0.151  0.227  0.553-   6 1.51  66 2.36  86 2.37  26 2.42
  94  0.933  0.445  0.493-  34 2.32  45 2.34  70 2.38  55 2.38
  95  0.411  0.757  0.400-   1 1.51  67 2.33  23 2.33  59 2.34  36 3.13
  96  0.984  0.042  0.580-  20 2.28  86 2.29  65 2.32
  97  0.436  0.503  0.603-   3 1.80  25 2.33  63 2.34  17 2.38

  LATTYP: Found a simple tetragonal cell.
 ALAT       =    14.5342042383
 C/A-ratio  =     1.9441376725
  
  Lattice vectors:
  
 A1 = (  14.5342042383,   0.0000000000,   0.0000000000)
 A2 = (   0.0000000000,  14.5342042383,   0.0000000000)
 A3 = (   0.0000000000,   0.0000000000,  28.2564940000)


Analysis of symmetry for initial positions (statically):
=====================================================================
 Subroutine PRICEL returns:
 Original cell was already a primitive cell.
 

 Routine SETGRP: Setting up the symmetry group for a 
 simple tetragonal supercell.


 Subroutine GETGRP returns: Found  1 space group operations
 (whereof  1 operations were pure point group operations)
 out of a pool of 16 trial point group operations.


The static configuration has the point symmetry C_1 .


Analysis of symmetry for dynamics (positions and initial velocities):
=====================================================================
 Subroutine PRICEL returns:
 Original cell was already a primitive cell.
 

 Routine SETGRP: Setting up the symmetry group for a 
 simple tetragonal supercell.


 Subroutine GETGRP returns: Found  1 space group operations
 (whereof  1 operations were pure point group operations)
 out of a pool of 16 trial point group operations.


The dynamic configuration has the point symmetry C_1 .


 Subroutine INISYM returns: Found  1 space group operations
 (whereof  1 operations are pure point group operations),
 and found     1 'primitive' translations


----------------------------------------------------------------------------------------

                                     Primitive cell                                     

  volume of cell :    5968.9892

  direct lattice vectors                    reciprocal lattice vectors
    14.534204238  0.000000000  0.000000000     0.068803216  0.000000000  0.000000000
     0.000000000 14.534204238  0.000000000     0.000000000  0.068803216  0.000000000
     0.000000000  0.000000000 28.256494000     0.000000000  0.000000000  0.035390095

  length of vectors
    14.534204238 14.534204238 28.256494000     0.068803216  0.068803216  0.035390095

  position of ions in fractional coordinates (direct lattice)
     0.452418447  0.777230319  0.447263842
     0.411544261  0.494025039  0.399412805
     0.555668641  0.471636834  0.606326161
     0.474402852  0.060830950  0.560926864
     0.764542404  0.095755873  0.492638722
     0.220357124  0.151445707  0.559111967
     0.035332585  0.281647984  0.470901500
     0.577730114  0.480504757  0.509445259
     0.520288016  0.650915671  0.317139935
     0.428722312  0.234225279  0.646836255
     0.773379729  0.644452120  0.424042626
     0.754064754  0.658758336  0.509090817
     0.376772491  0.116620740  0.557968007
     0.656420956  0.746893650  0.391833657
     0.642424272  0.392977681  0.608872865
     0.611260291  0.898713130  0.369007760
     0.380885903  0.549753949  0.527230353
     0.126192892  0.634518145  0.524239946
     0.195232704  0.459119276  0.437621302
     0.044305432  0.904748992  0.603461364
     0.507904050  0.524141565  0.409602837
     0.800486194  0.250919613  0.430529704
     0.267873356  0.708754718  0.427316629
     0.521008477  0.557805860  0.489487185
     0.426953876  0.652139234  0.632398116
     0.124414471  0.225876831  0.468501865
     0.304230518  0.424106112  0.496557161
     0.272127500  0.700454803  0.624270705
     0.567276466  0.250989295  0.608156303
     0.480245854  0.233088676  0.536921757
     0.178164516  0.316254659  0.400245430
     0.081157483  0.074841879  0.450269890
     0.669561227  0.836751761  0.607456038
     0.063719002  0.526730498  0.471558646
     0.288703753  0.799828745  0.560412808
     0.227614777  0.865551941  0.414757876
     0.892926076  0.029192822  0.387676052
     0.597203564  0.686906910  0.516729114
     0.404236214  0.306514074  0.474006392
     0.656302278  0.046969436  0.387956999
     0.945145057  0.783451206  0.578253110
     0.151846906  0.878958996  0.542357914
     0.476340416  0.281410707  0.399371541
     0.358182790  0.088184462  0.639773140
     0.808829627  0.514156710  0.531373579
     0.045451107  0.771112206  0.512864723
     0.047071425  0.041742108  0.371199594
     0.280092362  0.673516884  0.508454607
     0.803647880  0.402767851  0.644147609
     0.783208044  0.135618515  0.371674892
     0.039878066  0.603528461  0.401850038
     0.322355957  0.058950763  0.485659462
     0.664951693  0.304027609  0.467202267
     0.607296718  0.397194128  0.404568758
     0.981871204  0.411912407  0.571244831
     0.884225617  0.523409065  0.604259192
     0.745058975  0.898895623  0.493985783
     0.131834908  0.613710929  0.606507782
     0.367118395  0.905121213  0.375808519
     0.080319746  0.890716406  0.390524041
     0.619940946  0.811918518  0.464535828
     0.794547693  0.237598057  0.563162473
     0.358452574  0.365613507  0.618432572
     0.318489351  0.249607564  0.374995901
     0.954945582  0.047679624  0.499525695
     0.235989463  0.363064572  0.566048943
     0.526210177  0.663432597  0.368885471
     0.974929772  0.651617986  0.623585656
     0.191821821  0.969041330  0.477655907
     0.883505419  0.386861706  0.418084366
     0.912630539  0.290690619  0.609835039
     0.195196722  0.589912160  0.385370427
     0.474238140  0.993815730  0.607586725
     0.718018394  0.376379375  0.537382083
     0.844391065  0.162188196  0.495004368
     0.753319619  0.480906168  0.408384265
     0.636329778  0.998434663  0.599464536
     0.691059220  0.150382951  0.611159526
     0.879796679  0.933810356  0.454203564
     0.288600036  0.201229238  0.451863946
     0.514147218  0.920385604  0.490759658
     0.978742124  0.810554674  0.439047539
     0.535086167  0.748153844  0.587561446
     0.437657607  0.865790403  0.560240735
     0.527338035  0.126238310  0.413911259
     0.032629200  0.183686897  0.606089821
     0.431592708  0.001681259  0.433636369
     0.915400471  0.694245433  0.392755278
     0.125013220  0.456810064  0.595443648
     0.637995429  0.015520353  0.516820877
     0.588378608  0.163078515  0.487330750
     0.790420110  0.795062504  0.554528807
     0.150661218  0.227111308  0.552908483
     0.932817247  0.444667809  0.492571336
     0.410841540  0.757004264  0.399536913
     0.984255355  0.042354141  0.580261745
     0.435993380  0.503039706  0.602871760

  ion indices of the primitive-cell ions
   primitive index   ion index
                 1           1
                 2           2
                 3           3
                 4           4
                 5           5
                 6           6
                 7           7
                 8           8
                 9           9
                10          10
                11          11
                12          12
                13          13
                14          14
                15          15
                16          16
                17          17
                18          18
                19          19
                20          20
                21          21
                22          22
                23          23
                24          24
                25          25
                26          26
                27          27
                28          28
                29          29
                30          30
                31          31
                32          32
                33          33
                34          34
                35          35
                36          36
                37          37
                38          38
                39          39
                40          40
                41          41
                42          42
                43          43
                44          44
                45          45
                46          46
                47          47
                48          48
                49          49
                50          50
                51          51
                52          52
                53          53
                54          54
                55          55
                56          56
                57          57
                58          58
                59          59
                60          60
                61          61
                62          62
                63          63
                64          64
                65          65
                66          66
                67          67
                68          68
                69          69
                70          70
                71          71
                72          72
                73          73
                74          74
                75          75
                76          76
                77          77
                78          78
                79          79
                80          80
                81          81
                82          82
                83          83
                84          84
                85          85
                86          86
                87          87
                88          88
                89          89
                90          90
                91          91
                92          92
                93          93
                94          94
                95          95
                96          96
                97          97

----------------------------------------------------------------------------------------


 -----------------------------------------------------------------------------
|                                                                             |
|           W    W    AA    RRRRR   N    N  II  N    N   GGGG   !!!           |
|           W    W   A  A   R    R  NN   N  II  NN   N  G    G  !!!           |
|           W    W  A    A  R    R  N N  N  II  N N  N  G       !!!           |
|           W WW W  AAAAAA  RRRRR   N  N N  II  N  N N  G  GGG   !            |
|           WW  WW  A    A  R   R   N   NN  II  N   NN  G    G                |
|           W    W  A    A  R    R  N    N  II  N    N   GGGG   !!!           |
|                                                                             |
|     The requested file  could not be found or opened for reading            |
|     k-point information. Automatic k-point generation is used as a          |
|     fallback, which may lead to unwanted results.                           |
|                                                                             |
 -----------------------------------------------------------------------------



Automatic generation of k-mesh.
 Grid dimensions derived from KSPACING:
 generate k-points for:    2    2    1

 Generating k-lattice:

  Cartesian coordinates                     Fractional coordinates (reciprocal lattice)
     0.034401608  0.000000000  0.000000000     0.500000000  0.000000000  0.000000000
     0.000000000  0.034401608  0.000000000     0.000000000  0.500000000  0.000000000
     0.000000000  0.000000000  0.035390095     0.000000000  0.000000000  1.000000000

  Length of vectors
     0.034401608  0.034401608  0.035390095

  Shift w.r.t. Gamma in fractional coordinates (k-lattice)
     0.000000000  0.000000000  0.000000000

 
 Subroutine IBZKPT returns following result:
 ===========================================
 
 Found      4 irreducible k-points:
 
 Following reciprocal coordinates:
            Coordinates               Weight
  0.000000  0.000000  0.000000      1.000000
  0.500000  0.000000  0.000000      1.000000
  0.000000  0.500000  0.000000      1.000000
  0.500000  0.500000  0.000000      1.000000
 
 Following cartesian coordinates:
            Coordinates               Weight
  0.000000  0.000000  0.000000      1.000000
  0.034402  0.000000  0.000000      1.000000
  0.000000  0.034402  0.000000      1.000000
  0.034402  0.034402  0.000000      1.000000
 


--------------------------------------------------------------------------------------------------------




 Dimension of arrays:
   k-points           NKPTS =      4   k-points in BZ     NKDIM =      4   number of bands    NBANDS=    232
   number of dos      NEDOS =   2000   number of ions     NIONS =     97
   non local maximal  LDIM  =      4   non local SUM 2l+1 LMDIM =      8
   total plane-waves  NPLWV = ******
   max r-space proj   IRMAX =      1   max aug-charges    IRDMAX= 404875
   dimension x,y,z NGX =   168 NGY =  168 NGZ =  320
   dimension x,y,z NGXF=   336 NGYF=  336 NGZF=  640
   support grid    NGXF=   672 NGYF=  672 NGZF= 1280
   ions per type =               9  88
   NGX,Y,Z   is equivalent  to a cutoff of  19.22, 19.22, 18.83 a.u.
   NGXF,Y,Z  is equivalent  to a cutoff of  38.43, 38.43, 37.65 a.u.

 SYSTEM =  a-Si SPC                                
 POSCAR =   H Si                                   

 Startparameter for this run:
   NWRITE =      2    write-flag & timer
   PREC   = accura    normal or accurate (medium, high low for compatibility)
   ISTART =      1    job   : 0-new  1-cont  2-samecut
   ICHARG =      1    charge: 1-file 2-atom 10-const
   ISPIN  =      1    spin polarized calculation?
   LNONCOLLINEAR =      F non collinear calculations
   LSORBIT =      F    spin-orbit coupling
   INIWAV =      1    electr: 0-lowe 1-rand  2-diag
   LASPH  =      T    aspherical Exc in radial PAW
 Electronic Relaxation 1
   ENCUT  = 1200.0 eV  88.20 Ry    9.39 a.u.  41.05 41.05 79.81*2*pi/ulx,y,z
   ENINI  = 1200.0     initial cutoff
   ENAUG  =  400.0 eV  augmentation charge cutoff
   NELM   =    150;   NELMIN=  2; NELMDL=  0     # of ELM steps 
   EDIFF  = 0.1E-05   stopping-criterion for ELM
   LREAL  =      F    real-space projection
   NLSPLINE    = F    spline interpolate recip. space projectors
   LCOMPAT=      F    compatible to vasp.4.4
   GGA_COMPAT  = T    GGA compatible to vasp.4.4-vasp.4.6
   LMAXPAW     = -100 max onsite density
   LMAXMIX     =    2 max onsite mixed and CHGCAR
   VOSKOWN=      0    Vosko Wilk Nusair interpolation
   ROPT   =    0.00000   0.00000
 Ionic relaxation
   EDIFFG = -.1E-01   stopping-criterion for IOM
   NSW    =      0    number of steps for IOM
   NBLOCK =      1;   KBLOCK =      1    inner block; outer block 
   IBRION =     -1    ionic relax: 0-MD 1-quasi-New 2-CG
   NFREE  =      0    steps in history (QN), initial steepest desc. (CG)
   ISIF   =      2    stress and relaxation
   IWAVPR =     10    prediction:  0-non 1-charg 2-wave 3-comb
   ISYM   =      1    0-nonsym 1-usesym 2-fastsym
   LCORR  =      T    Harris-Foulkes like correction to forces

   POTIM  = 0.5000    time-step for ionic-motion
   TEIN   =    0.0    initial temperature
   TEBEG  =    0.0;   TEEND  =   0.0 temperature during run
   SMASS  =  -3.00    Nose mass-parameter (am)
   estimated Nose-frequenzy (Omega)   =  0.10E-29 period in steps = 0.13E+47 mass=  -0.483E-26a.u.
   SCALEE = 1.0000    scale energy and forces
   NPACO  =    256;   APACO  = 10.0  distance and # of slots for P.C.
   PSTRESS=    0.0 pullay stress

  Mass of Ions in am
   POMASS =   1.00 28.09
  Ionic Valenz
   ZVAL   =   1.00  4.00
  Atomic Wigner-Seitz radii
   RWIGS  =  -1.00 -1.00
  virtual crystal weights 
   VCA    =   1.00  1.00
   NELECT =     361.0000    total number of electrons
   NUPDOWN=      -1.0000    fix difference up-down

 DOS related values:
   EMIN   =  10.00;   EMAX   =-10.00  energy-range for DOS
   EFERMI =   0.00;   METHOD = LEGACY      
   ISMEAR =     0;   SIGMA  =   0.10  broadening in eV -4-tet -1-fermi 0-gaus
   EFERMI_NEDOS =   21; number of points for ismear=-14 and -15

 Electronic relaxation 2 (details)
   IALGO  =     38    algorithm
   LDIAG  =      F    sub-space diagonalisation (order eigenvalues)
   LSUBROT=      F    optimize rotation matrix (better conditioning)
   TURBO    =      0    0=normal 1=particle mesh
   IRESTART =      0    0=no restart 2=restart with 2 vectors
   NREBOOT  =      0    no. of reboots
   NMIN     =      0    reboot dimension
   EREF     =   0.00    reference energy to select bands
   IMIX   =      4    mixing-type and parameters
     AMIX     =   0.40;   BMIX     =  1.00
     AMIX_MAG =   1.60;   BMIX_MAG =  1.00
     AMIN     =   0.10
     WC   =   100.;   INIMIX=   1;  MIXPRE=   1;  MAXMIX= -45

 Intra band minimization:
   WEIMIN = 0.0000     energy-eigenvalue tresh-hold
   EBREAK =  0.11E-08  absolut break condition
   DEPER  =   0.30     relativ break condition  

   TIME   =   0.40     timestep for ELM

  volume/ion in A,a.u.               =      61.54       415.27
  Fermi-wavevector in a.u.,A,eV,Ry     =   0.642604  1.214346  5.618394  0.412940
  Thomas-Fermi vector in A             =   1.709329

 Write flags
   LWAVE        =      F    write WAVECAR
   LDOWNSAMPLE  =      F    k-point downsampling of WAVECAR
   LCHARG       =      F    write CHGCAR
   LVTOT        =      F    write LOCPOT, total local potential
   LVHAR        =      F    write LOCPOT, Hartree potential only
   WRT_POTENTIAL= false  ! write potential to hdf5 file
   LELF         =      F    write electronic localiz. function (ELF)
   LORBIT       =     11    0 simple, 1 ext, 2 COOP (PROOUT), +10 PAW based schemes


 Python interface
   PLUGINS active      =      F    recompile with -DPLUGINS to activate

 Dipole corrections
   LMONO      =      F    monopole corrections only (constant potential shift)
   LDIPOL     =      F    correct potential (dipole corrections)
   IDIPOL     =      0    1-x, 2-y, 3-z, 4-all directions 
   EPSILON    =  1.0000000 bulk dielectric constant
   LVACPOTAV  =      F  vacuum potentials using an averaging scheme for the charge density
   VACPOTFLAT =  0.1000000 required flatness to determine vacuum potential

Coulomb truncation method
  LTRUNCATE          =      F  Coulomb kernel truncation to be used
  IDIMENSIONALITY    =      3  Dimensionality of cutoff (0 molecules / 2 surfaces)
  ISURFACE           =     -1  Direction of surface normal
  LCOARSEN           =      F  Coarsen the charge grid before padding, preferred


 Exchange correlation treatment:
   METAGGA = SCAN    functional components
   XC_C    = 1    coefficients multiplying the functional components
   LIBXC   =     F    Libxc                    
   VOSKOWN =     0    Vosko Wilk Nusair interpolation
   LHFCALC =     F    Hartree Fock is set to
   LHFONE  =     F    Hartree Fock one center treatment
   AEXX    =    0.0000 exact exchange contribution

 Parameters of functionals:
   SCAN:
     P1 =  0.000000E+00
     P2 =  0.000000E+00
     P3 =  0.000000E+00

 Accuracy and mixing parameters for tau-dependent meta-GGA functionals:
   LMAXTAU = 6
   LMIXTAU = T

 Van der Waals corrections
   IVDW    =     0    specifies the selected vdW correction

 Linear response parameters
   LEPSILON=     F    determine dielectric tensor
   LRPA    =     F    only Hartree local field effects (RPA)
   LNABLA  =     F    use nabla operator in PAW spheres
   LVEL    =     F    velocity operator in full k-point grid
   CSHIFT  =0.1000    complex shift for real part using Kramers Kronig
   OMEGAMAX=  -1.0    maximum frequency
   DEG_THRESHOLD= 0.2000000E-02 threshold for treating states as degnerate
   RTIME   =   -0.100 relaxation time in fs
  (WPLASMAI=    0.000 imaginary part of plasma frequency in eV, 0.658/RTIME)
   DFIELD  = 0.0000000 0.0000000 0.0000000 field for delta impulse in time

  Optional k-point grid parameters
   LKPOINTS_OPT  =     F    use optional k-point grid
   KPOINTS_OPT_MODE=     1    mode for optional k-point grid

 Orbital magnetization related:
   ORBITALMAG=     F  switch on orbital magnetization
   LCHIMAG   =     F  perturbation theory with respect to B field
   DQ        =  0.001000  dq finite difference perturbation B field
   LLRAUG    =     F  two centre corrections for induced B field
   LBONE     =     F  B-component reconstruction in AE one-centre
   LVGVCALC  =     T  calculate vGv susceptibility
   LVGVAPPL  =     F  apply vGv susceptibility instead of pGv for G=0

 Random number generation:
   RANDOM_GENERATOR = DEFAULT
   PCG_SEED         = not used


--------------------------------------------------------------------------------------------------------


 Static calculation
 charge density and potential will be updated during run
 non-spin polarized calculation
 Variant of blocked Davidson
 perform Loewdin sub-space diagonalisation
    ordering is kept fixed
    before iterative eigenvector-optimisation
 modified Broyden-mixing scheme, WC =      100.0
 initial mixing is a Kerker type mixing with AMIX =  0.4000 and BMIX =      1.0000
 Hartree-type preconditioning will be used
 using additional bands           51
 reciprocal scheme for non local part
 use partial core corrections
 calculate Harris-corrections to forces   (improved forces if not selfconsistent)
 use gradient corrections 
 use of overlap-Matrix (Vanderbilt PP)
 Gauss-broadening in eV      SIGMA  =   0.10


--------------------------------------------------------------------------------------------------------


  energy-cutoff  :     1200.00
  volume of cell :     5968.99
      direct lattice vectors                 reciprocal lattice vectors
    14.534204238  0.000000000  0.000000000     0.068803216  0.000000000  0.000000000
     0.000000000 14.534204238  0.000000000     0.000000000  0.068803216  0.000000000
     0.000000000  0.000000000 28.256494000     0.000000000  0.000000000  0.035390095

  length of vectors
    14.534204238 14.534204238 28.256494000     0.068803216  0.068803216  0.035390095



 old parameters found on file WAVECAR:
  energy-cutoff  :     1200.00
  volume of cell :     5968.99
      direct lattice vectors                 reciprocal lattice vectors
    14.534204238  0.000000000  0.000000000     0.068803216  0.000000000  0.000000000
     0.000000000 14.534204238  0.000000000     0.000000000  0.068803216  0.000000000
     0.000000000  0.000000000 28.256494000     0.000000000  0.000000000  0.035390095

  length of vectors


 k-points in units of 2pi/SCALE and weight: read from INCAR                         
   0.00000000  0.00000000  0.00000000       0.250
   0.03440161  0.00000000  0.00000000       0.250
   0.00000000  0.03440161  0.00000000       0.250
   0.03440161  0.03440161  0.00000000       0.250

 k-points in reciprocal lattice and weights: read from INCAR                         
   0.00000000  0.00000000  0.00000000       0.250
   0.50000000  0.00000000  0.00000000       0.250
   0.00000000  0.50000000  0.00000000       0.250
   0.50000000  0.50000000  0.00000000       0.250

 position of ions in fractional coordinates (direct lattice) 
   0.45241845  0.77723032  0.44726384
   0.41154426  0.49402504  0.39941280
   0.55566864  0.47163683  0.60632616
   0.47440285  0.06083095  0.56092686
   0.76454240  0.09575587  0.49263872
   0.22035712  0.15144571  0.55911197
   0.03533258  0.28164798  0.47090150
   0.57773011  0.48050476  0.50944526
   0.52028802  0.65091567  0.31713993
   0.42872231  0.23422528  0.64683625
   0.77337973  0.64445212  0.42404263
   0.75406475  0.65875834  0.50909082
   0.37677249  0.11662074  0.55796801
   0.65642096  0.74689365  0.39183366
   0.64242427  0.39297768  0.60887286
   0.61126029  0.89871313  0.36900776
   0.38088590  0.54975395  0.52723035
   0.12619289  0.63451814  0.52423995
   0.19523270  0.45911928  0.43762130
   0.04430543  0.90474899  0.60346136
   0.50790405  0.52414156  0.40960284
   0.80048619  0.25091961  0.43052970
   0.26787336  0.70875472  0.42731663
   0.52100848  0.55780586  0.48948719
   0.42695388  0.65213923  0.63239812
   0.12441447  0.22587683  0.46850187
   0.30423052  0.42410611  0.49655716
   0.27212750  0.70045480  0.62427071
   0.56727647  0.25098930  0.60815630
   0.48024585  0.23308868  0.53692176
   0.17816452  0.31625466  0.40024543
   0.08115748  0.07484188  0.45026989
   0.66956123  0.83675176  0.60745604
   0.06371900  0.52673050  0.47155865
   0.28870375  0.79982875  0.56041281
   0.22761478  0.86555194  0.41475788
   0.89292608  0.02919282  0.38767605
   0.59720356  0.68690691  0.51672911
   0.40423621  0.30651407  0.47400639
   0.65630228  0.04696944  0.38795700
   0.94514506  0.78345121  0.57825311
   0.15184691  0.87895900  0.54235791
   0.47634042  0.28141071  0.39937154
   0.35818279  0.08818446  0.63977314
   0.80882963  0.51415671  0.53137358
   0.04545111  0.77111221  0.51286472
   0.04707143  0.04174211  0.37119959
   0.28009236  0.67351688  0.50845461
   0.80364788  0.40276785  0.64414761
   0.78320804  0.13561852  0.37167489
   0.03987807  0.60352846  0.40185004
   0.32235596  0.05895076  0.48565946
   0.66495169  0.30402761  0.46720227
   0.60729672  0.39719413  0.40456876
   0.98187120  0.41191241  0.57124483
   0.88422562  0.52340906  0.60425919
   0.74505897  0.89889562  0.49398578
   0.13183491  0.61371093  0.60650778
   0.36711839  0.90512121  0.37580852
   0.08031975  0.89071641  0.39052404
   0.61994095  0.81191852  0.46453583
   0.79454769  0.23759806  0.56316247
   0.35845257  0.36561351  0.61843257
   0.31848935  0.24960756  0.37499590
   0.95494558  0.04767962  0.49952569
   0.23598946  0.36306457  0.56604894
   0.52621018  0.66343260  0.36888547
   0.97492977  0.65161799  0.62358566
   0.19182182  0.96904133  0.47765591
   0.88350542  0.38686171  0.41808437
   0.91263054  0.29069062  0.60983504
   0.19519672  0.58991216  0.38537043
   0.47423814  0.99381573  0.60758672
   0.71801839  0.37637938  0.53738208
   0.84439107  0.16218820  0.49500437
   0.75331962  0.48090617  0.40838426
   0.63632978  0.99843466  0.59946454
   0.69105922  0.15038295  0.61115953
   0.87979668  0.93381036  0.45420356
   0.28860004  0.20122924  0.45186395
   0.51414722  0.92038560  0.49075966
   0.97874212  0.81055467  0.43904754
   0.53508617  0.74815384  0.58756145
   0.43765761  0.86579040  0.56024074
   0.52733804  0.12623831  0.41391126
   0.03262920  0.18368690  0.60608982
   0.43159271  0.00168126  0.43363637
   0.91540047  0.69424543  0.39275528
   0.12501322  0.45681006  0.59544365
   0.63799543  0.01552035  0.51682088
   0.58837861  0.16307851  0.48733075
   0.79042011  0.79506250  0.55452881
   0.15066122  0.22711131  0.55290848
   0.93281725  0.44466781  0.49257134
   0.41084154  0.75700426  0.39953691
   0.98425535  0.04235414  0.58026174
   0.43599338  0.50303971  0.60287176

 position of ions in cartesian coordinates  (Angst):
   6.57554211 11.29642419 12.63810806
   5.98146834  7.18026081 11.28600552
   8.07620152  6.85486607 17.13265152
   6.89506794  0.88412945 15.84982658
  11.11201545  1.39173542 13.92024309
   3.20271545  2.20114283 15.79854393
   0.51353100  4.09352932 13.30602542
   8.39684747  6.98375428 14.39513691
   7.56197229  9.46054130  8.96126266
   6.23113765  3.40427804 18.27732475
  11.24045894  9.36659874 11.98195791
  10.95973114  9.57452820 14.38512163
   5.47608833  1.69498966 15.76621965
   9.54055624 10.85550486 11.07184539
   9.33712558  5.71161787 17.20461245
   8.88418191 13.06208019 10.42686557
   5.53587350  7.99023618 14.89768132
   1.83411327  9.22221631 14.81318290
   2.83755200  6.67293332 12.36564369
   0.64394419 13.14980664 17.05170242
   7.38198119  7.61798055 11.57394011
  11.63442984  3.64691690 12.16525999
   3.89332606 10.30118582 12.07446977
   7.57244362  8.10726429 13.83119172
   6.20543483  9.47832482 17.86935358
   1.80826533  3.28294000 13.23822015
   4.42174849  6.16404485 14.03096445
   3.95515667 10.18055317 17.63970144
   8.24491201  3.64792968 17.18436494
   6.97999133  3.38775842 15.17152641
   2.58947947  4.59650980 11.30953259
   1.17955943  1.08776716 12.72304844
   9.73153962 12.16152099 17.16457789
   0.92610499  7.65560864 13.32459405
   4.19607931 11.62487434 15.83530114
   3.30819966 12.58010869 11.71960344
  12.97796996  0.42429443 10.95436605
   8.67987857  9.98364532 14.60095311
   5.87525170  4.45493815 13.39375876
   9.53883135  0.68266338 10.96230461
  13.73693129 11.38683984 16.33940553
   2.20697395 12.77496956 15.32513314
   6.92322889  4.09008069 11.28483956
   5.20590182  1.28169098 18.07774589
  11.75569499  7.47285863 15.01475434
   0.66059567 11.20750229 14.49175898
   0.68414571  0.60668832 10.48879911
   4.07091960  9.78903195 14.36714454
  11.68038242  5.85391021 18.20135305
  11.38330567  1.97110720 10.50222935
   0.57959596  8.77180591 11.35487319
   4.68518732  0.85680243 13.72303368
   9.66454371  4.41879936 13.20149806
   8.82657453  5.77290058 11.43169469
  14.27071662  5.98681905 16.14137615
  12.85151571  7.60733425 17.07424624
  10.82883931 13.06473258 13.95830630
   1.91611548  8.91979999 17.13778351
   5.33577373 13.15521657 10.61903116
   1.16738359 12.94585417 11.03484023
   9.01034833 11.80058957 13.12615383
  11.54811844  3.45329868 15.91299705
   5.20982292  5.31390139 17.47473625
   4.62898927  3.62784732 10.59606943
  13.87937412  0.69298540 14.11484480
   3.42991905  5.27685464 15.99455856
   7.64804618  9.64246487 10.42341010
  14.16982842  9.47074890 17.62034434
   2.78797753 14.08424460 13.49688128
  12.84104820  5.62272704 11.81359837
  13.26435865  4.22495682 17.23180012
   2.83702902  8.57390382 10.88921717
   6.89267398 14.44432079 17.16827064
  10.43582599  5.47037471 15.18453361
  12.27255220  2.35727637 13.98708796
  10.94890120  6.98958846 11.53950753
   9.24854695 14.51145331 16.93876606
  10.04399584  2.18569652 17.26922547
  12.78714462 13.57219043 12.83420027
   4.19457187  2.92470685 12.76809089
   7.47272068 13.37707234 13.86714732
  14.22523793 11.78076718 12.40594414
   7.77705163 10.87382077 16.60242647
   6.36100504 12.58357455 15.83043897
   7.66443871  1.83477338 11.69568100
   0.47423945  2.66974287 17.12597340
   6.27285657  0.02443576 12.25304347
  13.30461741 10.09030491 11.09788717
   1.81696767  6.63937077 16.82514987
   9.27275587  0.22557598 14.60354601
   8.55161486  2.37021644 13.77025840
  11.48812732 11.55560081 15.66903992
   2.18974091  3.30088213 15.62325522
  13.55775638  6.46289275 13.91833899
   5.97125485 11.00245458 11.28951239
  14.30536835  0.61558374 16.39616251
   6.33681683  7.31128183 17.03504227



--------------------------------------------------------------------------------------------------------


 k-point     1 :   0.0000 0.0000 0.0000  plane waves:  563359
 k-point     2 :   0.5000 0.0000 0.0000  plane waves:  563450
 k-point     3 :   0.0000 0.5000 0.0000  plane waves:  563450
 k-point     4 :   0.5000 0.5000 0.0000  plane waves:  563660

 maximum and minimum number of plane-waves per node :     35287    35138

 maximum number of plane-waves:    563660
 maximum index in each direction: 
   IXMAX=   41   IYMAX=   41   IZMAX=   79
   IXMIN=  -41   IYMIN=  -41   IZMIN=  -79


 parallel 3D FFT for wavefunctions:
    minimum data exchange during FFTs selected (reduces bandwidth)
 parallel 3D FFT for charge:
    minimum data exchange during FFTs selected (reduces bandwidth)


 total amount of memory used by VASP MPI-rank0   361091. kBytes
=======================================================================

   base                                    :      30000. kBytes
   nonl-proj                               :      72718. kBytes
   fftplans                                :     108867. kBytes
   grid                                    :      83991. kBytes
   one-center                              :         21. kBytes
   wavefun                                 :      65494. kBytes

     INWAV:  cpu time     19.3596: real time     19.3716
 Broyden mixing: mesh for mixing (old mesh)
   NGX = 83   NGY = 83   NGZ =159
  (NGX  =336   NGY  =336   NGZ  =640)
  gives a total of ****** points

 initial charge density was supplied:
 number of electron     360.9999999 magnetization 
 keeping initial charge density in first step


--------------------------------------------------------------------------------------------------------


 Maximum index for augmentation-charges        11309 (set IRDMAX)


--------------------------------------------------------------------------------------------------------


 First call to EWALD:  gamma=   0.098
 Maximum number of real-space cells   3x   3x   2
 Maximum number of reciprocal cells   2x   2x   4

    FEWALD:  cpu time      0.0160: real time      0.0164


--------------------------------------- Ionic step        1  -------------------------------------------




--------------------------------------- Iteration      1(   1)  ---------------------------------------


    POTLOK:  cpu time      2.1666: real time      2.1680
    SETDIJ:  cpu time      1.6616: real time      1.6622
    EDDIAG:  cpu time     38.7672: real time     38.7910
     EDDAV:  cpu time    178.2834: real time    178.3808
       DOS:  cpu time      0.0076: real time      0.0080
    CHARGE:  cpu time     22.5894: real time     22.6078
    MIXING:  cpu time      0.0490: real time      0.0495
    --------------------------------------------
      LOOP:  cpu time    243.5250: real time    243.6673

 eigenvalue-minimisations  :  1856
 total energy-change (2. order) :-0.9199286E+03  (-0.1021773E+01)
 number of electron     360.9999999 magnetization 
 augmentation part      -19.8103230 magnetization 

 Broyden mixing:
  rms(total) = 0.11592E+01    rms(broyden)= 0.27739E+02
  rms(prec ) = 0.11933E+01
  weight for this iteration     100.00
  WARNING: grid for Broyden might be to small

 Free energy of the ion-electron system (eV)
  ---------------------------------------------------
  alpha Z        PSCENC =        46.11629951
  Ewald energy   TEWEN  =     56308.45688559
  -Hartree energ DENC   =    -64430.48240388
  -exchange      EXHF   =         0.00000000
  -V(xc)+E(xc)   XCENC  =      -406.13786763
  PAW double counting   =     33266.97894196   -32389.77500525
  entropy T*S    EENTRO =        -0.17660702
  eigenvalues    EBANDS =     -2497.18569562
  atomic energy  EATOM  =      9182.27680711
  Solvation  Ediel_sol  =         0.00000000
  ---------------------------------------------------
  free energy    TOTEN  =      -919.92864524 eV

  energy without entropy =     -919.75203822  energy(sigma->0) =     -919.84034173


--------------------------------------------------------------------------------------------------------




--------------------------------------- Iteration      1(   2)  ---------------------------------------


    POTLOK:  cpu time      2.1420: real time      2.1468
    SETDIJ:  cpu time      1.6670: real time      1.6684
    EDDIAG:  cpu time     38.7548: real time     38.7784
     EDDAV:  cpu time    179.9927: real time    180.0889
       DOS:  cpu time      0.0038: real time      0.0038
    CHARGE:  cpu time     22.5280: real time     22.5462
    MIXING:  cpu time      0.0424: real time      0.0429
    --------------------------------------------
      LOOP:  cpu time    245.1307: real time    245.2752

 eigenvalue-minimisations  :  1888
 total energy-change (2. order) : 0.6398564E+02  (-0.9801589E+00)
 number of electron     360.9999999 magnetization 
 augmentation part      -19.7372350 magnetization 

 Broyden mixing:
  rms(total) = 0.78542E+00    rms(broyden)= 0.16030E+02
  rms(prec ) = 0.80287E+00
  weight for this iteration     100.00
  WARNING: grid for Broyden might be to small

 eigenvalues of (default mixing * dielectric matrix)
  average eigenvalue GAMMA=   0.6339
  0.6339

 Free energy of the ion-electron system (eV)
  ---------------------------------------------------
  alpha Z        PSCENC =        46.11629951
  Ewald energy   TEWEN  =     56308.45688559
  -Hartree energ DENC   =    -64417.47595028
  -exchange      EXHF   =         0.00000000
  -V(xc)+E(xc)   XCENC  =      -397.26230965
  PAW double counting   =     39704.44933842   -38827.01466514
  entropy T*S    EENTRO =        -0.16019978
  eigenvalues    EBANDS =     -2455.32920959
  atomic energy  EATOM  =      9182.27680711
  Solvation  Ediel_sol  =         0.00000000
  ---------------------------------------------------
  free energy    TOTEN  =      -855.94300382 eV

  energy without entropy =     -855.78280404  energy(sigma->0) =     -855.86290393


--------------------------------------------------------------------------------------------------------




--------------------------------------- Iteration      1(   3)  ---------------------------------------


    POTLOK:  cpu time      2.1555: real time      2.1741
    SETDIJ:  cpu time      1.6655: real time      1.6663
    EDDIAG:  cpu time     38.8125: real time     38.8358
     EDDAV:  cpu time    178.2460: real time    178.3432
       DOS:  cpu time      0.0072: real time      0.0072
    CHARGE:  cpu time     22.4745: real time     22.4946
    MIXING:  cpu time      0.0416: real time      0.0416
    --------------------------------------------
      LOOP:  cpu time    243.4027: real time    243.5628

 eigenvalue-minimisations  :  1856
 total energy-change (2. order) :-0.3455456E+01  (-0.7732991E+00)
 number of electron     360.9999999 magnetization 
 augmentation part      -19.6727585 magnetization 

 Broyden mixing:
  rms(total) = 0.32558E+00    rms(broyden)= 0.23923E+02
  rms(prec ) = 0.41003E+00
  weight for this iteration     100.00
  WARNING: grid for Broyden might be to small

 eigenvalues of (default mixing * dielectric matrix)
  average eigenvalue GAMMA=   0.7686
  0.9109  0.6263

 Free energy of the ion-electron system (eV)
  ---------------------------------------------------
  alpha Z        PSCENC =        46.11629951
  Ewald energy   TEWEN  =     56308.45688559
  -Hartree energ DENC   =    -64416.55714496
  -exchange      EXHF   =         0.00000000
  -V(xc)+E(xc)   XCENC  =      -400.63690451
  PAW double counting   =     47358.42770914   -46481.12541583
  entropy T*S    EENTRO =        -0.17219335
  eigenvalues    EBANDS =     -2456.18450271
  atomic energy  EATOM  =      9182.27680711
  Solvation  Ediel_sol  =         0.00000000
  ---------------------------------------------------
  free energy    TOTEN  =      -859.39846002 eV

  energy without entropy =     -859.22626667  energy(sigma->0) =     -859.31236334


--------------------------------------------------------------------------------------------------------




--------------------------------------- Iteration      1(   4)  ---------------------------------------


    POTLOK:  cpu time      2.1291: real time      2.1496
    SETDIJ:  cpu time      1.6564: real time      1.6575
    EDDIAG:  cpu time     38.8246: real time     38.8485
     EDDAV:  cpu time    187.6573: real time    187.7621
       DOS:  cpu time      0.0056: real time      0.0056
    CHARGE:  cpu time     22.5131: real time     22.5341
    MIXING:  cpu time      0.0416: real time      0.0417
    --------------------------------------------
      LOOP:  cpu time    252.8276: real time    252.9990

 eigenvalue-minimisations  :  2032
 total energy-change (2. order) : 0.3878938E+00  (-0.9898181E-01)
 number of electron     360.9999999 magnetization 
 augmentation part      -19.6660103 magnetization 

 Broyden mixing:
  rms(total) = 0.88497E-01    rms(broyden)= 0.18346E+01
  rms(prec ) = 0.13191E+00
  weight for this iteration     100.00
  WARNING: grid for Broyden might be to small

 eigenvalues of (default mixing * dielectric matrix)
  average eigenvalue GAMMA=   1.0230
  1.7883  0.6694  0.6112

 Free energy of the ion-electron system (eV)
  ---------------------------------------------------
  alpha Z        PSCENC =        46.11629951
  Ewald energy   TEWEN  =     56308.45688559
  -Hartree energ DENC   =    -64417.75340991
  -exchange      EXHF   =         0.00000000
  -V(xc)+E(xc)   XCENC  =      -401.47463126
  PAW double counting   =     53128.40432568   -52251.14596365
  entropy T*S    EENTRO =        -0.16100688
  eigenvalues    EBANDS =     -2453.72987237
  atomic energy  EATOM  =      9182.27680711
  Solvation  Ediel_sol  =         0.00000000
  ---------------------------------------------------
  free energy    TOTEN  =      -859.01056618 eV

  energy without entropy =     -858.84955930  energy(sigma->0) =     -858.93006274


--------------------------------------------------------------------------------------------------------




--------------------------------------- Iteration      1(   5)  ---------------------------------------


    POTLOK:  cpu time      2.1397: real time      2.1561
    SETDIJ:  cpu time      1.6702: real time      1.6714
    EDDIAG:  cpu time     38.8062: real time     38.8324
     EDDAV:  cpu time    199.4797: real time    199.5912
       DOS:  cpu time      0.0021: real time      0.0021
    CHARGE:  cpu time     22.5038: real time     22.5244
    MIXING:  cpu time      0.0420: real time      0.0420
    --------------------------------------------
      LOOP:  cpu time    264.6436: real time    264.8195

 eigenvalue-minimisations  :  2240
 total energy-change (2. order) :-0.6817507E-02  (-0.2150349E-01)
 number of electron     360.9999999 magnetization 
 augmentation part      -19.6662052 magnetization 

 Broyden mixing:
  rms(total) = 0.58891E-01    rms(broyden)= 0.11017E+01
  rms(prec ) = 0.88365E-01
  weight for this iteration     100.00
  WARNING: grid for Broyden might be to small

 eigenvalues of (default mixing * dielectric matrix)
  average eigenvalue GAMMA=   1.0475
  2.4093  0.7683  0.6216  0.3908

 Free energy of the ion-electron system (eV)
  ---------------------------------------------------
  alpha Z        PSCENC =        46.11629951
  Ewald energy   TEWEN  =     56308.45688559
  -Hartree energ DENC   =    -64417.87382739
  -exchange      EXHF   =         0.00000000
  -V(xc)+E(xc)   XCENC  =      -402.52620615
  PAW double counting   =     52869.17971652   -51991.90175111
  entropy T*S    EENTRO =        -0.16715694
  eigenvalues    EBANDS =     -2452.57815083
  atomic energy  EATOM  =      9182.27680711
  Solvation  Ediel_sol  =         0.00000000
  ---------------------------------------------------
  free energy    TOTEN  =      -859.01738369 eV

  energy without entropy =     -858.85022675  energy(sigma->0) =     -858.93380522


--------------------------------------------------------------------------------------------------------




--------------------------------------- Iteration      1(   6)  ---------------------------------------


    POTLOK:  cpu time      2.1329: real time      2.1504
    SETDIJ:  cpu time      1.6587: real time      1.6595
    EDDIAG:  cpu time     38.7926: real time     38.8180
     EDDAV:  cpu time    191.7993: real time    191.9052
       DOS:  cpu time      0.0041: real time      0.0041
    CHARGE:  cpu time     22.4688: real time     22.4887
    MIXING:  cpu time      0.0434: real time      0.0434
    --------------------------------------------
      LOOP:  cpu time    256.8999: real time    257.0694

 eigenvalue-minimisations  :  2096
 total energy-change (2. order) : 0.5577270E-02  (-0.8749660E-02)
 number of electron     360.9999999 magnetization 
 augmentation part      -19.6671962 magnetization 

 Broyden mixing:
  rms(total) = 0.29378E-01    rms(broyden)= 0.16316E+00
  rms(prec ) = 0.32213E-01
  weight for this iteration     100.00
  WARNING: grid for Broyden might be to small

 eigenvalues of (default mixing * dielectric matrix)
  average eigenvalue GAMMA=   1.0079
  2.5612  0.8664  0.6179  0.6125  0.3816

 Free energy of the ion-electron system (eV)
  ---------------------------------------------------
  alpha Z        PSCENC =        46.11629951
  Ewald energy   TEWEN  =     56308.45688559
  -Hartree energ DENC   =    -64418.17173086
  -exchange      EXHF   =         0.00000000
  -V(xc)+E(xc)   XCENC  =      -402.77531583
  PAW double counting   =     52575.23738462   -51697.93989481
  entropy T*S    EENTRO =        -0.16300890
  eigenvalues    EBANDS =     -2452.04923284
  atomic energy  EATOM  =      9182.27680711
  Solvation  Ediel_sol  =         0.00000000
  ---------------------------------------------------
  free energy    TOTEN  =      -859.01180642 eV

  energy without entropy =     -858.84879752  energy(sigma->0) =     -858.93030197


--------------------------------------------------------------------------------------------------------




--------------------------------------- Iteration      1(   7)  ---------------------------------------


    POTLOK:  cpu time      2.1564: real time      2.1578
    SETDIJ:  cpu time      1.6652: real time      1.6662
    EDDIAG:  cpu time     38.7514: real time     38.7758
     EDDAV:  cpu time    183.7860: real time    183.8846
       DOS:  cpu time      0.0022: real time      0.0022
    CHARGE:  cpu time     22.4927: real time     22.5131
    MIXING:  cpu time      0.0438: real time      0.0438
    --------------------------------------------
      LOOP:  cpu time    248.8977: real time    249.0434

 eigenvalue-minimisations  :  1960
 total energy-change (2. order) : 0.2808078E-04  (-0.2138378E-02)
 number of electron     360.9999999 magnetization 
 augmentation part      -19.6651018 magnetization 

 Broyden mixing:
  rms(total) = 0.17363E-01    rms(broyden)= 0.94014E-01
  rms(prec ) = 0.18850E-01
  weight for this iteration     100.00
  WARNING: grid for Broyden might be to small

 eigenvalues of (default mixing * dielectric matrix)
  average eigenvalue GAMMA=   0.9966
  2.5641  1.0961  0.7206  0.3898  0.6204  0.5886

 Free energy of the ion-electron system (eV)
  ---------------------------------------------------
  alpha Z        PSCENC =        46.11629951
  Ewald energy   TEWEN  =     56308.45688559
  -Hartree energ DENC   =    -64417.77061010
  -exchange      EXHF   =         0.00000000
  -V(xc)+E(xc)   XCENC  =      -402.64169788
  PAW double counting   =     52520.90945969   -51643.59682136
  entropy T*S    EENTRO =        -0.16478283
  eigenvalues    EBANDS =     -2452.59731807
  atomic energy  EATOM  =      9182.27680711
  Solvation  Ediel_sol  =         0.00000000
  ---------------------------------------------------
  free energy    TOTEN  =      -859.01177834 eV

  energy without entropy =     -858.84699551  energy(sigma->0) =     -858.92938692


--------------------------------------------------------------------------------------------------------




--------------------------------------- Iteration      1(   8)  ---------------------------------------


    POTLOK:  cpu time      2.1323: real time      2.1498
    SETDIJ:  cpu time      1.6702: real time      1.6714
    EDDIAG:  cpu time     38.7989: real time     38.8209
     EDDAV:  cpu time    187.2912: real time    187.3978
       DOS:  cpu time      0.0058: real time      0.0058
    CHARGE:  cpu time     22.5041: real time     22.5236
    MIXING:  cpu time      0.0436: real time      0.0436
    --------------------------------------------
      LOOP:  cpu time    252.4459: real time    252.6128

 eigenvalue-minimisations  :  2016
 total energy-change (2. order) :-0.7370364E-03  (-0.4501175E-03)
 number of electron     360.9999999 magnetization 
 augmentation part      -19.6639476 magnetization 

 Broyden mixing:
  rms(total) = 0.70093E-02    rms(broyden)= 0.58258E-01
  rms(prec ) = 0.76546E-02
  weight for this iteration     100.00
  WARNING: grid for Broyden might be to small

 eigenvalues of (default mixing * dielectric matrix)
  average eigenvalue GAMMA=   1.0388
  2.5488  1.5249  0.9301  0.3820  0.6418  0.6418  0.6020

 Free energy of the ion-electron system (eV)
  ---------------------------------------------------
  alpha Z        PSCENC =        46.11629951
  Ewald energy   TEWEN  =     56308.45688559
  -Hartree energ DENC   =    -64417.23895691
  -exchange      EXHF   =         0.00000000
  -V(xc)+E(xc)   XCENC  =      -402.51513674
  PAW double counting   =     52531.43809870   -51654.11226579
  entropy T*S    EENTRO =        -0.16469229
  eigenvalues    EBANDS =     -2453.26955453
  atomic energy  EATOM  =      9182.27680711
  Solvation  Ediel_sol  =         0.00000000
  ---------------------------------------------------
  free energy    TOTEN  =      -859.01251538 eV

  energy without entropy =     -858.84782308  energy(sigma->0) =     -858.93016923


--------------------------------------------------------------------------------------------------------




--------------------------------------- Iteration      1(   9)  ---------------------------------------


    POTLOK:  cpu time      2.1295: real time      2.1501
    SETDIJ:  cpu time      1.6622: real time      1.6628
    EDDIAG:  cpu time     38.8150: real time     38.8395
     EDDAV:  cpu time    186.9432: real time    187.0489
       DOS:  cpu time      0.0020: real time      0.0020
    CHARGE:  cpu time     22.5108: real time     22.5312
    MIXING:  cpu time      0.0446: real time      0.0446
    --------------------------------------------
      LOOP:  cpu time    252.1075: real time    252.2792

 eigenvalue-minimisations  :  2016
 total energy-change (2. order) :-0.1617387E-03  (-0.1270333E-03)
 number of electron     360.9999999 magnetization 
 augmentation part      -19.6637840 magnetization 

 Broyden mixing:
  rms(total) = 0.29274E-02    rms(broyden)= 0.31130E-01
  rms(prec ) = 0.33797E-02
  weight for this iteration     100.00
  WARNING: grid for Broyden might be to small

 eigenvalues of (default mixing * dielectric matrix)
  average eigenvalue GAMMA=   1.0642
  2.5169  2.0497  0.8617  0.8617  0.3787  0.6532  0.6348  0.5572

 Free energy of the ion-electron system (eV)
  ---------------------------------------------------
  alpha Z        PSCENC =        46.11629951
  Ewald energy   TEWEN  =     56308.45688559
  -Hartree energ DENC   =    -64416.80711870
  -exchange      EXHF   =         0.00000000
  -V(xc)+E(xc)   XCENC  =      -402.48882909
  PAW double counting   =     52564.01012781   -51686.67841285
  entropy T*S    EENTRO =        -0.16405365
  eigenvalues    EBANDS =     -2453.73438284
  atomic energy  EATOM  =      9182.27680711
  Solvation  Ediel_sol  =         0.00000000
  ---------------------------------------------------
  free energy    TOTEN  =      -859.01267711 eV

  energy without entropy =     -858.84862346  energy(sigma->0) =     -858.93065029


--------------------------------------------------------------------------------------------------------




--------------------------------------- Iteration      1(  10)  ---------------------------------------


    POTLOK:  cpu time      2.1405: real time      2.1603
    SETDIJ:  cpu time      1.6646: real time      1.6656
    EDDIAG:  cpu time     38.8475: real time     38.8714
     EDDAV:  cpu time    196.7566: real time    196.8636
       DOS:  cpu time      0.0020: real time      0.0020
    CHARGE:  cpu time     22.4890: real time     22.5089
    MIXING:  cpu time      0.0452: real time      0.0453
    --------------------------------------------
      LOOP:  cpu time    261.9453: real time    262.1169

 eigenvalue-minimisations  :  2200
 total energy-change (2. order) :-0.5361480E-04  (-0.3275447E-04)
 number of electron     360.9999999 magnetization 
 augmentation part      -19.6638724 magnetization 

 Broyden mixing:
  rms(total) = 0.16674E-02    rms(broyden)= 0.15617E-01
  rms(prec ) = 0.19308E-02
  weight for this iteration     100.00
  WARNING: grid for Broyden might be to small

 eigenvalues of (default mixing * dielectric matrix)
  average eigenvalue GAMMA=   1.1284
  2.5909  2.5909  1.0146  1.0146  0.3788  0.7309  0.6432  0.6357  0.5563

 Free energy of the ion-electron system (eV)
  ---------------------------------------------------
  alpha Z        PSCENC =        46.11629951
  Ewald energy   TEWEN  =     56308.45688559
  -Hartree energ DENC   =    -64416.46549268
  -exchange      EXHF   =         0.00000000
  -V(xc)+E(xc)   XCENC  =      -402.49733567
  PAW double counting   =     52569.02516475   -51691.69123153
  entropy T*S    EENTRO =        -0.16433640
  eigenvalues    EBANDS =     -2454.06949141
  atomic energy  EATOM  =      9182.27680711
  Solvation  Ediel_sol  =         0.00000000
  ---------------------------------------------------
  free energy    TOTEN  =      -859.01273073 eV

  energy without entropy =     -858.84839433  energy(sigma->0) =     -858.93056253


--------------------------------------------------------------------------------------------------------




--------------------------------------- Iteration      1(  11)  ---------------------------------------


    POTLOK:  cpu time      2.1375: real time      2.1539
    SETDIJ:  cpu time      1.6654: real time      1.6664
    EDDIAG:  cpu time     38.7946: real time     38.8203
     EDDAV:  cpu time    183.6042: real time    183.7002
       DOS:  cpu time      0.0019: real time      0.0019
    CHARGE:  cpu time     22.5050: real time     22.5243
    MIXING:  cpu time      0.0462: real time      0.0462
    --------------------------------------------
      LOOP:  cpu time    248.7549: real time    248.9133

 eigenvalue-minimisations  :  1960
 total energy-change (2. order) :-0.7819712E-04  (-0.2261341E-04)
 number of electron     360.9999999 magnetization 
 augmentation part      -19.6640167 magnetization 

 Broyden mixing:
  rms(total) = 0.86097E-03    rms(broyden)= 0.84143E-02
  rms(prec ) = 0.11392E-02
  weight for this iteration     100.00
  WARNING: grid for Broyden might be to small

 eigenvalues of (default mixing * dielectric matrix)
  average eigenvalue GAMMA=   1.1449
  2.7048  2.7048  1.2169  0.9326  0.9326  0.3789  0.7406  0.5636  0.6435  0.6309

 Free energy of the ion-electron system (eV)
  ---------------------------------------------------
  alpha Z        PSCENC =        46.11629951
  Ewald energy   TEWEN  =     56308.45688559
  -Hartree energ DENC   =    -64416.10074811
  -exchange      EXHF   =         0.00000000
  -V(xc)+E(xc)   XCENC  =      -402.51306411
  PAW double counting   =     52562.89480306   -51685.55958710
  entropy T*S    EENTRO =        -0.16431005
  eigenvalues    EBANDS =     -2454.41989483
  atomic energy  EATOM  =      9182.27680711
  Solvation  Ediel_sol  =         0.00000000
  ---------------------------------------------------
  free energy    TOTEN  =      -859.01280893 eV

  energy without entropy =     -858.84849888  energy(sigma->0) =     -858.93065390


--------------------------------------------------------------------------------------------------------




--------------------------------------- Iteration      1(  12)  ---------------------------------------


    POTLOK:  cpu time      2.1320: real time      2.1513
    SETDIJ:  cpu time      1.6656: real time      1.6665
    EDDIAG:  cpu time     38.7951: real time     38.8200
     EDDAV:  cpu time    181.6910: real time    181.7911
       DOS:  cpu time      0.0110: real time      0.0111
    CHARGE:  cpu time     22.5208: real time     22.5398
    MIXING:  cpu time      0.0621: real time      0.0622
    --------------------------------------------
      LOOP:  cpu time    246.8784: real time    247.0430

 eigenvalue-minimisations  :  1920
 total energy-change (2. order) :-0.8854200E-04  (-0.1677956E-04)
 number of electron     360.9999999 magnetization 
 augmentation part      -19.6641044 magnetization 

 Broyden mixing:
  rms(total) = 0.49060E-03    rms(broyden)= 0.35146E-02
  rms(prec ) = 0.74039E-03
  weight for this iteration     100.00
  WARNING: grid for Broyden might be to small

 eigenvalues of (default mixing * dielectric matrix)
  average eigenvalue GAMMA=   1.1416
  2.7680  2.7680  1.4473  0.3789  0.9501  0.8965  0.8805  0.5579  0.6442  0.6442
  0.6216

 Free energy of the ion-electron system (eV)
  ---------------------------------------------------
  alpha Z        PSCENC =        46.11629951
  Ewald energy   TEWEN  =     56308.45688559
  -Hartree energ DENC   =    -64415.81867858
  -exchange      EXHF   =         0.00000000
  -V(xc)+E(xc)   XCENC  =      -402.52258234
  PAW double counting   =     52561.04832681   -51683.71277699
  entropy T*S    EENTRO =        -0.16430984
  eigenvalues    EBANDS =     -2454.69286873
  atomic energy  EATOM  =      9182.27680711
  Solvation  Ediel_sol  =         0.00000000
  ---------------------------------------------------
  free energy    TOTEN  =      -859.01289747 eV

  energy without entropy =     -858.84858763  energy(sigma->0) =     -858.93074255


--------------------------------------------------------------------------------------------------------




--------------------------------------- Iteration      1(  13)  ---------------------------------------


    POTLOK:  cpu time      2.1387: real time      2.1569
    SETDIJ:  cpu time      1.6768: real time      1.6786
    EDDIAG:  cpu time     38.8907: real time     38.9142
     EDDAV:  cpu time    181.9027: real time    182.0013
       DOS:  cpu time      0.0019: real time      0.0020
    CHARGE:  cpu time     22.5361: real time     22.5562
    MIXING:  cpu time      0.0476: real time      0.0477
    --------------------------------------------
      LOOP:  cpu time    247.1937: real time    247.3558

 eigenvalue-minimisations  :  1920
 total energy-change (2. order) :-0.1356830E-03  (-0.2025735E-04)
 number of electron     360.9999999 magnetization 
 augmentation part      -19.6641602 magnetization 

 Broyden mixing:
  rms(total) = 0.31513E-03    rms(broyden)= 0.19774E-02
  rms(prec ) = 0.52076E-03
  weight for this iteration     100.00
  WARNING: grid for Broyden might be to small

 eigenvalues of (default mixing * dielectric matrix)
  average eigenvalue GAMMA=   1.1685
  2.8395  2.8395  1.8732  1.1624  0.9993  0.3789  0.7507  0.7507  0.6435  0.6435
  0.5543  0.5870

 Free energy of the ion-electron system (eV)
  ---------------------------------------------------
  alpha Z        PSCENC =        46.11629951
  Ewald energy   TEWEN  =     56308.45688559
  -Hartree energ DENC   =    -64415.54167959
  -exchange      EXHF   =         0.00000000
  -V(xc)+E(xc)   XCENC  =      -402.52868549
  PAW double counting   =     52561.30394685   -51683.96852295
  entropy T*S    EENTRO =        -0.16431739
  eigenvalues    EBANDS =     -2454.96376678
  atomic energy  EATOM  =      9182.27680711
  Solvation  Ediel_sol  =         0.00000000
  ---------------------------------------------------
  free energy    TOTEN  =      -859.01303315 eV

  energy without entropy =     -858.84871577  energy(sigma->0) =     -858.93087446


--------------------------------------------------------------------------------------------------------




--------------------------------------- Iteration      1(  14)  ---------------------------------------


    POTLOK:  cpu time      2.1519: real time      2.1535
    SETDIJ:  cpu time      1.6565: real time      1.6578
    EDDIAG:  cpu time     38.8511: real time     38.8740
     EDDAV:  cpu time    182.2475: real time    182.3470
       DOS:  cpu time      0.0036: real time      0.0036
    CHARGE:  cpu time     22.5006: real time     22.5204
    MIXING:  cpu time      0.0484: real time      0.0484
    --------------------------------------------
      LOOP:  cpu time    247.4597: real time    247.6047

 eigenvalue-minimisations  :  1928
 total energy-change (2. order) :-0.1395224E-03  (-0.1983794E-04)
 number of electron     360.9999999 magnetization 
 augmentation part      -19.6642094 magnetization 

 Broyden mixing:
  rms(total) = 0.22117E-03    rms(broyden)= 0.15972E-02
  rms(prec ) = 0.37579E-03
  weight for this iteration     100.00
  WARNING: grid for Broyden might be to small

 eigenvalues of (default mixing * dielectric matrix)
  average eigenvalue GAMMA=   1.2020
  3.1185  2.7300  2.2264  1.3314  0.9636  0.9636  0.3789  0.7531  0.7531  0.6635
  0.6220  0.5612  0.5612

 Free energy of the ion-electron system (eV)
  ---------------------------------------------------
  alpha Z        PSCENC =        46.11629951
  Ewald energy   TEWEN  =     56308.45688559
  -Hartree energ DENC   =    -64415.30391099
  -exchange      EXHF   =         0.00000000
  -V(xc)+E(xc)   XCENC  =      -402.53342862
  PAW double counting   =     52561.42921638   -51684.09412116
  entropy T*S    EENTRO =        -0.16431903
  eigenvalues    EBANDS =     -2455.19660147
  atomic energy  EATOM  =      9182.27680711
  Solvation  Ediel_sol  =         0.00000000
  ---------------------------------------------------
  free energy    TOTEN  =      -859.01317267 eV

  energy without entropy =     -858.84885365  energy(sigma->0) =     -858.93101316


--------------------------------------------------------------------------------------------------------




--------------------------------------- Iteration      1(  15)  ---------------------------------------


    POTLOK:  cpu time      2.1379: real time      2.1513
    SETDIJ:  cpu time      1.6570: real time      1.6579
    EDDIAG:  cpu time     38.8485: real time     38.8722
     EDDAV:  cpu time    182.5676: real time    182.6676
       DOS:  cpu time      0.0030: real time      0.0030
    CHARGE:  cpu time     22.5234: real time     22.5442
    MIXING:  cpu time      0.0494: real time      0.0494
    --------------------------------------------
      LOOP:  cpu time    247.7868: real time    247.9457

 eigenvalue-minimisations  :  1936
 total energy-change (2. order) :-0.1732944E-03  (-0.2938003E-04)
 number of electron     360.9999999 magnetization 
 augmentation part      -19.6642561 magnetization 

 Broyden mixing:
  rms(total) = 0.14224E-03    rms(broyden)= 0.15656E-02
  rms(prec ) = 0.22982E-03
  weight for this iteration     100.00
  WARNING: grid for Broyden might be to small

 eigenvalues of (default mixing * dielectric matrix)
  average eigenvalue GAMMA=   1.2379
  3.3798  2.6724  2.5196  1.4893  1.1408  1.0121  0.8176  0.8176  0.3789  0.6895
  0.6633  0.6273  0.5613  0.5613

 Free energy of the ion-electron system (eV)
  ---------------------------------------------------
  alpha Z        PSCENC =        46.11629951
  Ewald energy   TEWEN  =     56308.45688559
  -Hartree energ DENC   =    -64415.02156973
  -exchange      EXHF   =         0.00000000
[...]
   0.385E+01 0.220E+02 0.322E+03   -.301E+01 -.197E+02 -.319E+03   -.102E+01 -.185E+01 -.193E+01   -.853E-05 0.551E-05 -.485E-04
   -.825E+01 0.991E+01 0.104E+03   0.842E+01 -.955E+01 -.102E+03   -.341E+00 -.134E+00 -.136E+01   0.304E-04 -.342E-04 0.196E-04
   -.186E+02 0.235E+02 -.172E+03   0.203E+02 -.235E+02 0.171E+03   -.162E+01 -.236E+00 0.917E+00   -.675E-04 0.166E-04 0.824E-04
   0.224E+02 -.114E+02 -.319E+03   -.223E+02 0.104E+02 0.318E+03   0.239E+00 0.755E+00 0.187E+01   0.258E-04 0.135E-04 0.480E-04
   0.118E+02 0.658E+00 0.372E+03   -.118E+02 -.276E+01 -.372E+03   -.525E-01 0.192E+01 -.426E+00   -.106E-04 0.171E-04 -.423E-04
   -.537E+01 0.910E+00 -.216E+02   0.525E+01 0.764E-01 0.212E+02   -.138E+00 -.819E+00 0.292E+00   -.184E-04 0.125E-04 -.696E-04
   0.131E+02 0.980E+01 -.183E+03   -.141E+02 -.900E+01 0.183E+03   0.901E+00 -.881E+00 -.907E-01   0.116E-04 0.175E-04 0.369E-04
   -.159E+01 0.227E+02 0.332E+03   0.673E+00 -.220E+02 -.333E+03   0.874E+00 -.673E+00 0.831E+00   -.165E-04 -.724E-04 -.774E-04
   0.188E+02 -.211E+02 -.339E+03   -.194E+02 0.225E+02 0.340E+03   0.573E+00 -.117E+01 -.499E+00   -.134E-04 -.127E-04 0.768E-04
   0.484E+01 -.339E+01 0.470E+02   -.449E+01 0.406E+01 -.460E+02   -.472E+00 -.711E+00 -.825E+00   -.101E-04 0.133E-04 -.363E-04
   -.442E+02 0.378E+01 0.268E+03   0.436E+02 -.334E+01 -.268E+03   0.450E+00 -.545E-01 -.164E+00   0.142E-05 0.106E-04 -.594E-04
   -.204E+02 0.305E+02 -.311E+03   0.202E+02 -.298E+02 0.306E+03   0.371E+00 -.101E+01 0.445E+01   -.652E-04 0.203E-04 0.503E-04
   -.950E+01 0.138E+02 0.342E+03   0.961E+01 -.136E+02 -.342E+03   -.107E+00 -.330E+00 0.771E-01   0.157E-04 -.266E-04 -.108E-03
   0.882E+01 0.348E+02 -.323E+03   -.933E+01 -.343E+02 0.323E+03   0.410E+00 0.143E+00 -.218E+00   0.416E-04 0.495E-05 0.531E-04
   0.354E+01 -.250E+02 -.812E+02   -.464E+01 0.244E+02 0.827E+02   0.912E+00 0.724E+00 -.164E+01   0.291E-05 -.133E-04 0.452E-04
   -.384E+02 -.935E+01 0.131E+02   0.354E+02 0.723E+01 -.135E+02   0.276E+01 0.181E+01 0.240E+00   -.372E-04 0.441E-04 0.550E-05
   -.114E+02 -.882E+01 0.276E+03   0.129E+02 0.636E+01 -.274E+03   -.132E+01 0.202E+01 -.204E+01   0.142E-04 -.188E-04 -.438E-04
   -.483E+02 0.142E+02 -.302E+03   0.460E+02 -.148E+02 0.299E+03   0.216E+01 0.925E-01 0.361E+01   0.314E-05 0.840E-04 0.715E-04
   -.442E+02 0.298E+02 -.315E+03   0.434E+02 -.277E+02 0.317E+03   0.821E+00 -.198E+01 -.116E+01   0.271E-05 0.454E-04 0.999E-04
   0.981E+01 0.162E+02 0.124E+03   -.950E+01 -.157E+02 -.124E+03   -.599E+00 -.659E+00 -.147E+00   0.112E-04 -.148E-04 -.347E-04
   0.262E+02 0.974E+01 0.143E+03   -.221E+02 -.107E+02 -.144E+03   -.349E+01 0.120E+01 0.667E+00   -.164E-04 0.207E-04 -.208E-04
   0.190E+02 0.133E+02 0.265E+02   -.167E+02 -.121E+02 -.270E+02   -.232E+01 -.103E+01 0.506E+00   0.192E-04 0.244E-04 0.469E-04
   0.102E+02 0.187E+02 0.167E+03   -.105E+02 -.173E+02 -.168E+03   0.348E+00 -.163E+01 0.913E+00   -.404E-05 -.123E-04 -.324E-04
   -.151E+02 0.240E+02 -.266E+03   0.148E+02 -.222E+02 0.263E+03   0.329E+00 -.148E+01 0.341E+01   0.424E-06 -.347E-04 0.841E-04
   0.292E+02 0.939E+01 -.172E+03   -.273E+02 -.100E+02 0.172E+03   -.187E+01 0.486E+00 -.225E+00   0.742E-05 0.125E-04 0.727E-04
   0.904E+01 -.107E+02 0.276E+03   -.753E+01 0.914E+01 -.273E+03   -.159E+01 0.138E+01 -.273E+01   0.459E-05 0.442E-04 -.442E-04
   -.158E+02 0.190E+02 -.306E+03   0.168E+02 -.199E+02 0.306E+03   -.713E+00 0.111E+01 0.589E-03   -.156E-04 0.735E-04 0.670E-04
   0.155E+02 -.190E+01 0.206E+03   -.162E+02 0.106E+01 -.205E+03   0.581E+00 0.784E+00 -.962E+00   -.159E-04 0.473E-04 -.204E-04
   0.118E+02 0.574E+01 0.312E+03   -.116E+02 -.448E+01 -.313E+03   -.589E+00 -.781E+00 0.641E+00   -.488E-05 -.235E-04 -.677E-04
   -.586E+01 0.108E+02 -.276E+03   0.546E+01 -.117E+02 0.275E+03   0.393E+00 0.861E+00 0.151E+01   -.138E-04 0.349E-04 0.377E-04
   -.340E+02 -.692E+01 -.478E+02   0.316E+02 0.449E+01 0.476E+02   0.217E+01 0.246E+01 -.629E-01   0.312E-05 0.435E-04 0.622E-04
   -.225E+02 -.107E+01 0.373E+02   0.193E+02 0.195E+01 -.380E+02   0.316E+01 -.958E+00 0.736E+00   0.258E-04 0.223E-04 0.440E-04
   -.227E+02 0.335E+01 -.182E+03   0.223E+02 -.250E+01 0.180E+03   0.453E+00 -.771E+00 0.122E+01   0.102E-04 -.368E-04 0.454E-04
   0.201E+02 0.761E+01 -.158E+03   -.191E+02 -.912E+01 0.157E+03   -.942E+00 0.136E+01 0.929E+00   0.202E-04 0.343E-04 0.127E-04
   -.834E+01 0.138E+02 0.513E+02   0.877E+01 -.112E+02 -.510E+02   -.266E+00 -.236E+01 -.445E+00   -.792E-05 0.178E-05 -.910E-05
   0.113E+02 0.192E+02 0.281E+03   -.118E+02 -.179E+02 -.278E+03   0.630E+00 -.121E+01 -.246E+01   -.404E-04 -.683E-04 -.665E-04
   0.167E+02 0.858E+01 -.246E+03   -.149E+02 -.899E+01 0.246E+03   -.176E+01 0.221E+00 0.331E+00   -.152E-04 0.314E-04 0.463E-04
   -.172E+02 -.457E+01 -.279E+03   0.149E+02 0.564E+01 0.277E+03   0.188E+01 -.123E+01 0.140E+01   0.248E-04 -.978E-05 0.568E-04
 -----------------------------------------------------------------------------------------------
   -.813E+01 -.107E+02 -.101E+02   -.142E-13 0.568E-13 0.000E+00   0.814E+01 0.107E+02 0.101E+02   0.668E-04 -.407E-05 0.382E-03


 POSITION                                       TOTAL-FORCE (eV/Angst)
 -----------------------------------------------------------------------------------
      6.57554     11.29642     12.63811         0.070874     -0.246201      0.094446
      5.98147      7.18026     11.28601        -0.011221     -0.023581      0.036948
      8.07620      6.85487     17.13265         0.048698     -0.056253      0.057564
      6.89507      0.88413     15.84983         0.324109     -0.194214     -0.398039
     11.11202      1.39174     13.92024         0.101631      0.095826     -0.058867
      3.20272      2.20114     15.79854        -0.014659     -0.064280      0.047821
      0.51353      4.09353     13.30603         0.262787     -0.140201     -0.093313
      8.39685      6.98375     14.39514        -0.153749      0.050633      0.053410
      7.56197      9.46054      8.96126         0.021017     -0.017974     -0.187450
      6.23114      3.40428     18.27732        -0.210068      0.122581     -0.448745
     11.24046      9.36660     11.98196         0.024335     -0.029597      0.006708
     10.95973      9.57453     14.38512        -0.118696      0.043391     -0.053963
      5.47609      1.69499     15.76622         0.178835     -0.052843      0.638391
      9.54056     10.85550     11.07185         0.227247      0.115748     -0.251902
      9.33713      5.71162     17.20461         0.361960      0.000267     -0.098198
      8.88418     13.06208     10.42687        -0.327877     -0.447821      0.067682
      5.53587      7.99024     14.89768        -0.014561      0.130680      0.041236
      1.83411      9.22222     14.81318         0.258300     -0.094765     -0.141257
      2.83755      6.67293     12.36564        -0.013491      0.138784      0.134150
      0.64394     13.14981     17.05170        -0.125743     -0.215659      0.240082
      7.38198      7.61798     11.57394         0.037700      0.137020      0.065049
     11.63443      3.64692     12.16526         0.178654      0.172265     -0.193272
      3.89333     10.30119     12.07447        -0.092549      0.125970     -0.299130
      7.57244      8.10726     13.83119        -0.012657     -0.056379      0.002886
      6.20543      9.47832     17.86935        -0.513552      0.176207     -0.066065
      1.80827      3.28294     13.23822        -0.855182      0.205537      0.168516
      4.42175      6.16404     14.03096         0.037496      0.010181     -0.111334
      3.95516     10.18055     17.63970         0.537933     -0.229353      0.162133
      8.24491      3.64793     17.18436         0.040090      0.354623      0.200492
      6.97999      3.38776     15.17153         0.151486     -0.222994     -0.016808
      2.58948      4.59651     11.30953         0.522651     -0.312430     -0.022015
      1.17956      1.08777     12.72305         0.048197     -0.237313      0.134144
      9.73154     12.16152     17.16458         0.101487     -0.015242      0.036404
      0.92610      7.65561     13.32459        -0.052997     -0.660693     -0.151902
      4.19608     11.62487     15.83530         0.015381      0.161346     -0.029890
      3.30820     12.58011     11.71960         0.511022     -0.328453     -0.082706
     12.97797      0.42429     10.95437         0.125534      0.024958      0.504571
      8.67988      9.98365     14.60095        -0.063527     -0.069677      0.008686
      5.87525      4.45494     13.39376        -0.143091      0.054220      0.180682
      9.53883      0.68266     10.96230         0.583724      0.412804      0.324016
     13.73693     11.38684     16.33941        -0.195997     -0.057895      0.141442
      2.20697     12.77497     15.32513         0.313680      0.124333     -0.178626
      6.92323      4.09008     11.28484         0.190808     -0.032535     -0.146440
      5.20590      1.28169     18.07775        -0.937623     -0.125242      0.429209
     11.75569      7.47286     15.01475        -0.061438     -0.033087      0.017724
      0.66060     11.20750     14.49176        -0.116527      0.105466      0.049280
      0.68415      0.60669     10.48880         0.117682      0.228528     -0.620563
      4.07092      9.78903     14.36714         0.032233     -0.207950      0.046540
     11.68038      5.85391     18.20135         0.107967      0.063914      0.158748
     11.38331      1.97111     10.50223        -0.454468     -0.188606     -0.001472
      0.57960      8.77181     11.35487         0.233620      0.199253      0.497481
      4.68519      0.85680     13.72303        -0.265903     -0.052271     -0.131600
      9.66454      4.41880     13.20150         0.080793     -0.064267     -0.035419
      8.82657      5.77290     11.43169         0.055089      0.152141     -0.069353
     14.27072      5.98682     16.14138         0.093463      0.064109      0.213260
     12.85152      7.60733     17.07425         0.042260      0.147503      0.146312
     10.82884     13.06473     13.95831         0.073309     -0.053169     -0.082330
      1.91612      8.91980     17.13778        -0.086040     -0.065563      0.210023
      5.33577     13.15522     10.61903        -0.089659      0.269880     -0.231797
      1.16738     12.94585     11.03484        -0.220406      0.375127      0.569334
      9.01035     11.80059     13.12615        -0.166004      0.249376      0.141496
     11.54812      3.45330     15.91300        -0.041152     -0.233269     -0.114502
      5.20982      5.31390     17.47474         0.427921     -0.236665      0.284918
      4.62899      3.62785     10.59607        -0.152086     -0.017745     -0.057945
     13.87937      0.69299     14.11484        -0.299816      0.143672     -0.075005
      3.42992      5.27685     15.99456        -0.000029     -0.104659     -0.033329
      7.64805      9.64246     10.42341        -0.004174      0.000429     -0.089887
     14.16983      9.47075     17.62034        -0.047412      0.142648      0.004019
      2.78798     14.08424     13.49688        -0.125147     -0.079930      0.118445
     12.84105      5.62273     11.81360        -0.375099      0.394529      0.144751
     13.26436      4.22496     17.23180         0.205074     -0.283387      0.079541
      2.83703      8.57390     10.88922        -0.130319     -0.084375      0.234764
      6.89267     14.44432     17.16827        -0.080148      0.686940      0.033255
     10.43583      5.47037     15.18453        -0.119413      0.169002     -0.172363
     12.27255      2.35728     13.98709        -0.167225     -0.269634     -0.058305
     10.94890      6.98959     11.53951         0.100925     -0.347157      0.131857
      9.24855     14.51145     16.93877        -0.130088     -0.422339      0.015452
     10.04400      2.18570     17.26923         0.001850      0.033506     -0.065232
     12.78714     13.57219     12.83420        -0.298700     -0.244891     -0.220311
      4.19457      2.92471     12.76809         0.388966      0.461764     -0.441698
      7.47272     13.37707     13.86715        -0.013080      0.198622      0.074972
     14.22524     11.78077     12.40594         0.035887     -0.301384      0.030050
      7.77705     10.87382     16.60243         0.045155      0.231722     -0.087492
      6.36101     12.58357     15.83044        -0.018213     -0.099152     -0.124702
      7.66444      1.83477     11.69568        -0.126257     -0.121622     -0.104072
      0.47424      2.66974     17.12597         0.130846      0.286924      0.148223
      6.27286      0.02444     12.25304        -0.040919     -0.003436     -0.209005
     13.30462     10.09030     11.09789        -0.264509      0.358605     -0.379164
      1.81697      6.63937     16.82515         0.002546      0.057725     -0.132155
      9.27276      0.22558     14.60355        -0.110752      0.135182     -0.260614
      8.55161      2.37022     13.77026         0.148518     -0.116632      0.039989
     11.48813     11.55560     15.66904         0.069813      0.026062     -0.113943
      2.18974      3.30088     15.62326         0.097752     -0.106476      0.022511
     13.55776      6.46289     13.91834         0.147203      0.155894     -0.117122
      5.97125     11.00245     11.28951         0.196696      0.063810      0.340610
     14.30537      0.61558     16.39616         0.045680     -0.165609     -0.368880
      6.33682      7.31128     17.03504        -0.294658     -0.224838     -0.102037
 -----------------------------------------------------------------------------------
    total drift:                                0.013805     -0.008026      0.005985


--------------------------------------------------------------------------------------------------------



  FREE ENERGIE OF THE ION-ELECTRON SYSTEM (eV)
  ---------------------------------------------------
  free  energy   TOTEN  =      -859.01351237 eV

  energy  without entropy=     -858.84917657  energy(sigma->0) =     -858.93134447



--------------------------------------------------------------------------------------------------------


    POTLOK:  cpu time      3.7864: real time      3.7889


--------------------------------------------------------------------------------------------------------


     LOOP+:  cpu time   5395.4084: real time   5398.9793
    4ORBIT:  cpu time      0.0000: real time      0.0000



 total charge

# of ion       s       p       d       tot
------------------------------------------
    1        0.569   0.017   0.000   0.586
    2        0.564   0.015   0.000   0.579
    3        0.523   0.016   0.000   0.539
    4        0.578   0.023   0.000   0.601
    5        0.568   0.018   0.000   0.586
    6        0.567   0.017   0.000   0.583
    7        0.546   0.015   0.000   0.561
    8        0.566   0.016   0.000   0.582
    9        0.572   0.016   0.000   0.588
   10        0.788   0.860   0.000   1.648
   11        0.759   0.873   0.000   1.633
   12        0.756   0.920   0.000   1.677
   13        0.786   0.871   0.000   1.657
   14        0.763   0.911   0.000   1.674
   15        0.783   0.871   0.000   1.654
   16        0.849   0.738   0.000   1.587
   17        0.752   0.956   0.000   1.708
   18        0.760   0.937   0.000   1.697
   19        0.757   0.925   0.000   1.682
   20        0.808   0.848   0.000   1.656
   21        0.741   0.988   0.000   1.729
   22        0.754   0.927   0.000   1.682
   23        0.755   0.930   0.000   1.685
   24        0.747   1.002   0.000   1.748
   25        0.790   0.834   0.000   1.624
   26        0.734   0.953   0.000   1.687
   27        0.761   0.940   0.000   1.701
   28        0.780   0.845   0.000   1.626
   29        0.752   0.940   0.000   1.692
   30        0.767   0.919   0.000   1.687
   31        0.830   0.806   0.000   1.636
   32        0.760   0.927   0.000   1.687
   33        0.789   0.830   0.000   1.619
   34        0.761   0.942   0.000   1.703
   35        0.753   0.937   0.000   1.690
   36        0.761   0.932   0.000   1.693
   37        0.795   0.860   0.000   1.655
   38        0.756   0.948   0.000   1.704
   39        0.768   0.918   0.000   1.686
   40        0.785   0.875   0.000   1.659
   41        0.753   0.933   0.000   1.686
   42        0.759   0.931   0.000   1.690
   43        0.793   0.813   0.000   1.606
   44        0.833   0.823   0.000   1.656
   45        0.762   0.921   0.000   1.683
   46        0.770   0.929   0.000   1.698
   47        0.814   0.876   0.000   1.690
   48        0.763   0.926   0.000   1.689
   49        0.838   0.736   0.000   1.574
   50        0.782   0.901   0.000   1.683
   51        0.788   0.890   0.000   1.678
   52        0.765   0.953   0.000   1.718
   53        0.763   0.905   0.000   1.668
   54        0.757   0.869   0.000   1.625
   55        0.764   0.942   0.000   1.706
   56        0.754   0.948   0.000   1.702
   57        0.760   0.927   0.000   1.688
   58        0.750   0.912   0.000   1.662
   59        0.805   0.849   0.000   1.654
   60        0.808   0.859   0.000   1.667
   61        0.761   0.940   0.000   1.702
   62        0.760   0.926   0.000   1.686
   63        0.768   0.898   0.000   1.665
   64        0.823   0.810   0.000   1.634
   65        0.761   0.945   0.000   1.705
   66        0.752   0.960   0.000   1.711
   67        0.738   0.995   0.000   1.732
   68        0.790   0.850   0.000   1.640
   69        0.755   0.946   0.000   1.702
   70        0.795   0.851   0.000   1.646
   71        0.764   0.927   0.000   1.692
   72        0.799   0.851   0.000   1.650
   73        0.781   0.883   0.000   1.664
   74        0.761   0.913   0.000   1.674
   75        0.760   0.978   0.000   1.738
   76        0.797   0.808   0.000   1.605
   77        0.752   0.917   0.000   1.668
   78        0.786   0.850   0.000   1.636
   79        0.762   0.939   0.000   1.701
   80        0.770   0.912   0.000   1.682
   81        0.765   0.928   0.000   1.693
   82        0.750   0.939   0.000   1.689
   83        0.747   0.903   0.000   1.649
   84        0.748   0.935   0.000   1.683
   85        0.753   0.949   0.000   1.702
   86        0.787   0.866   0.000   1.653
   87        0.758   0.942   0.000   1.699
   88        0.786   0.893   0.000   1.678
   89        0.782   0.907   0.000   1.689
   90        0.767   0.888   0.000   1.655
   91        0.765   0.927   0.000   1.692
   92        0.750   0.910   0.000   1.659
   93        0.760   0.930   0.000   1.689
   94        0.769   0.911   0.000   1.680
   95        0.756   0.972   0.000   1.728
   96        0.781   0.895   0.000   1.676
   97        0.775   0.866   0.000   1.642
--------------------------------------------------
tot         72.968  79.616   0.000 152.584


 total amount of memory used by VASP MPI-rank0   361091. kBytes
=======================================================================

   base                                    :      30000. kBytes
   nonl-proj                               :      72718. kBytes
   fftplans                                :     108867. kBytes
   grid                                    :      83991. kBytes
   one-center                              :         21. kBytes
   wavefun                                 :      65494. kBytes

  
  
 General timing and accounting informations for this job:
 ========================================================
  
                  Total CPU time used (sec):     5541.940
                            User time (sec):     4977.868
                          System time (sec):      564.073
                         Elapsed time (sec):     5545.600
  
                   Maximum memory used (kb):      627392.
                   Average memory used (kb):          N/A
  
                          Minor page faults:      6926896
                          Major page faults:         1167
                 Voluntary context switches:         2867
