ITEM: TIMESTEP
384866
ITEM: NUMBER OF ATOMS
12000
ITEM: BOX BOUNDS pp pp pp
-1.0266684121605818e+00 5.8947852018336491e+01
-1.0266684121605818e+00 5.8947852018336491e+01
-1.0266684121605818e+00 7.8326296674841188e+01
ITEM: ATOMS id type xs ys zs
1 2 0.247092 0.543357 0.469163
2 2 0.219741 0.877254 0.830693
3 2 0.0901852 0.346259 0.260439
4 2 0.202035 0.490439 0.307741
5 2 0.194463 0.386467 0.0549209
6 2 0.0349727 0.140432 0.714402
7 2 0.0121926 0.107346 0.240859
8 2 0.483197 0.985661 0.0789482
9 2 0.238371 0.456738 0.349463
10 2 0.357669 0.355035 0.97287
11 2 0.389889 0.0663105 0.0113355
12 2 0.451261 0.296792 0.426407
13 2 0.0328873 0.0529322 0.486335
14 2 0.332115 0.112798 0.530735
15 2 0.341357 0.327016 0.0186658
16 2 0.360356 0.166239 0.336952
17 2 0.19302 0.216013 0.104079
18 2 0.228125 0.498753 0.395888
19 2 0.107053 0.66833 0.343976
20 2 0.0417428 0.893931 0.840699
21 2 0.201014 0.166764 0.313379
22 2 0.330377 0.0309683 0.357726
23 2 0.973614 0.29244 0.337672
24 2 0.672247 0.576212 0.252311
25 2 0.949066 0.435611 0.3617
26 2 0.584639 0.67349 0.0769363
27 2 0.250466 0.923145 0.508778
28 2 0.280599 0.918102 0.133495
29 2 0.307221 0.897103 0.223406
30 2 0.451622 0.92399 0.286775
31 2 0.851387 0.450171 0.321655
32 2 0.0742123 0.584651 0.403317
33 2 0.0496455 0.763377 0.666404
34 2 0.0477237 0.651876 0.285072
35 2 0.367483 0.256423 0.591522
36 2 0.910458 0.0650351 0.306314
37 2 0.510267 0.420191 0.298344
38 2 0.579609 0.463877 0.166825
39 2 0.698867 0.537434 0.279331
40 2 0.137026 0.00595498 0.155842
41 2 0.847775 0.307422 0.172022
42 2 0.330388 0.928259 0.226634
43 2 0.122432 0.243695 0.13641
44 2 0.210549 0.38028 0.191916
45 2 0.147677 0.798752 0.682314
46 2 0.442941 0.267232 0.998249
47 2 0.065371 0.158414 0.75583
48 2 0.734217 0.0839702 0.15891
49 2 0.972286 0.140002 0.474307
50 2 0.0424019 0.822037 0.239945
51 2 0.766701 0.231231 0.291181
52 2 0.00246621 0.1182 0.11183
53 2 0.188994 0.203739 0.369578
54 2 0.212895 0.150123 0.440255
55 2 0.976233 0.130851 0.205626
56 2 0.368146 0.483482 0.806992
57 2 0.872572 0.320587 0.30483
58 2 0.295067 0.205104 0.0336184
59 2 0.250961 0.742038 0.338992
60 2 0.956007 0.681178 0.751621
61 2 0.1692 0.92198 0.826775
62 2 0.406842 0.365831 0.259308
63 2 0.260137 0.474742 0.394304
64 2 0.0733023 0.223658 0.285789
65 2 0.460316 0.00892038 0.203204
66 2 0.778069 0.575996 0.310316
67 2 0.0489842 0.955718 0.233907
68 2 0.371819 0.99475 0.429979
69 2 0.179523 0.272132 0.114057
70 2 0.188416 0.807893 0.173556
71 2 0.416656 0.440171 0.599821
72 2 0.25945 0.723113 0.364736
73 2 0.128812 0.542689 0.32098
74 2 0.237858 0.724331 0.03759
75 2 0.127669 0.841098 0.347855
76 2 0.595601 0.462902 0.230786
77 2 0.814957 0.278486 0.350917
78 2 0.20656 0.364781 0.727502
79 2 0.935787 0.87123 0.306499
80 2 0.688342 0.131005 0.242273
81 2 0.649875 0.442701 0.220891
82 2 0.361933 0.499783 0.656217
83 2 0.40458 0.361684 0.444874
84 2 0.26939 0.239698 0.174113
85 2 0.255803 0.0413999 0.159505
86 2 0.197014 0.937264 0.243016
87 2 0.259395 0.780868 0.442261
88 2 0.0615011 0.82783 0.881459
89 2 0.179716 0.949089 0.44923
90 2 0.0116733 0.00292848 0.238045
91 2 0.343636 0.338508 0.368887
92 2 0.40484 0.264212 0.428767
93 2 0.513889 0.809359 0.264763
94 2 0.823116 0.0701298 0.152137
95 2 0.314151 0.440804 0.320453
96 2 0.203032 0.584452 0.287695
97 2 0.141269 0.683001 0.238198
98 2 0.277948 0.535014 0.43163
99 2 0.221942 0.0592498 0.152091
100 2 0.0509903 0.0334756 0.595862
101 2 0.0514052 0.395166 0.121339
102 2 0.531606 0.142175 0.218763
103 2 0.891551 0.923258 0.290743
104 2 0.531828 0.49206 0.338502
105 2 0.159525 0.255605 0.276626
106 2 0.00900802 0.21612 0.373991
107 2 0.517033 0.457268 0.39285
108 2 0.950517 0.961336 0.763046
109 2 0.133349 0.851682 0.305887
110 2 0.220427 0.662633 0.046785
111 2 0.678003 0.273418 0.234289
112 2 0.701005 0.373015 0.180803
113 2 0.790155 0.570765 0.12737
114 2 0.625849 0.427595 0.271062
115 2 0.517347 0.615981 0.104739
116 2 0.237407 0.341162 0.730717
117 2 0.295033 0.23686 0.270281
118 2 0.0929753 0.190094 0.279778
119 2 0.36577 0.387313 0.290064
120 2 0.422564 0.242068 0.144213
121 2 0.91541 0.429844 0.194268
122 2 0.288412 0.378476 0.152687
123 2 0.0755468 0.522856 0.720609
124 2 0.275389 0.334881 0.377467
125 2 0.0932538 0.557576 0.783715
126 2 0.995041 0.0059646 0.702986
127 2 0.658832 0.180894 0.187297
128 2 0.0687204 0.840699 0.165902
129 2 0.201748 0.390261 0.749858
130 2 0.986734 0.0589084 0.527947
131 2 0.246873 0.887698 0.756379
132 2 0.384348 0.480421 0.174484
133 2 0.390107 0.578549 0.494082
134 2 0.70688 0.365952 0.329106
135 2 0.546123 0.486778 0.536514
136 2 0.362161 0.718173 0.286912
137 2 0.410938 0.554134 0.16087
138 2 0.190302 0.468111 0.328848
139 2 0.523534 0.530876 0.821808
140 2 0.081239 0.202094 0.347082
141 2 0.467705 0.239928 0.44789
142 2 0.051503 0.023101 0.361206
143 2 0.469873 0.126796 0.36946
144 2 0.334831 0.974316 0.320274
145 2 0.186155 0.374259 0.312482
146 2 0.493328 0.777123 0.412256
147 2 0.316979 0.246412 0.408284
148 2 0.408719 0.593658 0.160703
149 2 0.554115 0.321895 0.351864
150 2 0.0568742 0.31837 0.724798
151 2 0.516727 0.19928 0.474511
152 2 0.40445 0.086013 0.987907
153 2 0.320278 0.383255 0.329883
154 2 0.367751 0.518257 0.133251
155 2 0.251361 0.585924 0.32898
156 2 0.326681 0.199422 0.3778
157 2 0.241085 0.540902 0.438628
158 2 0.188816 0.276958 0.404894
159 2 0.437477 0.174237 0.379238
160 2 0.629049 0.117373 0.290158
161 2 0.0245871 0.948011 0.505317
162 2 0.43273 0.385158 0.124264
163 2 0.490264 0.888195 0.315794
164 2 0.021762 0.824432 0.878842
165 2 0.0407913 0.207758 0.0448639
166 2 0.145881 0.368037 0.319509
167 2 0.206382 0.54274 0.332636
168 2 0.0483347 0.376279 0.496152
169 2 0.593926 0.11536 0.231523
170 2 0.423292 0.940748 0.15353
171 2 0.308588 0.492578 0.217267
172 2 0.970617 0.883068 0.373279
173 2 0.106359 0.0414753 0.530121
174 2 0.266823 0.503242 0.557388
175 2 0.25059 0.79951 0.200669
176 2 0.155618 0.193985 0.152679
177 2 0.124653 0.141808 0.237565
178 2 0.208681 0.393288 0.423502
179 2 0.128685 0.243615 0.0502681
180 2 0.158921 0.131162 0.197738
181 2 0.27694 0.880662 0.426636
182 2 0.629204 0.359302 0.0574505
183 2 0.121917 0.247261 0.366399
184 2 0.255319 0.180854 0.148282
185 2 0.312572 0.247992 0.222867
186 2 0.372329 0.151339 0.273789
187 2 0.214156 0.368602 0.333613
188 2 0.942849 0.115162 0.478299
189 2 0.20871 0.143515 0.12478
190 2 0.274525 0.467334 0.250295
191 2 0.281401 0.620699 0.790268
192 2 0.0584773 0.109032 0.36961
193 2 0.288107 0.308939 0.271572
194 2 0.332803 0.152428 0.450443
195 2 0.0827864 0.942844 0.402328
196 2 0.905303 0.436211 0.240592
197 2 0.295523 0.352355 0.0649855
198 2 0.412216 0.255723 0.171108
199 2 0.066476 0.496281 0.194945
200 2 0.915057 0.919684 0.427326
201 2 0.147925 0.771041 0.429218
202 2 0.200584 0.203551 0.247104
203 2 0.551406 0.287151 0.45373
204 2 0.385514 0.0938293 0.476766
205 2 0.178729 0.352264 0.466104
206 2 0.11464 0.956145 0.50933
207 2 0.110069 0.220601 0.236326
208 2 0.212904 0.964768 0.225374
209 2 0.98979 0.721914 0.237035
210 2 0.264626 0.120609 0.365665
211 2 0.107571 0.470921 0.331459
212 2 0.3032 0.513199 0.602111
213 2 0.358851 0.264644 0.479727
214 2 0.424857 0.22458 0.542655
215 2 0.538508 0.70223 0.37622
216 2 0.479334 0.679207 0.414929
217 2 0.340237 0.514354 0.210433
218 2 0.242979 0.21234 0.48414
219 2 0.231425 0.0974402 0.151747
220 2 0.993142 0.0667369 0.288629
221 2 0.407567 0.306265 0.352475
222 2 0.372814 0.926387 0.192193
223 2 0.965092 0.482459 0.10232
224 2 0.503212 0.198761 0.341474
225 2 0.869669 0.231075 0.693128
226 2 0.973975 0.946138 0.885143
227 2 0.145839 0.486634 0.120604
228 2 0.171682 0.00860975 0.392987
229 2 0.373126 0.397721 0.558146
230 2 0.248807 0.128759 0.300172
231 2 0.0611725 0.128186 0.310323
232 2 0.0133347 0.575427 0.440105
233 2 0.103396 0.0193828 0.167073
234 2 0.00594029 0.203896 0.757351
235 2 0.906992 0.640469 0.362028
236 2 0.294506 0.484826 0.295625
237 2 0.626356 0.999441 0.232616
238 2 0.236378 0.496461 0.121832
239 2 0.306378 0.402336 0.236185
240 2 0.636503 0.339063 0.102357
241 2 0.752662 0.0997123 0.3872
242 2 0.281888 0.88144 0.291313
243 2 0.977855 0.797905 0.437436
244 2 0.164661 0.16153 0.321958
245 2 0.325819 0.249723 0.958833
246 2 0.924243 0.916908 0.334453
247 2 0.0178775 0.262719 0.235614
248 2 0.238786 0.464817 0.440288
249 2 0.435205 0.374563 0.368669
250 2 0.429922 0.462616 0.223397
251 2 0.0968531 0.117441 0.319062
252 2 0.263231 0.859175 0.201947
253 2 0.379446 0.99703 0.469851
254 2 0.587922 0.324972 0.337296
255 2 0.185856 0.874261 0.846815
256 2 0.15126 0.254321 0.705746
257 2 0.44594 0.451595 0.0614891
258 2 0.0260624 0.572628 0.0954847
259 2 0.539165 0.931022 0.315714
260 2 0.402999 0.514113 0.532249
261 2 0.429908 0.920701 0.406142
262 2 0.346812 0.731159 0.39327
263 2 0.504169 0.839393 0.566799
264 2 0.567322 0.265919 0.186075
265 2 0.0247266 0.191424 0.247195
266 2 0.459519 0.535222 0.307223
267 2 0.374896 0.0354806 0.963224
268 2 0.0665278 0.3494 0.556435
269 2 0.737571 0.24929 0.508867
270 2 0.431733 0.139658 0.54979
271 2 0.438122 0.335129 0.151683
272 2 0.39686 0.832804 0.309665
273 2 0.190465 0.177894 0.715233
274 2 0.786128 0.632079 0.281689
275 2 0.519672 0.525697 0.58996
276 2 0.448438 0.839553 0.237665
277 2 0.344584 0.692241 0.0332361
278 2 0.968528 0.431804 0.234327
279 2 0.742775 0.338791 0.414658
280 2 0.441528 0.15649 0.209469
281 2 0.120889 0.186408 0.110787
282 2 0.968238 0.0697727 0.761844
283 2 0.273231 0.181219 0.367739
284 2 0.507569 0.611517 0.419159
285 2 0.117693 0.165634 0.6494
286 2 0.238234 0.469337 0.262375
287 2 0.986298 0.22086 0.19585
288 2 0.189601 0.274008 0.0655558
289 2 0.0121616 0.713311 0.491764
290 2 0.18873 0.792061 0.200452
291 2 0.396463 0.0878533 0.283034
292 2 0.447754 0.6435 0.263331
293 2 0.199724 0.160043 0.541418
294 2 0.982756 0.457582 0.27656
295 2 0.147662 0.322415 0.136018
296 2 0.100982 0.700479 0.268798
297 2 0.505514 0.994386 0.357385
298 2 0.243961 0.977793 0.440635
299 2 0.224193 0.0794273 0.366696
300 2 0.429835 0.0306144 0.59733
301 2 0.458283 0.287365 0.398384
302 2 0.12957 0.325983 0.226197
303 2 0.228702 0.218696 0.0931272
304 2 0.541521 0.290764 0.233277
305 2 0.0789257 0.414458 0.2807
306 2 0.221793 0.121435 0.262674
307 2 0.269897 0.207521 0.312437
308 2 0.512076 0.306402 0.48446
309 2 0.950594 0.860327 0.352971
310 2 0.111108 0.28229 0.257017
311 2 0.356589 0.199722 0.20131
312 2 0.632474 0.364523 0.35996
313 2 0.475917 0.185924 0.323188
314 2 0.269492 0.25709 0.075264
315 2 0.286004 0.581337 0.489222
316 2 0.819553 0.232575 0.199357
317 2 0.196354 0.00340555 0.101652
318 2 0.073808 0.043437 0.193574
319 2 0.939159 0.230715 0.366505
320 2 0.108983 0.0668838 0.265521
321 2 0.54205 0.260401 0.411003
322 2 0.0709178 0.182032 0.0835513
323 2 0.342135 0.447042 0.493958
324 2 0.453264 0.097825 0.178489
325 2 0.343149 0.548985 0.13795
326 2 0.607945 0.609561 0.281293
327 2 0.13881 0.569117 0.12205
328 2 0.325363 0.18473 0.331392
329 2 0.092022 0.845558 0.664433
330 2 0.7021 0.850351 0.47555
331 2 0.198071 0.469259 0.394608
332 2 0.647284 0.526149 0.307713
333 2 0.242463 0.175271 0.350501
334 2 0.165662 0.152912 0.274937
335 2 0.139648 0.583085 0.24871
336 2 0.259343 0.174166 0.528586
337 2 0.172846 0.867436 0.717037
338 2 0.207401 0.279658 0.0925668
339 2 0.303258 0.424531 0.114298
340 2 0.0845824 0.0430104 0.459977
341 2 0.192685 0.321744 0.208493
342 2 0.000159552 0.972084 0.254271
343 2 0.914127 0.606122 0.347439
344 2 0.37051 0.872234 0.0644114
345 2 0.313709 0.662628 0.704859
346 2 0.232465 0.356769 0.174911
347 2 0.123441 0.959147 0.188476
348 2 0.369882 0.501892 0.251633
349 2 0.14456 0.479921 0.22172
350 2 0.23234 0.241956 0.380147
351 2 0.121422 0.31133 0.709456
352 2 0.434842 0.342158 0.386933
353 2 0.443551 0.143705 0.297745
354 2 0.124622 0.700245 0.821861
355 2 0.194801 0.829312 0.361982
356 2 0.127333 0.178017 0.170653
357 2 0.253152 0.0201103 0.213322
358 2 0.193457 0.570382 0.17355
359 2 0.688272 0.283293 0.553959
360 2 0.935772 0.20028 0.264186
361 2 0.166969 0.581469 0.537324
362 2 0.463335 0.400251 0.0797328
363 2 0.096117 0.73746 0.640408
364 2 0.283638 0.850636 0.342695
365 2 0.271422 0.0876765 0.222901
366 2 0.187651 0.316708 0.284437
367 2 0.273136 0.292391 0.0611437
368 2 0.750441 0.0234852 0.440631
369 2 0.470792 0.344955 0.100426
370 2 0.480897 0.460856 0.577651
371 2 0.236242 0.634686 0.303938
372 2 0.0745746 0.249078 0.0721786
373 2 0.302006 0.366067 0.529931
374 2 0.559511 0.902395 0.216817
375 2 0.363549 0.764857 0.0736031
376 2 0.481331 0.194371 0.366042
377 2 0.173037 0.131102 0.339287
378 2 0.667034 0.0530921 0.182163
379 2 0.251184 0.514154 0.742177
380 2 0.0937159 0.39667 0.356727
381 2 0.33436 0.738659 0.191856
382 2 0.0961475 0.714301 0.387304
383 2 0.293853 0.307934 0.347131
384 2 0.542017 0.590538 0.520019
385 2 0.177429 0.0568764 0.762296
386 2 0.288308 0.246242 0.457075
387 2 0.318002 0.455014 0.209315
388 2 0.420121 0.123292 0.433096
389 2 0.133451 0.831568 0.222509
390 2 0.109946 0.819745 0.743736
391 2 0.723771 0.154928 0.494587
392 2 0.242846 0.166618 0.226993
393 2 0.187448 0.84018 0.551821
394 2 0.983199 0.434749 0.733276
395 2 0.900957 0.562069 0.318985
396 2 0.968943 0.661591 0.369532
397 2 0.78853 0.722274 0.820998
398 2 0.351573 0.446712 0.254007
399 2 0.728121 0.975873 0.353281
400 2 0.627318 0.396437 0.0705049
401 2 0.971382 0.913761 0.508668
402 2 0.379011 0.88725 0.412105
403 2 0.26144 0.266931 0.195125
404 2 0.580319 0.556265 0.726748
405 2 0.558703 0.406397 0.364703
406 2 0.076142 0.690764 0.405263
407 2 0.0669816 0.179045 0.370226
408 2 0.285043 0.100054 0.0832854
409 2 0.639868 0.526657 0.523888
410 2 0.902444 0.932657 0.836736
411 2 0.412424 0.303234 0.42419
412 2 0.1547 0.187497 0.364785
413 2 0.813513 0.409355 0.345898
414 2 0.253625 0.275437 0.379246
415 2 0.303451 0.809085 0.310547
416 2 0.180821 0.493474 0.261159
417 2 0.242945 0.393014 0.205297
418 2 0.194915 0.555158 0.38667
419 2 0.0860413 0.238893 0.357664
420 2 0.461357 0.0474646 0.284996
421 2 0.986841 0.00237204 0.214841
422 2 0.199029 0.593474 0.382076
423 2 0.164369 0.623173 0.348541
424 2 0.965975 0.679074 0.805688
425 2 0.0727607 0.957022 0.257253
426 2 0.150059 0.974864 0.170692
427 2 0.26827 0.398139 0.298107
428 2 0.16119 0.196947 0.210001
429 2 0.373201 0.921771 0.42755
430 2 0.349081 0.180709 0.226924
431 2 0.0506051 0.202665 0.709256
432 2 0.025103 0.230367 0.251732
433 2 0.534773 0.514321 0.797336
434 2 0.109474 0.365864 0.136525
435 2 0.132894 0.303826 0.304047
436 2 0.311052 0.448765 0.155782
437 2 0.0746333 0.977464 0.304859
438 2 0.193167 0.88302 0.442014
439 2 0.390712 0.680786 0.338488
440 2 0.364742 0.4902 0.223722
441 2 0.0426515 0.215795 0.302384
442 2 0.291859 0.198173 0.264399
443 2 0.644643 0.241779 0.113406
444 2 0.375685 0.131888 0.299323
445 2 0.110444 0.182345 0.0444796
446 2 0.449313 0.439071 0.264647
447 2 0.292963 0.142389 0.204641
448 2 0.563329 0.448212 0.0472032
449 2 0.00630972 0.924911 0.27858
450 2 0.298273 0.0395061 0.2665
451 2 0.396585 0.290483 0.326305
452 2 0.442188 0.284792 0.518305
453 2 0.932399 0.790131 0.31261
454 2 0.175183 0.293894 0.139473
455 2 0.408916 0.259416 0.381019
456 2 0.310135 0.947362 0.329643
457 2 0.402 0.312746 0.671327
458 2 0.528213 0.762405 0.336322
459 2 0.268185 0.362226 0.397403
460 2 0.389069 0.17934 0.318951
461 2 0.298008 0.385715 0.181232
462 2 0.0303416 0.0741975 0.295209
463 2 0.209906 0.482675 0.351413
464 2 0.514314 0.430102 0.550229
465 2 0.17506 0.396656 0.253703
466 2 0.145155 0.463863 0.0726476
467 2 0.131023 0.220391 0.303198
468 2 0.343678 0.132163 0.630281
469 2 0.575019 0.507916 0.200234
470 2 0.339194 0.48233 0.262892
471 2 0.273968 0.0939651 0.252253
472 2 0.53222 0.265982 0.316734
473 2 0.00956865 0.94357 0.626584
474 2 0.21031 0.572642 0.0434089
475 2 0.199584 0.765911 0.570237
476 2 0.109496 0.918993 0.752451
477 2 0.220686 0.970938 0.699757
478 2 0.145978 0.532185 0.770594
479 2 0.549794 0.575695 0.204412
480 2 0.252357 0.738933 0.226704
481 2 0.456332 0.120624 0.340972
482 2 0.0579504 0.236797 0.144772
483 2 0.18983 0.101787 0.324186
484 2 0.0907369 0.304388 0.0488994
485 2 0.0331539 0.252557 0.210088
486 2 0.00242926 0.0842024 0.721609
487 2 0.19849 0.134683 0.196269
488 2 0.342505 0.334863 0.412038
489 2 0.641186 0.485226 0.48621
490 2 0.816682 0.280878 0.300017
491 2 0.193932 0.524493 0.207009
492 2 0.517413 0.513616 0.732611
493 2 0.550098 0.299863 0.482581
494 2 0.937223 0.372079 0.12186
495 2 0.953231 0.0233258 0.320521
496 2 0.491463 0.480469 0.302063
497 2 0.279387 0.150521 0.474437
498 2 0.238766 0.416911 0.312772
499 2 0.312814 0.0365114 0.384404
500 2 0.147594 0.694221 0.46124
501 2 0.181842 0.994391 0.256866
502 2 0.208088 0.150404 0.221913
503 2 0.140611 0.420046 0.21503
504 2 0.144797 0.27692 0.100762
505 2 0.248852 0.453791 0.32082
506 2 0.189922 0.292138 0.453492
507 2 0.479637 0.442617 0.30643
508 2 0.954678 0.781478 0.914614
509 2 0.266236 0.411041 0.27017
510 2 0.310719 0.317963 0.373824
511 2 0.0263814 0.524258 0.319462
512 2 0.120858 0.121802 0.295826
513 2 0.431472 0.464742 0.447033
514 2 0.236238 0.66759 0.130997
515 2 0.01456 0.463424 0.396719
516 2 0.224129 0.368661 0.273426
517 2 0.396979 0.975994 0.266487
518 2 0.465066 0.181827 0.263301
519 2 0.140695 0.453637 0.454527
520 2 0.449014 0.557643 0.54814
521 2 0.026567 0.965633 0.875589
522 2 0.37536 0.170233 0.365059
523 2 0.997758 0.410187 0.414499
524 2 0.381469 0.107081 0.377368
525 2 0.303973 0.548892 0.334692
526 2 0.336613 0.839917 0.494448
527 2 0.92459 0.210221 0.291201
528 2 0.345411 0.974676 0.55247
529 2 0.282161 0.135898 0.317882
530 2 0.969108 0.877221 0.686713
531 2 0.144651 0.831987 0.42513
532 2 0.329513 0.539704 0.633776
533 2 0.698524 0.275555 0.36055
534 2 0.345894 0.946652 0.0267497
535 2 0.744453 0.245859 0.228174
536 2 0.0871026 0.319691 0.419031
537 2 0.168221 0.0533764 0.482985
538 2 0.301022 0.143623 0.403205
539 2 0.900887 0.121211 0.29057
540 2 0.253364 0.0910073 0.293366
541 2 0.220004 0.506497 0.225207
542 2 0.358756 0.238972 0.248405
543 2 0.578429 0.491976 0.304538
544 2 0.430379 0.399136 0.216345
545 2 0.556609 0.291787 0.260973
546 2 0.185401 0.359605 0.209354
547 2 0.661394 0.0305891 0.206343
548 2 0.2659 0.217471 0.379645
549 2 0.106689 0.141027 0.342618
550 2 0.60136 0.991041 0.0175615
551 2 0.303147 0.378798 0.397552
552 2 0.335891 0.29231 0.126454
553 2 0.462874 0.679905 0.268878
554 2 0.993942 0.156779 0.670595
555 2 0.176127 0.883889 0.352423
556 2 0.368262 0.123165 0.166705
557 2 0.497387 0.99977 0.386387
558 2 0.0969314 0.907011 0.485246
559 2 0.648082 0.141325 0.420407
560 2 0.571876 0.356663 0.522971
561 2 0.556168 0.590076 0.360603
562 2 0.00593259 0.0857413 0.389396
563 2 0.172285 0.0994288 0.238553
564 2 0.956773 0.424492 0.502041
565 2 0.42059 0.659873 0.112327
566 2 0.0850726 0.429841 0.371631
567 2 0.0855932 0.554966 0.186943
568 2 0.371994 0.699357 0.0929222
569 2 0.266938 0.0279136 0.413293
570 2 0.151632 0.596524 0.579639
571 2 0.0626473 0.516291 0.5371
572 2 0.837645 0.119708 0.131295
573 2 0.196299 0.445018 0.197459
574 2 0.733951 0.0817329 0.188107
575 2 0.606413 0.986553 0.433778
576 2 0.54212 0.0820442 0.221522
577 2 0.519396 0.490456 0.436818
578 2 0.284194 0.266427 0.571985
579 2 0.675093 0.552432 0.209153
580 2 0.0272658 0.00175398 0.865346
581 2 0.603406 0.311554 0.295759
582 2 0.134931 0.395327 0.138356
583 2 0.96541 0.727291 0.259929
584 2 0.451489 0.335753 0.332604
585 2 0.331941 0.490996 0.291786
586 2 0.318656 0.446689 0.468483
587 2 0.607416 0.285088 0.58562
588 2 0.348738 0.350852 0.291985
589 2 0.165405 0.488169 0.521946
590 2 0.382167 0.523421 0.300958
591 2 0.0514969 0.518182 0.791605
592 2 0.0186291 0.249723 0.360871
593 2 0.0544415 0.0159154 0.693912
594 2 0.324592 0.315454 0.241265
595 2 0.28156 0.132273 0.257044
596 2 0.77423 0.260476 0.0705998
597 2 0.250982 0.388102 0.108091
598 2 0.453219 0.531361 0.355747
599 2 0.990743 0.133529 0.256099
600 2 0.567791 0.329703 0.70583
601 2 0.390783 0.423291 0.166683
602 2 0.238313 0.843909 0.14209
603 2 0.115297 0.915602 0.723234
604 2 0.974785 0.586872 0.40296
605 2 0.337839 0.234881 0.201619
606 2 0.983748 0.343222 0.0690168
607 2 0.435683 0.529696 0.652448
608 2 0.42065 0.411661 0.298597
609 2 0.935538 0.056443 0.283619
610 2 0.922176 0.177712 0.307278
611 2 0.236073 0.135673 0.349236
612 2 0.547853 0.529441 0.570008
613 2 0.498894 0.283257 0.697443
614 2 0.421445 0.178219 0.450978
615 2 0.388125 0.0343233 0.186308
616 2 0.768385 0.331448 0.345067
617 2 0.15446 0.274635 0.764738
618 2 0.147393 0.0584153 0.685565
619 2 0.217818 0.521533 0.270646
620 2 0.922073 0.150127 0.232683
621 2 0.90834 0.702308 0.367207
622 2 0.215647 0.516466 0.730987
623 2 0.159637 0.0457696 0.393693
624 2 0.180279 0.0613715 0.085947
625 2 0.285595 0.350546 0.268608
626 2 0.138869 0.0215358 0.205156
627 2 0.18032 0.088643 0.426754
628 2 0.502076 0.365404 0.361581
629 2 0.0222434 0.176379 0.714748
630 2 0.129969 0.467151 0.185979
631 2 0.172596 0.307722 0.25684
632 2 0.934072 0.335712 0.317365
633 2 0.0369309 0.177511 0.300368
634 2 0.443979 0.465248 0.419048
635 2 0.134123 0.575841 0.369471
636 2 0.0138366 0.0578759 0.806158
637 2 0.35575 0.426962 0.0843074
638 2 0.0117117 0.412562 0.363573
639 2 0.536192 0.190969 0.426223
640 2 0.0409137 0.35713 0.230525
641 2 0.0500508 0.398495 0.264651
642 2 0.316173 0.870494 0.301219
643 2 0.43613 0.277141 0.220202
644 2 0.349729 0.0988292 0.489884
645 2 0.417496 0.023707 0.0798985
646 2 0.257744 0.959768 0.0671955
647 2 0.98999 0.761023 0.360342
648 2 0.107248 0.562371 0.243716
649 2 0.254867 0.184614 0.269598
650 2 0.294631 0.131601 0.685502
651 2 0.0745803 0.578086 0.374219
652 2 0.248682 0.0576085 0.63707
653 2 0.283207 0.32041 0.641709
654 2 0.356608 0.836193 0.702214
655 2 0.996688 0.971169 0.198604
656 2 0.357806 0.187514 0.275836
657 2 0.953024 0.0679779 0.418595
658 2 0.883802 0.0581757 0.245916
659 2 0.880415 0.187966 0.00558961
660 2 0.415225 0.512556 0.0765955
661 2 0.0127624 0.773814 0.401859
662 2 0.319964 0.801816 0.727173
663 2 0.517166 0.639525 0.34688
664 2 0.116303 0.370237 0.046236
665 2 0.614217 0.0365819 0.290199
666 2 0.908087 0.943206 0.610772
667 2 0.106324 0.0844582 0.721579
668 2 0.424793 0.773212 0.0394951
669 2 0.259376 0.332548 0.186533
670 2 0.67116 0.455005 0.635109
671 2 0.107243 0.160272 0.215341
672 2 0.48531 0.812606 0.328551
673 2 0.387407 0.940607 0.143083
674 2 0.341345 0.143237 0.181512
675 2 0.12132 0.102885 0.391091
676 2 0.400532 0.216967 0.482923
677 2 0.356802 0.470984 0.611514
678 2 0.308549 0.85309 0.665258
679 2 0.305693 0.649296 0.191949
680 2 0.43472 0.360134 0.799212
681 2 0.497272 0.931041 0.164334
682 2 0.367595 0.14281 0.387026
683 2 0.452706 0.561695 0.413629
684 2 0.250881 0.145086 0.272694
685 2 0.15752 0.896949 0.314965
686 2 0.0272167 0.282292 0.516453
687 2 0.252054 0.397686 0.0615245
688 2 0.534242 0.0352409 0.192512
689 2 0.273793 0.950025 0.224285
690 2 0.3149 0.285233 0.610279
691 2 0.151026 0.333879 0.74471
692 2 0.625703 0.967148 0.38294
693 2 0.12105 0.0838398 0.214209
694 2 0.183381 0.581434 0.647301
695 2 0.410023 0.610171 0.248864
696 2 0.194579 0.54518 0.285665
697 2 0.403982 0.103598 0.502572
698 2 0.595037 0.736213 0.308271
699 2 0.339221 0.0907973 0.256966
700 2 0.436981 0.904936 0.331171
701 2 0.135992 0.743215 0.850267
702 2 0.0577646 0.396181 0.410273
703 2 0.363197 0.912045 0.263565
704 2 0.949081 0.0175484 0.146854
705 2 0.100488 0.246567 0.299388
706 2 0.00612024 0.0327189 0.257128
707 2 0.202995 0.415031 0.450499
708 2 0.352395 0.43013 0.422914
709 2 0.0608604 0.157051 0.622649
710 2 0.244446 0.661388 0.366637
711 2 0.973532 0.12952 0.13073
712 2 0.591842 0.160462 0.315587
713 2 0.135228 0.131126 0.0875438
714 2 0.877076 0.194839 0.0602195
715 2 0.181637 0.501752 0.185382
716 2 0.344412 0.218238 0.32441
717 2 0.978892 0.0520852 0.325424
718 2 0.845058 0.0892544 0.806509
719 2 0.539761 0.591881 0.387362
720 2 0.403328 0.142424 0.166967
721 2 0.540822 0.978029 0.352785
722 2 0.389225 0.893157 0.2023
723 2 0.927585 0.151283 0.349679
724 2 0.190194 0.240186 0.128189
725 2 0.467666 0.454689 0.106198
726 2 0.217168 0.972487 0.60601
727 2 0.246098 0.623917 0.218488
728 2 0.858071 0.249627 0.0906738
729 2 0.29507 0.491392 0.400343
730 2 0.137107 0.0930861 0.365332
731 2 0.427332 0.405584 0.586277
732 2 0.118682 0.974186 0.895208
733 2 0.322655 0.290762 0.264029
734 2 0.310568 0.175672 0.357898
735 2 0.107933 0.576703 0.204413
736 2 0.322425 0.42237 0.259391
737 2 0.670599 0.244354 0.173177
738 2 0.275392 0.2748 0.353974
739 2 0.921929 0.0196448 0.12577
740 2 0.207907 0.116563 0.236072
741 2 0.049135 0.648209 0.107852
742 2 0.225249 0.3092 0.2801
743 2 0.901267 0.220007 0.541172
744 2 0.970883 0.829331 0.3432
745 2 0.0788613 0.121366 0.0933212
746 2 0.0369281 0.0901602 0.346762
747 2 0.367836 0.540674 0.256801
748 2 0.557072 0.177682 0.373194
749 2 0.0863791 0.123448 0.587298
750 2 0.585687 0.158362 0.542074
751 2 0.503846 0.028183 0.341313
752 2 0.957626 0.0235499 0.291424
753 2 0.507128 0.552575 0.676874
754 2 0.10105 0.0111833 0.245023
755 2 0.156215 0.265465 0.224707
756 2 0.99252 0.393208 0.468096
757 2 0.860854 0.0363523 0.351175
758 2 0.275317 0.55513 0.140419
759 2 0.324606 0.584405 0.270108
760 2 0.800715 0.446456 0.405598
761 2 0.215464 0.0478159 0.124292
762 2 0.133847 0.459446 0.351998
763 2 0.243457 0.497244 0.282147
764 2 0.473278 0.371267 0.520211
765 2 0.578433 0.575543 0.527508
766 2 0.0831098 0.288274 0.177014
767 2 0.245676 0.839589 0.341669
768 2 0.427436 0.817222 0.131849
769 2 0.261525 0.347755 0.424305
770 2 0.225981 0.165181 0.396599
771 2 0.179276 0.476109 0.287358
772 2 0.346043 0.0183093 0.0161551
773 2 0.202359 0.678409 0.116938
774 2 0.0155569 0.0342116 0.581453
775 2 0.151632 0.21807 0.278114
776 2 0.37911 0.116082 0.985579
777 2 0.270875 0.132334 0.180373
778 2 0.079516 0.55437 0.422085
779 2 0.0397063 0.154375 0.452064
780 2 0.239964 0.0867141 0.265959
781 2 0.446894 0.451241 0.159918
782 2 0.614874 0.153093 0.640007
783 2 0.508194 0.386616 0.515865
784 2 0.149771 0.496049 0.349173
785 2 0.431611 0.309962 0.283097
786 2 0.152131 0.340606 0.173253
787 2 0.0315535 0.029508 0.554629
788 2 0.281546 0.131159 0.426917
789 2 0.325148 0.827729 0.223466
790 2 0.389373 0.36601 0.493382
791 2 0.298616 0.968226 0.352429
792 2 0.301451 0.96846 0.159906
793 2 0.507635 0.381215 0.181947
794 2 0.291483 0.174469 0.31651
795 2 0.221159 0.76175 0.231689
796 2 0.76771 0.977943 0.355344
797 2 0.297014 0.0727539 0.392074
798 2 0.560847 0.451845 0.269654
799 2 0.10074 0.189787 0.416243
800 2 0.247959 0.192963 0.191159
801 2 0.259702 0.593668 0.446273
802 2 0.146007 0.955292 0.912804
803 2 0.262724 0.848342 0.297652
804 2 0.158828 0.203569 0.0214381
805 2 0.295337 0.188132 0.235961
806 2 0.384369 0.0074164 0.131428
807 2 0.174736 0.257523 0.665368
808 2 0.120504 0.28802 0.330088
809 2 0.239898 0.218579 0.00448616
810 2 0.265982 0.39771 0.359271
811 2 0.320079 0.178883 0.278185
812 2 0.295611 0.789884 0.478677
813 2 0.161941 0.915631 0.34004
814 2 0.147803 0.951783 0.211113
815 2 0.0443445 0.100967 0.175671
816 2 0.187847 0.152294 0.653245
817 2 0.311523 0.290296 0.0565263
818 2 0.283003 0.489901 0.344809
819 2 0.762816 0.270436 0.327152
820 2 0.0462585 0.591144 0.318317
821 2 0.261203 0.885996 0.399889
822 2 0.941906 0.603674 0.390588
823 2 0.239589 0.489295 0.310722
824 2 0.140707 0.0705372 0.60498
825 2 0.321247 0.370059 0.372676
826 2 0.16824 0.0717796 0.370794
827 2 0.473735 0.046271 0.209284
828 2 0.247626 0.329327 0.302108
829 2 0.104236 0.971801 0.242142
830 2 0.141687 0.154916 0.298212
831 2 0.150867 0.574908 0.324222
832 2 0.123384 0.368333 0.394315
833 2 0.322255 0.033949 0.310107
834 2 0.930703 0.519755 0.127838
835 2 0.4382 0.75708 0.143791
836 2 0.318102 0.385615 0.48637
837 2 0.559394 0.398388 0.746807
838 2 0.55948 0.0488178 0.213731
839 2 0.0109188 0.0512403 0.181665
840 2 0.63128 0.134085 0.394334
841 2 0.523076 0.00137595 0.180273
842 2 0.222379 0.234149 0.464959
843 2 0.29791 0.299571 0.585892
844 2 0.049799 0.719825 0.82138
845 2 0.855399 0.176583 0.109277
846 2 0.0640932 0.581008 0.0973422
847 2 0.386527 0.498354 0.373527
848 2 0.135271 0.738919 0.294119
849 2 0.138343 0.758234 0.37879
850 2 0.0783503 0.21389 0.195412
851 2 0.147493 0.516454 0.374168
852 2 0.270823 0.0665328 0.180762
853 2 0.230977 0.313885 0.250529
854 2 0.663124 0.317539 0.32899
855 2 0.167946 0.862631 0.822781
856 2 0.380824 0.502419 0.343938
857 2 0.0935562 0.591573 0.770637
858 2 0.286334 0.388689 0.0723608
859 2 0.357397 0.330516 0.341562
860 2 0.371027 0.283517 0.139759
861 2 0.461769 0.342122 0.0506926
862 2 0.293936 0.477591 0.505233
863 2 0.94801 0.342216 0.474734
864 2 0.929806 0.578585 0.305058
865 2 0.100121 0.376427 0.71098
866 2 0.382941 0.828423 0.0961389
867 2 0.400407 0.0581936 0.436138
868 2 0.200777 0.388708 0.0843971
869 2 0.249127 0.633026 0.141641
870 2 0.5776 0.304671 0.395721
871 2 0.330791 0.569488 0.377672
872 2 0.697307 0.344495 0.535956
873 2 0.0419214 0.631495 0.355949
874 2 0.66552 0.437886 0.532203
875 2 0.126945 0.343839 0.299024
876 2 0.957364 0.945332 0.814506
877 2 0.59119 0.381679 0.437907
878 2 0.884887 0.921364 0.240602
879 2 0.396308 0.0577578 0.465721
880 2 0.0948555 0.754049 0.348101
881 2 0.20937 0.313392 0.141418
882 2 0.0790085 0.131523 0.213037
883 2 0.271078 0.22907 0.020067
884 2 0.436487 0.135419 0.18287
885 2 0.895123 0.378293 0.170319
886 2 0.382402 0.651417 0.376978
887 2 0.140592 0.0511435 0.224402
888 2 0.43164 0.0997614 0.41105
889 2 0.0686333 0.487839 0.362138
890 2 0.614075 0.545955 0.301693
891 2 0.860013 0.51582 0.265935
892 2 0.184001 0.21368 0.188998
893 2 0.0792129 0.445165 0.328399
894 2 0.232388 0.764259 0.39881
895 2 0.300091 0.0794773 0.342684
896 2 0.159878 0.95512 0.401757
897 2 0.562156 0.471127 0.748199
898 2 0.374708 0.37016 0.104978
899 2 0.0225037 0.862289 0.296536
900 2 0.118693 0.210432 0.263687
901 2 0.0682367 0.870208 0.679177
902 2 0.523814 0.939711 0.184177
903 2 0.0438073 0.0311929 0.175995
904 2 0.196144 0.0780627 0.110246