 vasp.6.5.0 16Dec24 (build Jan 20 2025 08:32:48) complex                         
 executed on        HPECrayEX_GCC date 2025.07.22  02:14:16
 running  128 mpi-ranks, with    1 threads/rank, on    1 nodes
 distrk:  each k-point on  128 cores,    1 groups
 distr:  one band on NCORE=  16 cores,    8 groups


--------------------------------------------------------------------------------------------------------


 INCAR:
   SYSTEM = a-Si SPC
   NCORE = 16
   ISTART = 1
   ICHARG = 1
   ISPIN = 1
   ISYM = 1
   EDIFF = 1E-6
   NELM = 150
   EDIFFG = -0.01
   NSW = 0
   ISIF = 2
   IBRION = -1
   PREC = Accurate
   ENCUT = 1200
   KSPACING = 0.23
   KGAMMA = .TRUE.
   METAGGA = SCAN
   LASPH = .TRUE.
   LDIAG = .FALSE.
   LMIXTAU = .TRUE.
   ADDGRID = .TRUE.
   ALGO = Normal
   ISMEAR = 0
   SIGMA = 0.1
   LORBIT = 11
   NEDOS = 2000
   LWAVE = .FALSE.
   LCHARG = .FALSE.

 POTCAR:    PAW_PBE H 15Jun2001                   
 POTCAR:    PAW_PBE Si 05Jan2001                  
 POTCAR:    PAW_PBE H 15Jun2001                   
   SHA256 =  030f79b5d3ab3cf0e668861823c8fb652ff669f3e15e46930bd03bfd63a607b6 H/POTCAR              
   COPYR  = (c) Copyright 15Jun2001 Georg Kresse                                                    
   COPYR  = This file is part of the software VASP. Any use, copying, and all other rights are regul
   COPYR  = If you do not have a valid VASP license, you may not use, copy or distribute this file. 
   VRHFIN =H: ultrasoft test                                                                        
   LEXCH  = PE                                                                                      
   EATOM  =    12.4884 eV,    0.9179 Ry                                                             
                                                                                                    
   TITEL  = PAW_PBE H 15Jun2001                                                                     
   LULTRA =        F    use ultrasoft PP ?                                                          
   IUNSCR =        0    unscreen: 0-lin 1-nonlin 2-no                                               
   RPACOR =    0.000    partial core radius                                                         
   POMASS =    1.000; ZVAL   =    1.000    mass and valenz                                          
   RCORE  =    1.100    outmost cutoff radius                                                       
   RWIGS  =    0.700; RWIGS  =    0.370    wigner-seitz radius (au A)                               
   ENMAX  =  250.000; ENMIN  =  200.000 eV                                                          
   RCLOC  =    0.701    cutoff for local pot                                                        
   LCOR   =        T    correct aug charges                                                         
   LPAW   =        T    paw PP                                                                      
   EAUG   =  400.000                                                                                
   RMAX   =    1.123    core radius for proj-oper                                                   
   RAUG   =    1.200    factor for augmentation sphere                                              
   RDEP   =    1.112    radius for radial grids                                                     
   RDEPT  =    0.926    core radius for aug-charge                                                  
                                                                                                    
   Atomic configuration                                                                             
    2 entries                                                                                       
     n  l   j            E        occ.                                                              
     1  0  0.50        -6.4927   1.0000                                                             
     2  1  0.50        -3.4015   0.0000                                                             
   Description                                                                                      
     l       E           TYP  RCUT    TYP  RCUT                                                     
     0     -6.4927494     23  1.100                                                                 
     0      6.8029130     23  1.100                                                                 
     1     -4.0817478     23  1.100                                                                 
  local pseudopotential read in
  atomic valenz-charges read in
  non local Contribution for L=           0  read in
    real space projection operators read in
  non local Contribution for L=           0  read in
    real space projection operators read in
  non local Contribution for L=           1  read in
    real space projection operators read in
    PAW grid and wavefunctions read in

   number of l-projection  operators is LMAX  =           3
   number of lm-projection operators is LMMAX =           5

 POTCAR:    PAW_PBE Si 05Jan2001                  
   SHA256 =  79d9987ad8750f624c4d6acb2a16d13abf6a777132adc04dc6c8399be72b42bb Si/POTCAR             
   COPYR  = (c) Copyright 05Jan2001 Georg Kresse                                                    
   COPYR  = This file is part of the software VASP. Any use, copying, and all other rights are regul
   COPYR  = If you do not have a valid VASP license, you may not use, copy or distribute this file. 
   VRHFIN =Si: s2p2                                                                                 
   LEXCH  = PE                                                                                      
   EATOM  =   103.0669 eV,    7.5752 Ry                                                             
                                                                                                    
   TITEL  = PAW_PBE Si 05Jan2001                                                                    
   LULTRA =        F    use ultrasoft PP ?                                                          
   IUNSCR =        1    unscreen: 0-lin 1-nonlin 2-no                                               
   RPACOR =    1.500    partial core radius                                                         
   POMASS =   28.085; ZVAL   =    4.000    mass and valenz                                          
   RCORE  =    1.900    outmost cutoff radius                                                       
   RWIGS  =    2.480; RWIGS  =    1.312    wigner-seitz radius (au A)                               
   ENMAX  =  245.345; ENMIN  =  184.009 eV                                                          
   ICORE  =        2    local potential                                                             
   LCOR   =        T    correct aug charges                                                         
   LPAW   =        T    paw PP                                                                      
   EAUG   =  322.069                                                                                
   DEXC   =    0.000                                                                                
   RMAX   =    1.950    core radius for proj-oper                                                   
   RAUG   =    1.300    factor for augmentation sphere                                              
   RDEP   =    1.993    radius for radial grids                                                     
   RDEPT  =    1.837    core radius for aug-charge                                                  
                                                                                                    
   Atomic configuration                                                                             
    6 entries                                                                                       
     n  l   j            E        occ.                                                              
     1  0  0.50     -1785.8828   2.0000                                                             
     2  0  0.50      -139.4969   2.0000                                                             
     2  1  1.50       -95.5546   6.0000                                                             
     3  0  0.50       -10.8127   2.0000                                                             
     3  1  0.50        -4.0811   2.0000                                                             
     3  2  1.50        -4.0817   0.0000                                                             
   Description                                                                                      
     l       E           TYP  RCUT    TYP  RCUT                                                     
     0    -10.8127223     23  1.900                                                                 
     0     -7.6451159     23  1.900                                                                 
     1     -4.0811372     23  1.900                                                                 
     1      2.4879257     23  1.900                                                                 
     2     -4.0817478      7  1.900                                                                 
  local pseudopotential read in
  partial core-charges read in
  partial kinetic energy density read in
  atomic valenz-charges read in
  non local Contribution for L=           0  read in
    real space projection operators read in
  non local Contribution for L=           0  read in
    real space projection operators read in
  non local Contribution for L=           1  read in
    real space projection operators read in
  non local Contribution for L=           1  read in
    real space projection operators read in
    PAW grid and wavefunctions read in

   number of l-projection  operators is LMAX  =           4
   number of lm-projection operators is LMMAX =           8

 -----------------------------------------------------------------------------
|                                                                             |
|               ----> ADVICE to this user running VASP <----                  |
|                                                                             |
|     You have a (more or less) 'large supercell' and for larger cells it     |
|     might be more efficient to use real-space projection operators.         |
|     Therefore, try LREAL= Auto in the INCAR file.                           |
|     Mind: For very accurate calculation, you might also keep the            |
|     reciprocal projection scheme (i.e. LREAL=.FALSE.).                      |
|                                                                             |
 -----------------------------------------------------------------------------

 -----------------------------------------------------------------------------
|                                                                             |
|               ----> ADVICE to this user running VASP <----                  |
|                                                                             |
|     You enforced a specific xc type in the INCAR file but a different       |
|     type was found in the POTCAR file.                                      |
|     I HOPE YOU KNOW WHAT YOU ARE DOING!                                     |
|                                                                             |
 -----------------------------------------------------------------------------

  PAW_PBE H 15Jun2001                   :
 energy of atom  1       EATOM=  -12.4884
 kinetic energy error for atom=    0.0000 (will be added to EATOM!!)
  PAW_PBE Si 05Jan2001                  :
 energy of atom  2       EATOM= -103.0669
 kinetic energy error for atom=    0.0001 (will be added to EATOM!!)


 POSCAR:  H Si
  positions in cartesian coordinates
  No initial velocities read in


 exchange-correlation table for SCAN
   RHO(1)=    0.500       N(1)  =     2000
   RHO(2)=  100.500       N(2)  =     4000



--------------------------------------------------------------------------------------------------------


 ion  position               nearest neighbor table
   1  0.307  0.014  0.564-  50 1.58
   2  0.122  0.364  0.562-  16 1.52
   3  0.419  0.928  0.588-  33 1.48
   4  0.839  0.519  0.607-
   5  0.942  0.472  0.590-  12 1.57
   6  0.859  0.300  0.553-  26 1.52
   7  0.657  0.182  0.419-  34 2.27   8 2.33  45 2.47
   8  0.577  0.321  0.414-  31 2.26   7 2.33  51 2.44
   9  0.596  0.668  0.529-  39 2.21  63 2.30  41 2.30  55 2.37  60 3.14
  10  0.194  0.433  0.449-  16 2.21  13 2.33  28 2.35  17 2.38
  11  0.981  0.990  0.485-  35 2.20  48 2.31  27 2.33  38 2.37  58 2.78
  12  0.002  0.510  0.544-   5 1.57  16 2.32  24 2.36  18 2.38
  13  0.189  0.313  0.389-  47 2.33  10 2.33
  14  0.192  0.852  0.537-  53 2.27  43 2.29  36 2.31  15 2.39
  15  0.114  0.940  0.602-  66 2.24  14 2.39  38 2.43
  16  0.091  0.394  0.508-   2 1.52  10 2.21  12 2.32  54 2.45
  17  0.336  0.451  0.494-  21 2.30  46 2.31  56 2.34  10 2.38
  18  0.918  0.557  0.469-  62 2.31  57 2.35  12 2.38
  19  0.410  0.813  0.443-  67 2.28  37 2.35  41 2.38
  20  0.156  0.698  0.443-  53 2.22  28 2.28  25 2.37  67 2.44
  21  0.362  0.529  0.570-  42 2.26  17 2.30  63 2.61  46 3.09
  22  0.508  0.113  0.550-  45 2.28  44 2.40  50 2.41
  23  0.861  0.073  0.611-  58 2.32
  24  0.096  0.634  0.570-  42 2.22  53 2.35  12 2.36
  25  0.097  0.819  0.391-  48 2.32  20 2.37
  26  0.766  0.251  0.553-   6 1.52  61 2.26  34 2.33
  27  0.841  0.042  0.452-  11 2.33  58 2.36  34 2.39
  28  0.150  0.562  0.400-  20 2.28  10 2.35
  29  0.705  0.869  0.428-  30 2.24  65 2.37
  30  0.618  0.929  0.491-  49 2.23  29 2.24  41 2.28  45 2.35
  31  0.643  0.418  0.471-  39 2.25   8 2.26  61 2.35  57 2.39
  32  0.223  0.325  0.611-  52 2.28
  33  0.430  0.828  0.577-   3 1.48  43 2.23  41 2.33
  34  0.785  0.193  0.469-   7 2.27  26 2.33  40 2.35  27 2.39
  35  0.939  0.857  0.518-  11 2.20  65 2.27  66 2.28  53 2.53  58 2.72
  36  0.224  0.976  0.484-  37 2.23  59 2.28  14 2.31  48 2.32
  37  0.339  0.956  0.428-  36 2.23  19 2.35  64 2.36
  38  0.059  0.070  0.552-  11 2.37  59 2.39  15 2.43
  39  0.576  0.556  0.471-   9 2.21  31 2.25  60 2.33  46 2.38
  40  0.866  0.319  0.435-  57 2.26  54 2.34  34 2.35
  41  0.527  0.805  0.507-  30 2.28   9 2.30  33 2.33  19 2.38
  42  0.242  0.619  0.593-  24 2.22  21 2.26  43 2.27
  43  0.304  0.747  0.557-  33 2.23  42 2.27  14 2.29  67 2.31
  44  0.514  0.275  0.566-  61 2.36  22 2.40  56 2.42
  45  0.558  0.074  0.469-  64 2.24  22 2.28  30 2.35   7 2.47
  46  0.415  0.571  0.456-  17 2.31  39 2.38  67 2.40  21 3.09
  47  0.109  0.199  0.433-  54 2.31  13 2.33  59 2.33
  48  0.100  0.964  0.427-  11 2.31  25 2.32  36 2.32
  49  0.668  0.956  0.572-  30 2.23  58 2.36
  50  0.354  0.105  0.584-   1 1.58  52 2.35  22 2.41
  51  0.430  0.241  0.424-  56 2.35  64 2.43   8 2.44
  52  0.270  0.227  0.547-  59 2.26  32 2.28  56 2.29  50 2.35
  53  0.079  0.755  0.510-  20 2.22  14 2.27  24 2.35  35 2.53  66 3.11
  54  0.993  0.265  0.482-  47 2.31  40 2.34  16 2.45
  55  0.744  0.684  0.566-  62 2.35   9 2.37
  56  0.388  0.300  0.506-  52 2.29  17 2.34  51 2.35  44 2.42
  57  0.797  0.456  0.447-  40 2.26  18 2.35  31 2.39  60 2.88
  58  0.814  0.992  0.538-  23 2.32  49 2.36  27 2.36  35 2.72  11 2.78
  59  0.185  0.125  0.501-  52 2.26  36 2.28  47 2.33  38 2.39
  60  0.695  0.621  0.424-  62 2.28  39 2.33  57 2.88   9 3.14
  61  0.653  0.357  0.556-  26 2.26  31 2.35  44 2.36
  62  0.805  0.667  0.481-  60 2.28  18 2.31  65 2.32  55 2.35
  63  0.528  0.582  0.593-   9 2.30  21 2.61
  64  0.443  0.076  0.411-  45 2.24  37 2.36  51 2.43
  65  0.852  0.809  0.450-  35 2.27  62 2.32  29 2.37
  66  0.985  0.856  0.603-  15 2.24  35 2.28  53 3.11
  67  0.316  0.699  0.472-  19 2.28  43 2.31  46 2.40  20 2.44

  LATTYP: Found a simple tetragonal cell.
 ALAT       =    14.5538280032
 C/A-ratio  =     1.7663288308
  
  Lattice vectors:
  
 A1 = (  14.5538280032,   0.0000000000,   0.0000000000)
 A2 = (   0.0000000000,  14.5538280032,   0.0000000000)
 A3 = (   0.0000000000,   0.0000000000,  25.7068460000)


Analysis of symmetry for initial positions (statically):
=====================================================================
 Subroutine PRICEL returns:
 Original cell was already a primitive cell.
 

 Routine SETGRP: Setting up the symmetry group for a 
 simple tetragonal supercell.


 Subroutine GETGRP returns: Found  1 space group operations
 (whereof  1 operations were pure point group operations)
 out of a pool of 16 trial point group operations.


The static configuration has the point symmetry C_1 .


Analysis of symmetry for dynamics (positions and initial velocities):
=====================================================================
 Subroutine PRICEL returns:
 Original cell was already a primitive cell.
 

 Routine SETGRP: Setting up the symmetry group for a 
 simple tetragonal supercell.


 Subroutine GETGRP returns: Found  1 space group operations
 (whereof  1 operations were pure point group operations)
 out of a pool of 16 trial point group operations.


The dynamic configuration has the point symmetry C_1 .


 Subroutine INISYM returns: Found  1 space group operations
 (whereof  1 operations are pure point group operations),
 and found     1 'primitive' translations


----------------------------------------------------------------------------------------

                                     Primitive cell                                     

  volume of cell :    5445.0676

  direct lattice vectors                    reciprocal lattice vectors
    14.553828003  0.000000000  0.000000000     0.068710445  0.000000000  0.000000000
     0.000000000 14.553828003  0.000000000     0.000000000  0.068710445  0.000000000
     0.000000000  0.000000000 25.706846000     0.000000000  0.000000000  0.038900144

  length of vectors
    14.553828003 14.553828003 25.706846000     0.068710445  0.068710445  0.038900144

  position of ions in fractional coordinates (direct lattice)
     0.306941926  0.013502015  0.563718163
     0.122362309  0.363926934  0.561774712
     0.419122034  0.927591009  0.587614132
     0.839126311  0.519388438  0.606889542
     0.941800329  0.471857988  0.589920133
     0.858653819  0.299847573  0.552820677
     0.656568842  0.181864180  0.419176316
     0.576771967  0.320544533  0.414158781
     0.595856293  0.667576942  0.528739932
     0.194307642  0.432840762  0.449231928
     0.980882830  0.990179353  0.484998276
     0.002270674  0.509834938  0.544336555
     0.188638343  0.313099069  0.389001436
     0.191976984  0.852126327  0.537350868
     0.113863514  0.939821468  0.602312940
     0.090979500  0.394002870  0.508136471
     0.336020874  0.450535763  0.494149924
     0.918053999  0.556898158  0.469357696
     0.410050881  0.813325539  0.442532935
     0.156372605  0.698427932  0.443149113
     0.361776984  0.529469635  0.570288008
     0.508001056  0.112630162  0.549828089
     0.860612067  0.073245334  0.610537598
     0.095877868  0.633939057  0.570039436
     0.096533366  0.818877343  0.390988533
     0.766011526  0.251291962  0.553219792
     0.841283819  0.041799106  0.451602114
     0.150280050  0.561663227  0.400319432
     0.705353945  0.868822965  0.428079586
     0.617983805  0.929432449  0.491034412
     0.643247261  0.417566430  0.471437686
     0.223306198  0.325326093  0.610998564
     0.429609997  0.828091413  0.577252301
     0.784542733  0.192845484  0.469389594
     0.938921361  0.857135318  0.518127973
     0.223629137  0.976148680  0.484081011
     0.338693023  0.955501192  0.427876139
     0.058800956  0.070244062  0.552085464
     0.575676035  0.556292819  0.471271583
     0.865902771  0.318599340  0.435346911
     0.527056524  0.804750475  0.506752793
     0.241752204  0.619298922  0.593341011
     0.303875379  0.747342898  0.557222617
     0.513724636  0.274983324  0.565730467
     0.558073106  0.074415473  0.468738016
     0.415235772  0.570524126  0.456218783
     0.108515093  0.198922235  0.433373507
     0.099856890  0.964412936  0.427340095
     0.668311457  0.955686710  0.571797334
     0.354083475  0.104949021  0.583698833
     0.430088908  0.241133123  0.423728994
     0.269596425  0.226600864  0.547433785
     0.079486991  0.755464473  0.510465422
     0.992982739  0.264919305  0.482206024
     0.744388349  0.684050272  0.565593150
     0.387770145  0.299591283  0.505676037
     0.797412200  0.456288888  0.447439021
     0.814253130  0.991780307  0.537700969
     0.184521213  0.125076372  0.501302105
     0.695363446  0.620824294  0.423771395
     0.652623488  0.357356841  0.556292903
     0.805416966  0.667079479  0.481498819
     0.528241779  0.581732174  0.593411031
     0.442550922  0.076236987  0.411266944
     0.851562901  0.809409043  0.450196263
     0.984819939  0.856269567  0.602873102
     0.315925130  0.699101295  0.471867533

  ion indices of the primitive-cell ions
   primitive index   ion index
                 1           1
                 2           2
                 3           3
                 4           4
                 5           5
                 6           6
                 7           7
                 8           8
                 9           9
                10          10
                11          11
                12          12
                13          13
                14          14
                15          15
                16          16
                17          17
                18          18
                19          19
                20          20
                21          21
                22          22
                23          23
                24          24
                25          25
                26          26
                27          27
                28          28
                29          29
                30          30
                31          31
                32          32
                33          33
                34          34
                35          35
                36          36
                37          37
                38          38
                39          39
                40          40
                41          41
                42          42
                43          43
                44          44
                45          45
                46          46
                47          47
                48          48
                49          49
                50          50
                51          51
                52          52
                53          53
                54          54
                55          55
                56          56
                57          57
                58          58
                59          59
                60          60
                61          61
                62          62
                63          63
                64          64
                65          65
                66          66
                67          67

----------------------------------------------------------------------------------------


 -----------------------------------------------------------------------------
|                                                                             |
|           W    W    AA    RRRRR   N    N  II  N    N   GGGG   !!!           |
|           W    W   A  A   R    R  NN   N  II  NN   N  G    G  !!!           |
|           W    W  A    A  R    R  N N  N  II  N N  N  G       !!!           |
|           W WW W  AAAAAA  RRRRR   N  N N  II  N  N N  G  GGG   !            |
|           WW  WW  A    A  R   R   N   NN  II  N   NN  G    G                |
|           W    W  A    A  R    R  N    N  II  N    N   GGGG   !!!           |
|                                                                             |
|     The requested file  could not be found or opened for reading            |
|     k-point information. Automatic k-point generation is used as a          |
|     fallback, which may lead to unwanted results.                           |
|                                                                             |
 -----------------------------------------------------------------------------



Automatic generation of k-mesh.
 Grid dimensions derived from KSPACING:
 generate k-points for:    2    2    2

 Generating k-lattice:

  Cartesian coordinates                     Fractional coordinates (reciprocal lattice)
     0.034355223  0.000000000  0.000000000     0.500000000  0.000000000  0.000000000
     0.000000000  0.034355223  0.000000000     0.000000000  0.500000000  0.000000000
     0.000000000  0.000000000  0.019450072     0.000000000  0.000000000  0.500000000

  Length of vectors
     0.034355223  0.034355223  0.019450072

  Shift w.r.t. Gamma in fractional coordinates (k-lattice)
     0.000000000  0.000000000  0.000000000

 
 Subroutine IBZKPT returns following result:
 ===========================================
 
 Found      8 irreducible k-points:
 
 Following reciprocal coordinates:
            Coordinates               Weight
  0.000000  0.000000  0.000000      1.000000
  0.500000  0.000000  0.000000      1.000000
  0.000000  0.500000  0.000000      1.000000
  0.500000  0.500000  0.000000      1.000000
  0.000000  0.000000  0.500000      1.000000
  0.500000  0.000000  0.500000      1.000000
  0.000000  0.500000  0.500000      1.000000
  0.500000  0.500000  0.500000      1.000000
 
 Following cartesian coordinates:
            Coordinates               Weight
  0.000000  0.000000  0.000000      1.000000
  0.034355  0.000000  0.000000      1.000000
  0.000000  0.034355  0.000000      1.000000
  0.034355  0.034355  0.000000      1.000000
  0.000000  0.000000  0.019450      1.000000
  0.034355  0.000000  0.019450      1.000000
  0.000000  0.034355  0.019450      1.000000
  0.034355  0.034355  0.019450      1.000000
 


--------------------------------------------------------------------------------------------------------




 Dimension of arrays:
   k-points           NKPTS =      8   k-points in BZ     NKDIM =      8   number of bands    NBANDS=    160
   number of dos      NEDOS =   2000   number of ions     NIONS =     67
   non local maximal  LDIM  =      4   non local SUM 2l+1 LMDIM =      8
   total plane-waves  NPLWV = ******
   max r-space proj   IRMAX =      1   max aug-charges    IRDMAX= 407770
   dimension x,y,z NGX =   168 NGY =  168 NGZ =  294
   dimension x,y,z NGXF=   336 NGYF=  336 NGZF=  588
   support grid    NGXF=   672 NGYF=  672 NGZF= 1176
   ions per type =               6  61
   NGX,Y,Z   is equivalent  to a cutoff of  19.19, 19.19, 19.01 a.u.
   NGXF,Y,Z  is equivalent  to a cutoff of  38.38, 38.38, 38.03 a.u.

 SYSTEM =  a-Si SPC                                
 POSCAR =   H Si                                   

 Startparameter for this run:
   NWRITE =      2    write-flag & timer
   PREC   = accura    normal or accurate (medium, high low for compatibility)
   ISTART =      1    job   : 0-new  1-cont  2-samecut
   ICHARG =      1    charge: 1-file 2-atom 10-const
   ISPIN  =      1    spin polarized calculation?
   LNONCOLLINEAR =      F non collinear calculations
   LSORBIT =      F    spin-orbit coupling
   INIWAV =      1    electr: 0-lowe 1-rand  2-diag
   LASPH  =      T    aspherical Exc in radial PAW
 Electronic Relaxation 1
   ENCUT  = 1200.0 eV  88.20 Ry    9.39 a.u.  41.11 41.11 72.61*2*pi/ulx,y,z
   ENINI  = 1200.0     initial cutoff
   ENAUG  =  400.0 eV  augmentation charge cutoff
   NELM   =    150;   NELMIN=  2; NELMDL=  0     # of ELM steps 
   EDIFF  = 0.1E-05   stopping-criterion for ELM
   LREAL  =      F    real-space projection
   NLSPLINE    = F    spline interpolate recip. space projectors
   LCOMPAT=      F    compatible to vasp.4.4
   GGA_COMPAT  = T    GGA compatible to vasp.4.4-vasp.4.6
   LMAXPAW     = -100 max onsite density
   LMAXMIX     =    2 max onsite mixed and CHGCAR
   VOSKOWN=      0    Vosko Wilk Nusair interpolation
   ROPT   =    0.00000   0.00000
 Ionic relaxation
   EDIFFG = -.1E-01   stopping-criterion for IOM
   NSW    =      0    number of steps for IOM
   NBLOCK =      1;   KBLOCK =      1    inner block; outer block 
   IBRION =     -1    ionic relax: 0-MD 1-quasi-New 2-CG
   NFREE  =      0    steps in history (QN), initial steepest desc. (CG)
   ISIF   =      2    stress and relaxation
   IWAVPR =     10    prediction:  0-non 1-charg 2-wave 3-comb
   ISYM   =      1    0-nonsym 1-usesym 2-fastsym
   LCORR  =      T    Harris-Foulkes like correction to forces

   POTIM  = 0.5000    time-step for ionic-motion
   TEIN   =    0.0    initial temperature
   TEBEG  =    0.0;   TEEND  =   0.0 temperature during run
   SMASS  =  -3.00    Nose mass-parameter (am)
   estimated Nose-frequenzy (Omega)   =  0.10E-29 period in steps = 0.13E+47 mass=  -0.484E-26a.u.
   SCALEE = 1.0000    scale energy and forces
   NPACO  =    256;   APACO  = 10.0  distance and # of slots for P.C.
   PSTRESS=    0.0 pullay stress

  Mass of Ions in am
   POMASS =   1.00 28.09
  Ionic Valenz
   ZVAL   =   1.00  4.00
  Atomic Wigner-Seitz radii
   RWIGS  =  -1.00 -1.00
  virtual crystal weights 
   VCA    =   1.00  1.00
   NELECT =     250.0000    total number of electrons
   NUPDOWN=      -1.0000    fix difference up-down

 DOS related values:
   EMIN   =  10.00;   EMAX   =-10.00  energy-range for DOS
   EFERMI =   0.00;   METHOD = LEGACY      
   ISMEAR =     0;   SIGMA  =   0.10  broadening in eV -4-tet -1-fermi 0-gaus
   EFERMI_NEDOS =   21; number of points for ismear=-14 and -15

 Electronic relaxation 2 (details)
   IALGO  =     38    algorithm
   LDIAG  =      F    sub-space diagonalisation (order eigenvalues)
   LSUBROT=      F    optimize rotation matrix (better conditioning)
   TURBO    =      0    0=normal 1=particle mesh
   IRESTART =      0    0=no restart 2=restart with 2 vectors
   NREBOOT  =      0    no. of reboots
   NMIN     =      0    reboot dimension
   EREF     =   0.00    reference energy to select bands
   IMIX   =      4    mixing-type and parameters
     AMIX     =   0.40;   BMIX     =  1.00
     AMIX_MAG =   1.60;   BMIX_MAG =  1.00
     AMIN     =   0.10
     WC   =   100.;   INIMIX=   1;  MIXPRE=   1;  MAXMIX= -45

 Intra band minimization:
   WEIMIN = 0.0000     energy-eigenvalue tresh-hold
   EBREAK =  0.16E-08  absolut break condition
   DEPER  =   0.30     relativ break condition  

   TIME   =   0.40     timestep for ELM

  volume/ion in A,a.u.               =      81.27       548.43
  Fermi-wavevector in a.u.,A,eV,Ry     =   0.586211  1.107778  4.675547  0.343643
  Thomas-Fermi vector in A             =   1.632604

 Write flags
   LWAVE        =      F    write WAVECAR
   LDOWNSAMPLE  =      F    k-point downsampling of WAVECAR
   LCHARG       =      F    write CHGCAR
   LVTOT        =      F    write LOCPOT, total local potential
   LVHAR        =      F    write LOCPOT, Hartree potential only
   WRT_POTENTIAL= false  ! write potential to hdf5 file
   LELF         =      F    write electronic localiz. function (ELF)
   LORBIT       =     11    0 simple, 1 ext, 2 COOP (PROOUT), +10 PAW based schemes


 Python interface
   PLUGINS active      =      F    recompile with -DPLUGINS to activate

 Dipole corrections
   LMONO      =      F    monopole corrections only (constant potential shift)
   LDIPOL     =      F    correct potential (dipole corrections)
   IDIPOL     =      0    1-x, 2-y, 3-z, 4-all directions 
   EPSILON    =  1.0000000 bulk dielectric constant
   LVACPOTAV  =      F  vacuum potentials using an averaging scheme for the charge density
   VACPOTFLAT =  0.1000000 required flatness to determine vacuum potential

Coulomb truncation method
  LTRUNCATE          =      F  Coulomb kernel truncation to be used
  IDIMENSIONALITY    =      3  Dimensionality of cutoff (0 molecules / 2 surfaces)
  ISURFACE           =     -1  Direction of surface normal
  LCOARSEN           =      F  Coarsen the charge grid before padding, preferred


 Exchange correlation treatment:
   METAGGA = SCAN    functional components
   XC_C    = 1    coefficients multiplying the functional components
   LIBXC   =     F    Libxc                    
   VOSKOWN =     0    Vosko Wilk Nusair interpolation
   LHFCALC =     F    Hartree Fock is set to
   LHFONE  =     F    Hartree Fock one center treatment
   AEXX    =    0.0000 exact exchange contribution

 Parameters of functionals:
   SCAN:
     P1 =  0.000000E+00
     P2 =  0.000000E+00
     P3 =  0.000000E+00

 Accuracy and mixing parameters for tau-dependent meta-GGA functionals:
   LMAXTAU = 6
   LMIXTAU = T

 Van der Waals corrections
   IVDW    =     0    specifies the selected vdW correction

 Linear response parameters
   LEPSILON=     F    determine dielectric tensor
   LRPA    =     F    only Hartree local field effects (RPA)
   LNABLA  =     F    use nabla operator in PAW spheres
   LVEL    =     F    velocity operator in full k-point grid
   CSHIFT  =0.1000    complex shift for real part using Kramers Kronig
   OMEGAMAX=  -1.0    maximum frequency
   DEG_THRESHOLD= 0.2000000E-02 threshold for treating states as degnerate
   RTIME   =   -0.100 relaxation time in fs
  (WPLASMAI=    0.000 imaginary part of plasma frequency in eV, 0.658/RTIME)
   DFIELD  = 0.0000000 0.0000000 0.0000000 field for delta impulse in time

  Optional k-point grid parameters
   LKPOINTS_OPT  =     F    use optional k-point grid
   KPOINTS_OPT_MODE=     1    mode for optional k-point grid

 Orbital magnetization related:
   ORBITALMAG=     F  switch on orbital magnetization
   LCHIMAG   =     F  perturbation theory with respect to B field
   DQ        =  0.001000  dq finite difference perturbation B field
   LLRAUG    =     F  two centre corrections for induced B field
   LBONE     =     F  B-component reconstruction in AE one-centre
   LVGVCALC  =     T  calculate vGv susceptibility
   LVGVAPPL  =     F  apply vGv susceptibility instead of pGv for G=0

 Random number generation:
   RANDOM_GENERATOR = DEFAULT
   PCG_SEED         = not used


--------------------------------------------------------------------------------------------------------


 Static calculation
 charge density and potential will be updated during run
 non-spin polarized calculation
 Variant of blocked Davidson
 perform Loewdin sub-space diagonalisation
    ordering is kept fixed
    before iterative eigenvector-optimisation
 modified Broyden-mixing scheme, WC =      100.0
 initial mixing is a Kerker type mixing with AMIX =  0.4000 and BMIX =      1.0000
 Hartree-type preconditioning will be used
 using additional bands           35
 reciprocal scheme for non local part
 use partial core corrections
 calculate Harris-corrections to forces   (improved forces if not selfconsistent)
 use gradient corrections 
 use of overlap-Matrix (Vanderbilt PP)
 Gauss-broadening in eV      SIGMA  =   0.10


--------------------------------------------------------------------------------------------------------


  energy-cutoff  :     1200.00
  volume of cell :     5445.07
      direct lattice vectors                 reciprocal lattice vectors
    14.553828003  0.000000000  0.000000000     0.068710445  0.000000000  0.000000000
     0.000000000 14.553828003  0.000000000     0.000000000  0.068710445  0.000000000
     0.000000000  0.000000000 25.706846000     0.000000000  0.000000000  0.038900144

  length of vectors
    14.553828003 14.553828003 25.706846000     0.068710445  0.068710445  0.038900144



 old parameters found on file WAVECAR:
  energy-cutoff  :     1200.00
  volume of cell :     5445.07
      direct lattice vectors                 reciprocal lattice vectors
    14.553828003  0.000000000  0.000000000     0.068710445  0.000000000  0.000000000
     0.000000000 14.553828003  0.000000000     0.000000000  0.068710445  0.000000000
     0.000000000  0.000000000 25.706846000     0.000000000  0.000000000  0.038900144

  length of vectors


 k-points in units of 2pi/SCALE and weight: read from INCAR                         
   0.00000000  0.00000000  0.00000000       0.125
   0.03435522  0.00000000  0.00000000       0.125
   0.00000000  0.03435522  0.00000000       0.125
   0.03435522  0.03435522  0.00000000       0.125
   0.00000000  0.00000000  0.01945007       0.125
   0.03435522  0.00000000  0.01945007       0.125
   0.00000000  0.03435522  0.01945007       0.125
   0.03435522  0.03435522  0.01945007       0.125

 k-points in reciprocal lattice and weights: read from INCAR                         
   0.00000000  0.00000000  0.00000000       0.125
   0.50000000  0.00000000  0.00000000       0.125
   0.00000000  0.50000000  0.00000000       0.125
   0.50000000  0.50000000  0.00000000       0.125
   0.00000000  0.00000000  0.50000000       0.125
   0.50000000  0.00000000  0.50000000       0.125
   0.00000000  0.50000000  0.50000000       0.125
   0.50000000  0.50000000  0.50000000       0.125

 position of ions in fractional coordinates (direct lattice) 
   0.30694193  0.01350201  0.56371816
   0.12236231  0.36392693  0.56177471
   0.41912203  0.92759101  0.58761413
   0.83912631  0.51938844  0.60688954
   0.94180033  0.47185799  0.58992013
   0.85865382  0.29984757  0.55282068
   0.65656884  0.18186418  0.41917632
   0.57677197  0.32054453  0.41415878
   0.59585629  0.66757694  0.52873993
   0.19430764  0.43284076  0.44923193
   0.98088283  0.99017935  0.48499828
   0.00227067  0.50983494  0.54433656
   0.18863834  0.31309907  0.38900144
   0.19197698  0.85212633  0.53735087
   0.11386351  0.93982147  0.60231294
   0.09097950  0.39400287  0.50813647
   0.33602087  0.45053576  0.49414992
   0.91805400  0.55689816  0.46935770
   0.41005088  0.81332554  0.44253293
   0.15637261  0.69842793  0.44314911
   0.36177698  0.52946963  0.57028801
   0.50800106  0.11263016  0.54982809
   0.86061207  0.07324533  0.61053760
   0.09587787  0.63393906  0.57003944
   0.09653337  0.81887734  0.39098853
   0.76601153  0.25129196  0.55321979
   0.84128382  0.04179911  0.45160211
   0.15028005  0.56166323  0.40031943
   0.70535395  0.86882297  0.42807959
   0.61798380  0.92943245  0.49103441
   0.64324726  0.41756643  0.47143769
   0.22330620  0.32532609  0.61099856
   0.42961000  0.82809141  0.57725230
   0.78454273  0.19284548  0.46938959
   0.93892136  0.85713532  0.51812797
   0.22362914  0.97614868  0.48408101
   0.33869302  0.95550119  0.42787614
   0.05880096  0.07024406  0.55208546
   0.57567604  0.55629282  0.47127158
   0.86590277  0.31859934  0.43534691
   0.52705652  0.80475048  0.50675279
   0.24175220  0.61929892  0.59334101
   0.30387538  0.74734290  0.55722262
   0.51372464  0.27498332  0.56573047
   0.55807311  0.07441547  0.46873802
   0.41523577  0.57052413  0.45621878
   0.10851509  0.19892224  0.43337351
   0.09985689  0.96441294  0.42734009
   0.66831146  0.95568671  0.57179733
   0.35408348  0.10494902  0.58369883
   0.43008891  0.24113312  0.42372899
   0.26959643  0.22660086  0.54743378
   0.07948699  0.75546447  0.51046542
   0.99298274  0.26491931  0.48220602
   0.74438835  0.68405027  0.56559315
   0.38777015  0.29959128  0.50567604
   0.79741220  0.45628889  0.44743902
   0.81425313  0.99178031  0.53770097
   0.18452121  0.12507637  0.50130210
   0.69536345  0.62082429  0.42377140
   0.65262349  0.35735684  0.55629290
   0.80541697  0.66707948  0.48149882
   0.52824178  0.58173217  0.59341103
   0.44255092  0.07623699  0.41126694
   0.85156290  0.80940904  0.45019626
   0.98481994  0.85626957  0.60287310
   0.31592513  0.69910129  0.47186753

 position of ions in cartesian coordinates  (Angst):
   4.46718000  0.19650600 14.49141600
   1.78084000  5.29653000 14.44145600
   6.09983000 13.50000000 15.10570600
  12.21250000  7.55909000 15.60121600
  13.70680000  6.86734000 15.16498600
  12.49670000  4.36393000 14.21127600
   9.55559000  2.64682000 10.77570100
   8.39424000  4.66515000 10.64671600
   8.67199000  9.71580000 13.59223600
   2.82792000  6.29949000 11.54833600
  14.27560000 14.41090000 12.46777600
   0.03304700  7.42005000 13.99317600
   2.74541000  4.55679000 10.00000000
   2.79400000 12.40170000 13.81359600
   1.65715000 13.67800000 15.48356600
   1.32410000  5.73425000 13.06258600
   4.89039000  6.55702000 12.70303600
  13.36120000  8.10500000 12.06570600
   5.96781000 11.83700000 11.37612600
   2.27582000 10.16480000 11.39196600
   5.26524000  7.70581000 14.66030600
   7.39336000  1.63920000 14.13434600
  12.52520000  1.06600000 15.69499600
   1.39539000  9.22624000 14.65391600
   1.40493000 11.91780000 10.05108200
  11.14840000  3.65726000 14.22153600
  12.24390000  0.60833700 11.60926600
   2.18715000  8.17435000 10.29095000
  10.26560000 12.64470000 11.00457600
   8.99403000 13.52680000 12.62294600
   9.36171000  6.07719000 12.11917600
   3.24996000  4.73474000 15.70684600
   6.25247000 12.05190000 14.83933600
  11.41810000  2.80664000 12.06652600
  13.66490000 12.47460000 13.31943600
   3.25466000 14.20670000 12.44419600
   4.92928000 13.90620000 10.99934600
   0.85577900  1.02232000 14.19237600
   8.37829000  8.09619000 12.11490600
  12.60220000  4.63684000 11.19139600
   7.67069000 11.71220000 13.02701600
   3.51842000  9.01317000 15.25292600
   4.42255000 10.87670000 14.32443600
   7.47666000  4.00206000 14.54314600
   8.12210000  1.08303000 12.04977600
   6.04327000  8.30331000 11.72794600
   1.57931000  2.89508000 11.14066600
   1.45330000 14.03590000 10.98556600
   9.72649000 13.90890000 14.69910600
   5.15327000  1.52741000 15.00505600
   6.25944000  3.50941000 10.89273600
   3.92366000  3.29791000 14.07279600
   1.15684000 10.99490000 13.12245600
  14.45170000  3.85559000 12.39599600
  10.83370000  9.95555000 14.53961600
   5.64354000  4.36020000 12.99933600
  11.60540000  6.64075000 11.50224600
  11.85050000 14.43420000 13.82259600
   2.68549000  1.82034000 12.88689600
  10.12020000  9.03537000 10.89382600
   9.49817000  5.20091000 14.30053600
  11.72190000  9.70856000 12.37781600
   7.68794000  8.46643000 15.25472600
   6.44081000  1.10954000 10.57237600
  12.39350000 11.78000000 11.57312600
  14.33290000 12.46200000 15.49796600
   4.59792000 10.17460000 12.13022600



--------------------------------------------------------------------------------------------------------


 k-point     1 :   0.0000 0.0000 0.0000  plane waves:  513673
 k-point     2 :   0.5000 0.0000 0.0000  plane waves:  514010
 k-point     3 :   0.0000 0.5000 0.0000  plane waves:  514010
 k-point     4 :   0.5000 0.5000 0.0000  plane waves:  513868
 k-point     5 :   0.0000 0.0000 0.5000  plane waves:  513778
 k-point     6 :   0.5000 0.0000 0.5000  plane waves:  513976
 k-point     7 :   0.0000 0.5000 0.5000  plane waves:  513976
 k-point     8 :   0.5000 0.5000 0.5000  plane waves:  514000

 maximum and minimum number of plane-waves per node :     32198    31987

 maximum number of plane-waves:    514010
 maximum index in each direction: 
   IXMAX=   41   IYMAX=   41   IZMAX=   72
   IXMIN=  -41   IYMIN=  -41   IZMIN=  -73


 parallel 3D FFT for wavefunctions:
    minimum data exchange during FFTs selected (reduces bandwidth)
 parallel 3D FFT for charge:
    minimum data exchange during FFTs selected (reduces bandwidth)


 total amount of memory used by VASP MPI-rank0   356944. kBytes
=======================================================================

   base                                    :      30000. kBytes
   nonl-proj                               :      67357. kBytes
   fftplans                                :     100025. kBytes
   grid                                    :      77177. kBytes
   one-center                              :         15. kBytes
   wavefun                                 :      82370. kBytes

     INWAV:  cpu time     24.9209: real time     24.9360
 Broyden mixing: mesh for mixing (old mesh)
   NGX = 83   NGY = 83   NGZ =145
  (NGX  =336   NGY  =336   NGZ  =588)
  gives a total of 998905 points

 initial charge density was supplied:
 number of electron     249.9999999 magnetization 
 keeping initial charge density in first step


--------------------------------------------------------------------------------------------------------


 Maximum index for augmentation-charges        11332 (set IRDMAX)


--------------------------------------------------------------------------------------------------------


 First call to EWALD:  gamma=   0.101
 Maximum number of real-space cells   3x   3x   2
 Maximum number of reciprocal cells   2x   2x   4

    FEWALD:  cpu time      0.0144: real time      0.0144


--------------------------------------- Ionic step        1  -------------------------------------------




--------------------------------------- Iteration      1(   1)  ---------------------------------------


    POTLOK:  cpu time      1.9741: real time      1.9753
    SETDIJ:  cpu time      1.3550: real time      1.3567
    EDDIAG:  cpu time     48.5663: real time     48.5940
     EDDAV:  cpu time    211.9517: real time    212.0539
       DOS:  cpu time      0.0074: real time      0.0076
    CHARGE:  cpu time     27.5700: real time     27.5939
    MIXING:  cpu time      0.0463: real time      0.0466
    --------------------------------------------
      LOOP:  cpu time    291.4710: real time    291.6281

 eigenvalue-minimisations  :  2560
 total energy-change (2. order) :-0.6106634E+03  (-0.7154485E+00)
 number of electron     249.9999999 magnetization 
 augmentation part      -14.1138108 magnetization 

 Broyden mixing:
  rms(total) = 0.91245E+00    rms(broyden)= 0.21479E+02
  rms(prec ) = 0.93922E+00
  weight for this iteration     100.00
  WARNING: grid for Broyden might be to small

 Free energy of the ion-electron system (eV)
  ---------------------------------------------------
  alpha Z        PSCENC =        24.24119373
  Ewald energy   TEWEN  =     28380.08810316
  -Hartree energ DENC   =    -33794.64426373
  -exchange      EXHF   =         0.00000000
  -V(xc)+E(xc)   XCENC  =      -293.81250685
  PAW double counting   =     21344.62394356   -20736.11837925
  entropy T*S    EENTRO =        -0.17682800
  eigenvalues    EBANDS =     -1896.87183438
  atomic energy  EATOM  =      6362.00715488
  Solvation  Ediel_sol  =         0.00000000
  ---------------------------------------------------
  free energy    TOTEN  =      -610.66341688 eV

  energy without entropy =     -610.48658888  energy(sigma->0) =     -610.57500288


--------------------------------------------------------------------------------------------------------




--------------------------------------- Iteration      1(   2)  ---------------------------------------


    POTLOK:  cpu time      1.9308: real time      1.9571
    SETDIJ:  cpu time      1.3580: real time      1.3588
    EDDIAG:  cpu time     48.4929: real time     48.5163
     EDDAV:  cpu time    212.6703: real time    212.7877
       DOS:  cpu time      0.0024: real time      0.0024
    CHARGE:  cpu time     27.4805: real time     27.5042
    MIXING:  cpu time      0.0402: real time      0.0404
    --------------------------------------------
      LOOP:  cpu time    291.9752: real time    292.1669

 eigenvalue-minimisations  :  2576
 total energy-change (2. order) : 0.4446456E+02  (-0.6747595E+00)
 number of electron     249.9999999 magnetization 
 augmentation part      -14.0821623 magnetization 

 Broyden mixing:
  rms(total) = 0.62173E+00    rms(broyden)= 0.12371E+02
  rms(prec ) = 0.63627E+00
  weight for this iteration     100.00
  WARNING: grid for Broyden might be to small

 eigenvalues of (default mixing * dielectric matrix)
  average eigenvalue GAMMA=   0.6346
  0.6346

 Free energy of the ion-electron system (eV)
  ---------------------------------------------------
  alpha Z        PSCENC =        24.24119373
  Ewald energy   TEWEN  =     28380.08810316
  -Hartree energ DENC   =    -33784.81202772
  -exchange      EXHF   =         0.00000000
  -V(xc)+E(xc)   XCENC  =      -287.64319008
  PAW double counting   =     25375.16969078   -24766.51528260
  entropy T*S    EENTRO =        -0.16599708
  eigenvalues    EBANDS =     -1868.56850609
  atomic energy  EATOM  =      6362.00715488
  Solvation  Ediel_sol  =         0.00000000
  ---------------------------------------------------
  free energy    TOTEN  =      -566.19886101 eV

  energy without entropy =     -566.03286394  energy(sigma->0) =     -566.11586247


--------------------------------------------------------------------------------------------------------




--------------------------------------- Iteration      1(   3)  ---------------------------------------


    POTLOK:  cpu time      1.9590: real time      1.9812
    SETDIJ:  cpu time      1.3612: real time      1.3619
    EDDIAG:  cpu time     48.5090: real time     48.5317
     EDDAV:  cpu time    211.9107: real time    212.0239
       DOS:  cpu time      0.0055: real time      0.0055
    CHARGE:  cpu time     27.5079: real time     27.5300
    MIXING:  cpu time      0.0376: real time      0.0385
    --------------------------------------------
      LOOP:  cpu time    291.2909: real time    291.4727

 eigenvalue-minimisations  :  2560
 total energy-change (2. order) :-0.2026498E+01  (-0.5584334E+00)
 number of electron     249.9999999 magnetization 
 augmentation part      -14.0281370 magnetization 

 Broyden mixing:
  rms(total) = 0.28084E+00    rms(broyden)= 0.17601E+02
  rms(prec ) = 0.34303E+00
  weight for this iteration     100.00
  WARNING: grid for Broyden might be to small

 eigenvalues of (default mixing * dielectric matrix)
  average eigenvalue GAMMA=   0.7595
  0.8933  0.6257

 Free energy of the ion-electron system (eV)
  ---------------------------------------------------
  alpha Z        PSCENC =        24.24119373
  Ewald energy   TEWEN  =     28380.08810316
  -Hartree energ DENC   =    -33784.77665632
  -exchange      EXHF   =         0.00000000
  -V(xc)+E(xc)   XCENC  =      -289.50147333
  PAW double counting   =     30055.52585696   -29446.99024904
  entropy T*S    EENTRO =        -0.16944371
  eigenvalues    EBANDS =     -1868.64984504
  atomic energy  EATOM  =      6362.00715488
  Solvation  Ediel_sol  =         0.00000000
  ---------------------------------------------------
  free energy    TOTEN  =      -568.22535872 eV

  energy without entropy =     -568.05591501  energy(sigma->0) =     -568.14063686


--------------------------------------------------------------------------------------------------------




--------------------------------------- Iteration      1(   4)  ---------------------------------------


    POTLOK:  cpu time      1.9391: real time      1.9645
    SETDIJ:  cpu time      1.3587: real time      1.3598
    EDDIAG:  cpu time     48.5166: real time     48.5393
     EDDAV:  cpu time    222.0993: real time    222.2205
       DOS:  cpu time      0.0037: real time      0.0037
    CHARGE:  cpu time     27.4924: real time     27.5150
    MIXING:  cpu time      0.0399: real time      0.0399
    --------------------------------------------
      LOOP:  cpu time    301.4496: real time    301.6427

 eigenvalue-minimisations  :  2784
 total energy-change (2. order) : 0.2939547E+00  (-0.7039438E-01)
 number of electron     249.9999999 magnetization 
 augmentation part      -14.0297143 magnetization 

 Broyden mixing:
  rms(total) = 0.59230E-01    rms(broyden)= 0.51704E+00
  rms(prec ) = 0.79381E-01
  weight for this iteration     100.00
  WARNING: grid for Broyden might be to small

 eigenvalues of (default mixing * dielectric matrix)
  average eigenvalue GAMMA=   0.9731
  1.6244  0.6845  0.6105

 Free energy of the ion-electron system (eV)
  ---------------------------------------------------
  alpha Z        PSCENC =        24.24119373
  Ewald energy   TEWEN  =     28380.08810316
  -Hartree energ DENC   =    -33784.14458452
  -exchange      EXHF   =         0.00000000
  -V(xc)+E(xc)   XCENC  =      -289.94339685
  PAW double counting   =     33728.99737366   -33120.50481154
  entropy T*S    EENTRO =        -0.16692075
  eigenvalues    EBANDS =     -1868.50551576
  atomic energy  EATOM  =      6362.00715488
  Solvation  Ediel_sol  =         0.00000000
  ---------------------------------------------------
  free energy    TOTEN  =      -567.93140398 eV

  energy without entropy =     -567.76448324  energy(sigma->0) =     -567.84794361


--------------------------------------------------------------------------------------------------------




--------------------------------------- Iteration      1(   5)  ---------------------------------------


    POTLOK:  cpu time      1.9334: real time      1.9562
    SETDIJ:  cpu time      1.3518: real time      1.3525
    EDDIAG:  cpu time     48.5019: real time     48.5285
     EDDAV:  cpu time    223.5092: real time    223.6284
       DOS:  cpu time      0.0027: real time      0.0027
    CHARGE:  cpu time     27.4927: real time     27.5162
    MIXING:  cpu time      0.0389: real time      0.0389
    --------------------------------------------
      LOOP:  cpu time    302.8306: real time    303.0235

 eigenvalue-minimisations  :  2816
 total energy-change (2. order) :-0.1223499E-01  (-0.1224463E-01)
 number of electron     249.9999999 magnetization 
 augmentation part      -14.0289813 magnetization 

 Broyden mixing:
  rms(total) = 0.37420E-01    rms(broyden)= 0.61003E+00
  rms(prec ) = 0.46933E-01
  weight for this iteration     100.00
  WARNING: grid for Broyden might be to small

 eigenvalues of (default mixing * dielectric matrix)
  average eigenvalue GAMMA=   1.0774
  2.4015  0.7931  0.6258  0.4894

 Free energy of the ion-electron system (eV)
  ---------------------------------------------------
  alpha Z        PSCENC =        24.24119373
  Ewald energy   TEWEN  =     28380.08810316
  -Hartree energ DENC   =    -33784.44550166
  -exchange      EXHF   =         0.00000000
  -V(xc)+E(xc)   XCENC  =      -290.56773349
  PAW double counting   =     33605.40351206   -32996.89951896
  entropy T*S    EENTRO =        -0.16776419
  eigenvalues    EBANDS =     -1867.60308449
  atomic energy  EATOM  =      6362.00715488
  Solvation  Ediel_sol  =         0.00000000
  ---------------------------------------------------
  free energy    TOTEN  =      -567.94363898 eV

  energy without entropy =     -567.77587479  energy(sigma->0) =     -567.85975688


--------------------------------------------------------------------------------------------------------




--------------------------------------- Iteration      1(   6)  ---------------------------------------


    POTLOK:  cpu time      1.9397: real time      1.9663
    SETDIJ:  cpu time      1.3573: real time      1.3584
    EDDIAG:  cpu time     48.5115: real time     48.5335
     EDDAV:  cpu time    222.3651: real time    222.4821
       DOS:  cpu time      0.0043: real time      0.0043
    CHARGE:  cpu time     27.4908: real time     27.5135
    MIXING:  cpu time      0.0388: real time      0.0389
    --------------------------------------------
      LOOP:  cpu time    301.7076: real time    301.8970

 eigenvalue-minimisations  :  2792
 total energy-change (2. order) :-0.4117102E-03  (-0.3499741E-02)
 number of electron     249.9999999 magnetization 
 augmentation part      -14.0307586 magnetization 

 Broyden mixing:
  rms(total) = 0.21418E-01    rms(broyden)= 0.18949E+00
  rms(prec ) = 0.22783E-01
  weight for this iteration     100.00
  WARNING: grid for Broyden might be to small

 eigenvalues of (default mixing * dielectric matrix)
  average eigenvalue GAMMA=   1.0827
  2.5806  1.0143  0.6981  0.6262  0.4943

 Free energy of the ion-electron system (eV)
  ---------------------------------------------------
  alpha Z        PSCENC =        24.24119373
  Ewald energy   TEWEN  =     28380.08810316
  -Hartree energ DENC   =    -33784.06343037
  -exchange      EXHF   =         0.00000000
  -V(xc)+E(xc)   XCENC  =      -290.76250904
  PAW double counting   =     33458.79015319   -32850.27436598
  entropy T*S    EENTRO =        -0.16814112
  eigenvalues    EBANDS =     -1867.80220914
  atomic energy  EATOM  =      6362.00715488
  Solvation  Ediel_sol  =         0.00000000
  ---------------------------------------------------
  free energy    TOTEN  =      -567.94405069 eV

  energy without entropy =     -567.77590957  energy(sigma->0) =     -567.85998013


--------------------------------------------------------------------------------------------------------




--------------------------------------- Iteration      1(   7)  ---------------------------------------


    POTLOK:  cpu time      1.9798: real time      1.9815
    SETDIJ:  cpu time      1.3556: real time      1.3563
    EDDIAG:  cpu time     48.5385: real time     48.5606
     EDDAV:  cpu time    218.3257: real time    218.4387
       DOS:  cpu time      0.0028: real time      0.0028
    CHARGE:  cpu time     27.5014: real time     27.5247
    MIXING:  cpu time      0.0398: real time      0.0398
    --------------------------------------------
      LOOP:  cpu time    297.7437: real time    297.9044

 eigenvalue-minimisations  :  2704
 total energy-change (2. order) :-0.5605649E-03  (-0.9818937E-03)
 number of electron     249.9999999 magnetization 
 augmentation part      -14.0286316 magnetization 

 Broyden mixing:
  rms(total) = 0.10831E-01    rms(broyden)= 0.14456E+00
  rms(prec ) = 0.11922E-01
  weight for this iteration     100.00
  WARNING: grid for Broyden might be to small

 eigenvalues of (default mixing * dielectric matrix)
  average eigenvalue GAMMA=   1.0844
  2.6100  1.3086  0.8035  0.6301  0.6301  0.5239

 Free energy of the ion-electron system (eV)
  ---------------------------------------------------
  alpha Z        PSCENC =        24.24119373
  Ewald energy   TEWEN  =     28380.08810316
  -Hartree energ DENC   =    -33783.86957408
  -exchange      EXHF   =         0.00000000
  -V(xc)+E(xc)   XCENC  =      -290.64878170
  PAW double counting   =     33458.92553152   -32850.40362246
  entropy T*S    EENTRO =        -0.16820640
  eigenvalues    EBANDS =     -1868.11640991
  atomic energy  EATOM  =      6362.00715488
  Solvation  Ediel_sol  =         0.00000000
  ---------------------------------------------------
  free energy    TOTEN  =      -567.94461125 eV

  energy without entropy =     -567.77640485  energy(sigma->0) =     -567.86050805


--------------------------------------------------------------------------------------------------------




--------------------------------------- Iteration      1(   8)  ---------------------------------------


    POTLOK:  cpu time      1.9272: real time      1.9583
    SETDIJ:  cpu time      1.4068: real time      1.4077
    EDDIAG:  cpu time     48.5378: real time     48.5614
     EDDAV:  cpu time    219.8887: real time    220.0087
       DOS:  cpu time      0.0039: real time      0.0039
    CHARGE:  cpu time     27.5046: real time     27.5293
    MIXING:  cpu time      0.0404: real time      0.0404
    --------------------------------------------
      LOOP:  cpu time    299.3093: real time    299.5096

 eigenvalue-minimisations  :  2736
 total energy-change (2. order) :-0.6362836E-03  (-0.2911636E-03)
 number of electron     249.9999999 magnetization 
 augmentation part      -14.0285406 magnetization 

 Broyden mixing:
  rms(total) = 0.55775E-02    rms(broyden)= 0.74054E-01
  rms(prec ) = 0.66790E-02
  weight for this iteration     100.00
  WARNING: grid for Broyden might be to small

 eigenvalues of (default mixing * dielectric matrix)
  average eigenvalue GAMMA=   1.1673
  2.6590  2.0047  1.0242  0.7262  0.6130  0.6130  0.5309

 Free energy of the ion-electron system (eV)
  ---------------------------------------------------
  alpha Z        PSCENC =        24.24119373
  Ewald energy   TEWEN  =     28380.08810316
  -Hartree energ DENC   =    -33783.42599089
  -exchange      EXHF   =         0.00000000
  -V(xc)+E(xc)   XCENC  =      -290.58611426
  PAW double counting   =     33466.65707283   -32858.12835357
  entropy T*S    EENTRO =        -0.16795022
  eigenvalues    EBANDS =     -1868.63036319
  atomic energy  EATOM  =      6362.00715488
  Solvation  Ediel_sol  =         0.00000000
  ---------------------------------------------------
  free energy    TOTEN  =      -567.94524753 eV

  energy without entropy =     -567.77729731  energy(sigma->0) =     -567.86127242


--------------------------------------------------------------------------------------------------------




--------------------------------------- Iteration      1(   9)  ---------------------------------------


    POTLOK:  cpu time      1.9286: real time      1.9563
    SETDIJ:  cpu time      1.4086: real time      1.4100
    EDDIAG:  cpu time     48.5345: real time     48.5569
     EDDAV:  cpu time    226.5069: real time    226.6202
       DOS:  cpu time      0.0038: real time      0.0038
    CHARGE:  cpu time     27.5122: real time     27.5362
    MIXING:  cpu time      0.0409: real time      0.0410
    --------------------------------------------
      LOOP:  cpu time    305.9357: real time    306.1246

 eigenvalue-minimisations  :  2880
 total energy-change (2. order) :-0.5695169E-04  (-0.8675609E-04)
 number of electron     249.9999999 magnetization 
 augmentation part      -14.0282550 magnetization 

 Broyden mixing:
  rms(total) = 0.23627E-02    rms(broyden)= 0.47654E-01
  rms(prec ) = 0.30289E-02
  weight for this iteration     100.00
  WARNING: grid for Broyden might be to small

 eigenvalues of (default mixing * dielectric matrix)
  average eigenvalue GAMMA=   1.2238
  3.1375  2.4854  1.0054  0.6927  0.6823  0.6823  0.5131  0.5914

 Free energy of the ion-electron system (eV)
  ---------------------------------------------------
  alpha Z        PSCENC =        24.24119373
  Ewald energy   TEWEN  =     28380.08810316
  -Hartree energ DENC   =    -33783.17963503
  -exchange      EXHF   =         0.00000000
  -V(xc)+E(xc)   XCENC  =      -290.59929612
  PAW double counting   =     33482.09289587   -32873.56290310
  entropy T*S    EENTRO =        -0.16814617
  eigenvalues    EBANDS =     -1868.86467171
  atomic energy  EATOM  =      6362.00715488
  Solvation  Ediel_sol  =         0.00000000
  ---------------------------------------------------
  free energy    TOTEN  =      -567.94530449 eV

  energy without entropy =     -567.77715832  energy(sigma->0) =     -567.86123140


--------------------------------------------------------------------------------------------------------




--------------------------------------- Iteration      1(  10)  ---------------------------------------


    POTLOK:  cpu time      1.9287: real time      1.9569
    SETDIJ:  cpu time      1.3572: real time      1.3576
    EDDIAG:  cpu time     48.5236: real time     48.5487
     EDDAV:  cpu time    218.4691: real time    218.5814
       DOS:  cpu time      0.0026: real time      0.0026
    CHARGE:  cpu time     27.4856: real time     27.5096
    MIXING:  cpu time      0.0420: real time      0.0420
    --------------------------------------------
      LOOP:  cpu time    297.8086: real time    297.9986

 eigenvalue-minimisations  :  2704
 total energy-change (2. order) : 0.1145027E-04  (-0.4041787E-04)
 number of electron     249.9999999 magnetization 
 augmentation part      -14.0283652 magnetization 

 Broyden mixing:
  rms(total) = 0.13349E-02    rms(broyden)= 0.38859E-01
  rms(prec ) = 0.17650E-02
  weight for this iteration     100.00
  WARNING: grid for Broyden might be to small

 eigenvalues of (default mixing * dielectric matrix)
  average eigenvalue GAMMA=   1.3742
  4.7489  2.5654  1.2641  0.8974  0.6934  0.6280  0.6280  0.5224  0.4205

 Free energy of the ion-electron system (eV)
  ---------------------------------------------------
  alpha Z        PSCENC =        24.24119373
  Ewald energy   TEWEN  =     28380.08810316
  -Hartree energ DENC   =    -33782.96032962
  -exchange      EXHF   =         0.00000000
  -V(xc)+E(xc)   XCENC  =      -290.60427180
  PAW double counting   =     33478.32034229   -32869.78932757
  entropy T*S    EENTRO =        -0.16805264
  eigenvalues    EBANDS =     -1869.08010546
  atomic energy  EATOM  =      6362.00715488
  Solvation  Ediel_sol  =         0.00000000
  ---------------------------------------------------
  free energy    TOTEN  =      -567.94529304 eV

  energy without entropy =     -567.77724040  energy(sigma->0) =     -567.86126672


--------------------------------------------------------------------------------------------------------




--------------------------------------- Iteration      1(  11)  ---------------------------------------


    POTLOK:  cpu time      1.9257: real time      1.9508
    SETDIJ:  cpu time      1.3526: real time      1.3531
    EDDIAG:  cpu time     48.5156: real time     48.5382
     EDDAV:  cpu time    218.6373: real time    218.7525
       DOS:  cpu time      0.0045: real time      0.0045
    CHARGE:  cpu time     27.4818: real time     27.5068
    MIXING:  cpu time      0.0421: real time      0.0421
    --------------------------------------------
      LOOP:  cpu time    297.9596: real time    298.1480

 eigenvalue-minimisations  :  2704
 total energy-change (2. order) :-0.9519485E-04  (-0.2709086E-04)
 number of electron     249.9999999 magnetization 
 augmentation part      -14.0284662 magnetization 

 Broyden mixing:
  rms(total) = 0.77981E-03    rms(broyden)= 0.33110E-01
  rms(prec ) = 0.11834E-02
  weight for this iteration     100.00
  WARNING: grid for Broyden might be to small

 eigenvalues of (default mixing * dielectric matrix)
  average eigenvalue GAMMA=   1.5519
  6.4162  2.6062  1.7314  1.0552  0.8141  0.6659  0.6659  0.6058  0.5119  0.4464

 Free energy of the ion-electron system (eV)
  ---------------------------------------------------
  alpha Z        PSCENC =        24.24119373
  Ewald energy   TEWEN  =     28380.08810316
  -Hartree energ DENC   =    -33782.68628732
  -exchange      EXHF   =         0.00000000
  -V(xc)+E(xc)   XCENC  =      -290.61370329
  PAW double counting   =     33475.76846097   -32867.23676268
  entropy T*S    EENTRO =        -0.16809233
  eigenvalues    EBANDS =     -1869.34545535
  atomic energy  EATOM  =      6362.00715488
  Solvation  Ediel_sol  =         0.00000000
  ---------------------------------------------------
  free energy    TOTEN  =      -567.94538823 eV

  energy without entropy =     -567.77729590  energy(sigma->0) =     -567.86134206


--------------------------------------------------------------------------------------------------------




--------------------------------------- Iteration      1(  12)  ---------------------------------------


    POTLOK:  cpu time      1.9234: real time      1.9527
    SETDIJ:  cpu time      1.3619: real time      1.3626
    EDDIAG:  cpu time     48.5018: real time     48.5262
     EDDAV:  cpu time    217.9324: real time    218.0440
       DOS:  cpu time      0.0035: real time      0.0035
    CHARGE:  cpu time     27.4731: real time     27.4961
    MIXING:  cpu time      0.0443: real time      0.0443
    --------------------------------------------
      LOOP:  cpu time    297.2404: real time    297.4294

 eigenvalue-minimisations  :  2688
 total energy-change (2. order) :-0.1560589E-03  (-0.2475496E-04)
 number of electron     249.9999999 magnetization 
 augmentation part      -14.0285982 magnetization 

 Broyden mixing:
  rms(total) = 0.49287E-03    rms(broyden)= 0.26757E-01
  rms(prec ) = 0.80852E-03
  weight for this iteration     100.00
  WARNING: grid for Broyden might be to small

 eigenvalues of (default mixing * dielectric matrix)
  average eigenvalue GAMMA=   1.7002
  8.1986  2.6554  2.2635  1.1242  0.9098  0.7349  0.6246  0.6246  0.5879  0.4892
  0.4892

 Free energy of the ion-electron system (eV)
  ---------------------------------------------------
  alpha Z        PSCENC =        24.24119373
  Ewald energy   TEWEN  =     28380.08810316
  -Hartree energ DENC   =    -33782.39019927
  -exchange      EXHF   =         0.00000000
  -V(xc)+E(xc)   XCENC  =      -290.62252471
  PAW double counting   =     33474.58407376   -32866.05205592
  entropy T*S    EENTRO =        -0.16807713
  eigenvalues    EBANDS =     -1869.63321279
  atomic energy  EATOM  =      6362.00715488
  Solvation  Ediel_sol  =         0.00000000
  ---------------------------------------------------
  free energy    TOTEN  =      -567.94554429 eV

  energy without entropy =     -567.77746715  energy(sigma->0) =     -567.86150572


--------------------------------------------------------------------------------------------------------




--------------------------------------- Iteration      1(  13)  ---------------------------------------


    POTLOK:  cpu time      1.9564: real time      1.9583
    SETDIJ:  cpu time      1.3509: real time      1.3515
    EDDIAG:  cpu time     48.4939: real time     48.5184
     EDDAV:  cpu time    217.8801: real time    217.9927
       DOS:  cpu time      0.0096: real time      0.0096
    CHARGE:  cpu time     27.4464: real time     27.4715
    MIXING:  cpu time      0.0580: real time      0.0586
    --------------------------------------------
      LOOP:  cpu time    297.1954: real time    297.3607

 eigenvalue-minimisations  :  2688
 total energy-change (2. order) :-0.1664485E-03  (-0.1928675E-04)
 number of electron     249.9999999 magnetization 
 augmentation part      -14.0286504 magnetization 

 Broyden mixing:
  rms(total) = 0.30810E-03    rms(broyden)= 0.22131E-01
  rms(prec ) = 0.57608E-03
  weight for this iteration     100.00
  WARNING: grid for Broyden might be to small

 eigenvalues of (default mixing * dielectric matrix)
  average eigenvalue GAMMA=   1.7891
  9.4609  2.7697  2.6026  1.2968  1.0178  0.8263  0.6997  0.6470  0.6118  0.5633
  0.4866  0.4866

 Free energy of the ion-electron system (eV)
  ---------------------------------------------------
  alpha Z        PSCENC =        24.24119373
  Ewald energy   TEWEN  =     28380.08810316
  -Hartree energ DENC   =    -33782.18619683
  -exchange      EXHF   =         0.00000000
  -V(xc)+E(xc)   XCENC  =      -290.62875050
  PAW double counting   =     33475.41862064   -32866.88683358
  entropy T*S    EENTRO =        -0.16807696
  eigenvalues    EBANDS =     -1869.83092529
  atomic energy  EATOM  =      6362.00715488
  Solvation  Ediel_sol  =         0.00000000
  ---------------------------------------------------
  free energy    TOTEN  =      -567.94571074 eV

  energy without entropy =     -567.77763378  energy(sigma->0) =     -567.86167226


--------------------------------------------------------------------------------------------------------




--------------------------------------- Iteration      1(  14)  ---------------------------------------


    POTLOK:  cpu time      1.9380: real time      1.9647
    SETDIJ:  cpu time      1.3847: real time      1.3857
    EDDIAG:  cpu time     48.5265: real time     48.5515
     EDDAV:  cpu time    217.7347: real time    217.8460
       DOS:  cpu time      0.0048: real time      0.0048
    CHARGE:  cpu time     27.4327: real time     27.4595
    MIXING:  cpu time      0.0451: real time      0.0451
    --------------------------------------------
      LOOP:  cpu time    297.0665: real time    297.2573

 eigenvalue-minimisations  :  2688
 total energy-change (2. order) :-0.1653986E-03  (-0.2444380E-04)
 number of electron     249.9999999 magnetization 
 augmentation part      -14.0287048 magnetization 

 Broyden mixing:
  rms(total) = 0.21807E-03    rms(broyden)= 0.17066E-01
  rms(prec ) = 0.41705E-03
  weight for this iteration     100.00
  WARNING: grid for Broyden might be to small

 eigenvalues of (default mixing * dielectric matrix)
  average eigenvalue GAMMA=   1.7630
  9.7525  2.9080  2.6350  1.3158  1.1349  0.9641  0.7980  0.6366  0.6366  0.5849
  0.5849  0.5076  0.4607

 Free energy of the ion-electron system (eV)
  ---------------------------------------------------
  alpha Z        PSCENC =        24.24119373
  Ewald energy   TEWEN  =     28380.08810316
  -Hartree energ DENC   =    -33781.97324967
  -exchange      EXHF   =         0.00000000
  -V(xc)+E(xc)   XCENC  =      -290.63318857
  PAW double counting   =     33475.32103795   -32866.78957852
  entropy T*S    EENTRO =        -0.16808907
  eigenvalues    EBANDS =     -1870.03926002
  atomic energy  EATOM  =      6362.00715488
  Solvation  Ediel_sol  =         0.00000000
  ---------------------------------------------------
  free energy    TOTEN  =      -567.94587614 eV

  energy without entropy =     -567.77778707  energy(sigma->0) =     -567.86183160


--------------------------------------------------------------------------------------------------------




--------------------------------------- Iteration      1(  15)  ---------------------------------------


    POTLOK:  cpu time      1.9290: real time      1.9590
    SETDIJ:  cpu time      1.3568: real time      1.3574
    EDDIAG:  cpu time     48.5294: real time     48.5550
     EDDAV:  cpu time    219.2117: real time    219.3264
       DOS:  cpu time      0.0028: real time      0.0028
    CHARGE:  cpu time     27.4472: real time     27.4695
    MIXING:  cpu time      0.0446: real time      0.0455
    --------------------------------------------
      LOOP:  cpu time    298.5215: real time    298.7158

 eigenvalue-minimisations  :  2720
 total energy-change (2. order) :-0.1796993E-03  (-0.2676194E-04)
 number of electron     249.9999999 magnetization 
 augmentation part      -14.0287636 magnetization 

 Broyden mixing:
  rms(total) = 0.15612E-03    rms(broyden)= 0.11132E-01
  rms(prec ) = 0.26592E-03
  weight for this iteration     100.00
  WARNING: grid for Broyden might be to small

 eigenvalues of (default mixing * dielectric matrix)
  average eigenvalue GAMMA=   1.7499
  9.9067  3.0328  2.6789  1.7532  1.1474  1.0606  0.7684  0.7684  0.4559  0.6387
  0.6387  0.5105  0.5694  0.5694

 Free energy of the ion-electron system (eV)
  ---------------------------------------------------
  alpha Z        PSCENC =        24.24119373
  Ewald energy   TEWEN  =     28380.08810316
  -Hartree energ DENC   =    -33781.74495101
  -exchange      EXHF   =         0.00000000
  -V(xc)+E(xc)   XCENC  =      -290.63699795
  PAW double counting   =     33475.45974986   -32866.92865119
  entropy T*S    EENTRO =        -0.16808729
  eigenvalues    EBANDS =     -1870.26357001
  atomic energy  EATOM  =      6362.00715488
  Solvation  Ediel_sol  =         0.00000000
  ---------------------------------------------------
  free energy    TOTEN  =      -567.94605584 eV

  energy without entropy =     -567.77796854  energy(sigma->0) =     -567.86201219


--------------------------------------------------------------------------------------------------------




--------------------------------------- Iteration      1(  16)  ---------------------------------------


    POTLOK:  cpu time      1.9571: real time      1.9589
    SETDIJ:  cpu time      1.3573: real time      1.3585
    EDDIAG:  cpu time     48.5371: real time     48.5592
     EDDAV:  cpu time    217.6698: real time    217.7809
       DOS:  cpu time      0.0043: real time      0.0043
    CHARGE:  cpu time     27.4399: real time     27.4634
    MIXING:  cpu time      0.0462: real time      0.0462
    --------------------------------------------
      LOOP:  cpu time    297.0117: real time    297.1714

 eigenvalue-minimisations  :  2688
 total energy-change (2. order) :-0.8093007E-04  (-0.1008690E-04)
 number of electron     249.9999999 magnetization 
 augmentation part      -14.0287962 magnetization 

 Broyden mixing:
  rms(total) = 0.11823E-03    rms(broyden)= 0.75173E-02
  rms(prec ) = 0.18000E-03
  weight for this iteration     100.00
  WARNING: grid for Broyden might be to small

 eigenvalues of (default mixing * dielectric matrix)
  average eigenvalue GAMMA=   1.7359
  9.9646  3.2279  2.6687  2.1168  1.2403  0.9862  0.9862  0.7746  0.7090  0.6108
  0.6108  0.6270  0.4594  0.5063  0.5503

 Free energy of the ion-electron system (eV)
  ---------------------------------------------------
  alpha Z        PSCENC =        24.24119373
  Ewald energy   TEWEN  =     28380.08810316
  -Hartree energ DENC   =    -33781.62517907
  -exchange      EXHF   =         0.00000000
  -V(xc)+E(xc)   XCENC  =      -290.63831227
  PAW double counting   =     33475.41085938   -32866.87990745
  entropy T*S    EENTRO =        -0.16809314
  eigenvalues    EBANDS =     -1870.38195599
  atomic energy  EATOM  =      6362.00715488
  Solvation  Ediel_sol  =         0.00000000
  ---------------------------------------------------
  free energy    TOTEN  =      -567.94613677 eV

  energy without entropy =     -567.77804363  energy(sigma->0) =     -567.86209020


--------------------------------------------------------------------------------------------------------




--------------------------------------- Iteration      1(  17)  ---------------------------------------


    POTLOK:  cpu time      1.9343: real time      1.9582
    SETDIJ:  cpu time      1.3511: real time      1.3517
    EDDIAG:  cpu time     48.5484: real time     48.5719
     EDDAV:  cpu time    214.8807: real time    214.9896
       DOS:  cpu time      0.0025: real time      0.0025
    CHARGE:  cpu time     27.4530: real time     27.4770
    MIXING:  cpu time      0.0466: real time      0.0467
    --------------------------------------------
      LOOP:  cpu time    294.2167: real time    294.3976

 eigenvalue-minimisations  :  2624
 total energy-change (2. order) :-0.4467694E-04  (-0.4726289E-05)
 number of electron     249.9999999 magnetization 
 augmentation part      -14.0288054 magnetization 

 Broyden mixing:
  rms(total) = 0.64744E-04    rms(broyden)= 0.47760E-02
  rms(prec ) = 0.10417E-03
  weight for this iteration     100.00
  WARNING: grid for Broyden might be to small

 eigenvalues of (default mixing * dielectric matrix)
  average eigenvalue GAMMA=   1.7255
  9.9869  3.4134  2.6509  2.4080  1.3769  1.0042  1.0042  0.9612  0.7885  0.6957
  0.4580  0.5081  0.6219  0.5864  0.5864  0.5580

 Free energy of the ion-electron system (eV)
  ---------------------------------------------------
  alpha Z        PSCENC =        24.24119373
  Ewald energy   TEWEN  =     28380.08810316
  -Hartree energ DENC   =    -33781.54986515
  -exchange      EXHF   =         0.00000000
  -V(xc)+E(xc)   XCENC  =      -290.63874382
  PAW double counting   =     33475.63078294   -32867.09987248
  entropy T*S    EENTRO =        -0.16809460
  eigenvalues    EBANDS =     -1870.45684010
  atomic energy  EATOM  =      6362.00715488
  Solvation  Ediel_sol  =         0.00000000
  ---------------------------------------------------
  free energy    TOTEN  =      -567.94618144 eV

  energy without entropy =     -567.77808684  energy(sigma->0) =     -567.86213414


--------------------------------------------------------------------------------------------------------




--------------------------------------- Iteration      1(  18)  ---------------------------------------


    POTLOK:  cpu time      1.9317: real time      1.9631
    SETDIJ:  cpu time      1.3612: real time      1.3619
    EDDIAG:  cpu time     48.5253: real time     48.5485
     EDDAV:  cpu time    210.5514: real time    210.6651
       DOS:  cpu time      0.0029: real time      0.0029
    CHARGE:  cpu time     27.4519: real time     27.4753
    MIXING:  cpu time      0.0477: real time      0.0477
    --------------------------------------------
      LOOP:  cpu time    289.8721: real time    290.0645

 eigenvalue-minimisations  :  2528
 total energy-change (2. order) :-0.1533272E-04  (-0.1348652E-05)
 number of electron     249.9999999 magnetization 
[...]
 -----------------------------------------------------------------------------------------------
   -.253E+00 0.103E+02 -.401E+02   -.430E+00 -.117E+02 0.399E+02   0.962E+00 0.207E+01 0.692E+00   -.485E-05 -.263E-04 0.624E-05
   0.718E+01 0.349E+01 -.529E+02   -.613E+01 -.448E+01 0.560E+02   -.852E-01 0.515E+00 -.192E+01   -.852E-05 0.182E-04 -.268E-05
   -.401E+01 -.173E+02 -.585E+02   0.361E+01 0.204E+02 0.593E+02   0.266E+00 -.309E+01 -.524E+00   0.449E-05 -.174E-04 0.150E-04
   0.524E+01 0.252E+01 -.606E+02   -.559E+01 -.203E+01 0.603E+02   0.792E-01 0.579E-01 -.145E+00   -.501E-05 0.506E-05 0.306E-04
   0.124E+02 0.103E+02 -.659E+02   -.138E+02 -.108E+02 0.674E+02   0.138E+01 0.978E+00 -.192E+01   -.357E-04 0.269E-04 0.237E-04
   -.169E+02 -.122E+02 -.421E+02   0.191E+02 0.135E+02 0.424E+02   -.250E+01 -.132E+01 0.308E-01   -.449E-05 0.205E-04 0.231E-04
   -.143E+02 0.156E+02 0.221E+03   0.153E+02 -.140E+02 -.219E+03   -.189E+01 -.188E+01 -.171E+01   -.471E-05 -.149E-04 -.435E-04
   0.553E+01 -.280E+02 0.228E+03   -.444E+01 0.269E+02 -.227E+03   -.199E+01 -.500E+00 -.173E+01   -.833E-06 0.258E-04 -.132E-05
   -.193E+02 -.871E+01 -.828E+02   0.187E+02 0.692E+01 0.849E+02   0.109E+01 0.250E+01 -.120E+01   0.230E-04 -.511E-04 0.381E-04
   -.353E+01 -.720E+01 0.135E+03   0.189E+01 0.712E+01 -.135E+03   0.241E+01 0.748E+00 -.397E+00   0.220E-05 0.473E-05 0.275E-04
   0.141E+02 -.312E+02 0.678E+02   -.130E+02 0.295E+02 -.664E+02   -.318E+00 0.330E+01 -.195E+01   -.548E-05 -.250E-04 -.133E-04
   0.291E+02 0.761E+01 -.126E+03   -.288E+02 -.927E+01 0.125E+03   -.934E+00 0.182E+01 0.806E+00   -.540E-04 -.152E-06 0.925E-04
   -.782E+01 0.247E+01 0.267E+03   0.843E+01 -.206E+01 -.271E+03   0.908E-01 -.825E+00 0.270E+01   0.833E-05 0.185E-04 -.840E-04
   -.170E+02 -.822E+01 -.104E+03   0.159E+02 0.708E+01 0.104E+03   0.933E+00 0.209E+01 0.792E+00   -.739E-05 -.449E-04 0.101E-04
   -.230E+02 -.230E+02 -.273E+03   0.213E+02 0.221E+02 0.272E+03   0.221E+01 0.162E+01 0.492E+00   -.455E-04 -.311E-04 0.625E-04
   0.254E+02 0.395E+01 -.284E+02   -.255E+02 -.232E+01 0.276E+02   -.142E+01 -.197E+01 0.120E+01   0.793E-05 0.408E-04 0.557E-05
   -.405E+01 0.893E+01 0.261E+02   0.516E+01 -.895E+01 -.260E+02   -.118E+01 -.453E+00 -.768E+00   -.224E-04 0.253E-04 -.788E-05
   -.173E+02 0.374E+01 0.941E+02   0.160E+02 -.287E+01 -.944E+02   0.165E+01 -.118E+01 0.191E+00   -.765E-05 0.122E-05 0.543E-04
   -.297E+02 0.292E+01 0.192E+03   0.298E+02 -.418E+01 -.190E+03   0.301E+00 0.191E+01 -.159E+01   -.111E-04 -.315E-04 -.377E-04
   0.496E+01 0.222E+02 0.166E+03   -.671E+01 -.231E+02 -.166E+03   0.270E+01 0.526E+00 -.107E+01   0.141E-05 0.191E-04 -.130E-04
   -.212E+02 0.268E+02 -.192E+03   0.212E+02 -.270E+02 0.191E+03   0.946E+00 -.245E+00 0.103E+01   -.866E-05 0.198E-04 0.187E-04
   -.250E+02 0.125E+02 -.153E+03   0.237E+02 -.114E+02 0.151E+03   0.799E+00 -.414E+00 0.353E+01   0.544E-04 -.232E-04 0.174E-04
   0.542E+01 -.363E+02 -.261E+03   -.567E+01 0.354E+02 0.263E+03   0.483E+00 0.127E+01 -.307E+01   0.152E-04 -.100E-04 0.529E-04
   0.413E+02 0.224E+02 -.192E+03   -.399E+02 -.228E+02 0.190E+03   -.217E+01 0.203E+00 0.142E+01   -.363E-04 -.258E-04 0.587E-04
   0.202E+02 0.104E+02 0.277E+03   -.210E+02 -.112E+02 -.279E+03   0.246E+00 0.595E+00 0.198E+01   -.133E-05 0.615E-05 -.440E-04
   -.465E+01 0.407E+01 -.175E+03   0.585E+01 -.247E+01 0.172E+03   0.103E+00 -.243E+01 0.288E+01   0.272E-04 0.561E-04 0.783E-04
   0.112E+02 -.100E+02 0.175E+03   -.104E+02 0.983E+01 -.173E+03   -.146E+01 0.389E-01 -.170E+01   -.155E-05 -.133E-04 -.619E-05
   0.195E+02 0.104E+02 0.249E+03   -.186E+02 -.952E+01 -.254E+03   -.143E+01 -.131E+01 0.360E+01   0.179E-04 -.225E-05 -.837E-04
   0.787E+01 0.741E+01 0.219E+03   -.958E+01 -.820E+01 -.219E+03   0.287E+01 0.581E+00 -.111E+01   -.631E-05 -.762E-05 -.226E-04
   0.144E+01 0.139E+00 0.344E+02   0.614E+00 -.775E+00 -.329E+02   -.189E+01 0.997E+00 -.186E+01   -.161E-05 -.132E-05 0.154E-04
   -.622E+01 -.281E+01 0.647E+02   0.613E+01 0.262E+01 -.633E+02   0.953E+00 0.382E-01 -.462E+00   0.144E-04 0.546E-04 0.393E-04
   0.149E+02 -.153E+02 -.263E+03   -.151E+02 0.153E+02 0.268E+03   -.336E+00 0.817E+00 -.454E+01   -.426E-04 0.656E-04 0.644E-04
   -.309E+02 -.577E+01 -.221E+03   0.310E+02 0.602E+01 0.218E+03   0.116E+01 -.318E+00 0.217E+01   0.145E-04 -.345E-04 0.486E-04
   -.123E+02 0.387E+01 0.723E+02   0.102E+02 -.214E+01 -.737E+02   0.242E+01 -.198E+01 0.709E+00   -.183E-05 0.232E-05 -.189E-05
   0.340E+02 0.392E+02 -.521E+02   -.340E+02 -.369E+02 0.501E+02   -.167E+00 -.363E+01 0.191E+01   0.965E-05 -.360E-04 0.542E-04
   -.271E+02 -.120E+02 0.438E+02   0.260E+02 0.115E+02 -.468E+02   0.952E+00 0.329E+00 0.288E+01   0.762E-06 -.618E-04 -.554E-04
   -.124E+02 -.191E+01 0.209E+03   0.112E+02 0.209E+01 -.205E+03   0.226E+01 -.172E+00 -.379E+01   -.848E-05 -.299E-04 -.578E-04
   0.224E+02 -.579E+02 -.161E+03   -.220E+02 0.570E+02 0.159E+03   -.780E+00 0.100E+01 0.199E+01   -.322E-04 -.232E-05 0.695E-04
   0.107E+02 0.107E+02 0.909E+02   -.834E+01 -.975E+01 -.900E+02   -.382E+01 -.843E+00 -.179E+01   0.167E-04 0.150E-04 0.360E-04
   -.154E+02 -.916E+01 0.188E+03   0.147E+02 0.904E+01 -.186E+03   0.103E+01 -.689E+00 -.125E+01   0.716E-05 0.387E-04 -.216E-04
   -.206E+02 0.409E+01 -.534E+01   0.198E+02 -.206E+01 0.649E+01   0.606E-01 -.167E+01 -.139E+01   -.714E-05 -.570E-04 0.197E-04
   0.830E+01 0.295E+02 -.251E+03   -.796E+01 -.277E+02 0.248E+03   -.349E+00 -.136E+01 0.324E+01   -.217E-04 -.212E-04 0.345E-04
   -.199E+02 0.128E+01 -.164E+03   0.182E+02 -.114E+01 0.163E+03   0.113E+01 -.218E+00 0.151E+01   0.118E-04 -.266E-04 0.213E-04
   -.146E+02 -.170E+02 -.194E+03   0.144E+02 0.161E+02 0.193E+03   0.128E+00 0.654E+00 0.358E+00   0.336E-04 0.430E-04 0.163E-04
   -.191E+02 0.556E+01 0.780E+02   0.172E+02 -.589E+01 -.788E+02   0.280E+01 0.889E-01 -.324E+00   -.102E-05 -.159E-04 -.397E-04
   -.165E+02 0.270E+01 0.158E+03   0.151E+02 -.497E+01 -.157E+03   0.121E+01 0.188E+01 -.213E+00   -.153E-06 0.145E-04 -.166E-04
   0.182E+02 0.129E+02 0.196E+03   -.169E+02 -.937E+01 -.193E+03   -.932E+00 -.392E+01 -.260E+01   0.227E-05 0.325E-04 -.335E-04
   0.112E+02 -.266E+02 0.231E+03   -.119E+02 0.244E+02 -.227E+03   0.807E+00 0.236E+01 -.400E+01   0.844E-05 -.337E-04 -.813E-04
   0.947E+01 0.329E+01 -.220E+03   -.102E+02 -.447E+01 0.220E+03   0.800E+00 0.144E+01 0.146E+01   0.717E-05 -.232E-04 0.343E-04
   -.141E+02 0.541E+01 -.230E+03   0.132E+02 -.501E+01 0.229E+03   0.140E+01 -.105E+01 0.266E+00   0.393E-05 -.188E-04 0.419E-04
   0.202E+02 -.136E+02 0.207E+03   -.209E+02 0.143E+02 -.205E+03   0.665E+00 -.501E+00 -.201E+01   -.214E-04 0.989E-05 -.501E-04
   0.126E+02 -.111E+02 -.121E+03   -.121E+02 0.113E+02 0.122E+03   -.330E-01 -.625E+00 -.836E+00   -.457E-04 0.660E-04 -.139E-04
   0.479E+02 0.283E+02 -.171E+02   -.445E+02 -.276E+02 0.173E+02   -.473E+01 0.108E+00 0.839E+00   -.164E-04 -.287E-04 0.920E-05
   0.215E+02 -.848E+00 0.196E+02   -.211E+02 0.593E+00 -.210E+02   -.444E+00 0.865E+00 0.132E+01   0.307E-04 0.538E-04 0.667E-05
   -.206E+02 0.679E+01 -.203E+03   0.214E+02 -.436E+01 0.204E+03   -.645E-01 -.248E+01 -.532E+00   0.132E-04 -.755E-04 0.845E-04
   -.120E+02 -.120E+02 -.101E+02   0.113E+02 0.119E+02 0.978E+01   0.162E+01 0.435E+00 0.297E+00   -.139E-04 0.625E-04 -.364E-04
   -.741E+01 -.847E+01 0.138E+03   0.975E+01 0.694E+01 -.136E+03   -.224E+01 0.201E+01 -.196E+01   -.188E-04 0.292E-04 0.327E-04
   0.211E+02 0.197E+01 -.104E+03   -.221E+02 0.161E+01 0.105E+03   0.815E+00 -.333E+01 -.137E+01   0.663E-05 -.193E-05 0.313E-04
   -.621E+01 -.238E+02 0.397E+01   0.465E+01 0.237E+02 -.346E+01   0.661E+00 0.146E+00 -.347E+00   -.212E-04 0.326E-04 -.118E-04
   0.340E+01 -.106E+02 0.232E+03   -.299E+01 0.112E+02 -.232E+03   -.501E+00 -.902E+00 -.778E+00   -.891E-05 -.994E-05 0.262E-04
   -.137E+02 -.299E+02 -.180E+03   0.144E+02 0.289E+02 0.178E+03   -.171E+01 0.151E+01 0.243E+01   0.493E-04 0.759E-04 0.268E-04
   -.113E+02 0.598E+01 0.375E+02   0.111E+02 -.602E+01 -.372E+02   0.694E+00 0.295E+00 0.120E+00   -.120E-04 -.517E-04 0.500E-04
   -.194E+02 0.220E+02 -.241E+03   0.229E+02 -.212E+02 0.245E+03   -.394E+01 -.163E+01 -.360E+01   0.580E-04 0.143E-04 0.191E-04
   0.102E+02 0.778E+01 0.238E+03   -.587E+01 -.877E+01 -.236E+03   -.468E+01 0.121E+01 -.239E+01   0.511E-05 -.138E-04 -.745E-04
   -.157E+01 0.113E+02 0.167E+03   0.578E+00 -.128E+02 -.165E+03   0.420E+00 0.154E+01 -.267E+01   0.377E-04 -.298E-04 -.265E-04
   0.442E+02 0.339E+02 -.269E+03   -.442E+02 -.338E+02 0.269E+03   -.868E+00 -.768E+00 0.130E+01   -.256E-04 -.433E-04 0.693E-04
   -.920E+01 0.233E+02 0.107E+03   0.995E+01 -.202E+02 -.106E+03   -.930E+00 -.344E+01 -.184E+01   0.138E-04 -.223E-04 -.188E-04
 -----------------------------------------------------------------------------------------------
   0.227E+01 0.660E+01 0.172E+02   0.391E-13 -.959E-13 -.568E-13   -.228E+01 -.661E+01 -.172E+02   -.655E-04 -.655E-04 0.567E-03


 POSITION                                       TOTAL-FORCE (eV/Angst)
 -----------------------------------------------------------------------------------
      4.46718      0.19651     14.49142         0.278978      0.675683      0.483840
      1.78084      5.29653     14.44146         0.967153     -0.480284      1.107686
      6.09983     13.50000     15.10571        -0.138330      0.023134      0.242372
     12.21250      7.55909     15.60122        -0.277377      0.555322     -0.457704
     13.70680      6.86734     15.16499        -0.065238      0.430432     -0.352558
     12.49670      4.36393     14.21128        -0.266227     -0.059909      0.382727
      9.55559      2.64682     10.77570        -1.006699     -0.286241      0.709053
      8.39424      4.66515     10.64672        -0.963936     -1.742477     -0.714345
      8.67199      9.71580     13.59224         0.505110      0.781370      0.876583
      2.82792      6.29949     11.54834         0.851847      0.687856      0.038838
     14.27560     14.41090     12.46778         0.710799      1.727701     -0.620739
      0.03305      7.42005     13.99318        -0.674863      0.244191      0.046722
      2.74541      4.55679     10.00000         0.639198     -0.474872     -0.478902
      2.79400     12.40170     13.81360        -0.154232      1.057338      0.928596
      1.65715     13.67800     15.48357         0.536016      0.715002     -0.463351
      1.32410      5.73425     13.06259        -1.594938     -0.450928      0.543384
      4.89039      6.55702     12.70304        -0.119278     -0.473503     -0.684158
     13.36120      8.10500     12.06571         0.248859     -0.427385      0.084103
      5.96781     11.83700     11.37613         0.316346      0.797241      0.180668
      2.27582     10.16480     11.39197         1.102049     -0.318326     -0.993308
      5.26524      7.70581     14.66031         0.870642     -0.399127      0.079975
      7.39336      1.63920     14.13435        -0.568142      0.789161      1.330682
     12.52520      1.06600     15.69500         0.198471      0.293063     -0.790481
      1.39539      9.22624     14.65392        -0.768120     -0.166530     -0.311889
      1.40493     11.91780     10.05108        -0.411092     -0.107063      0.022684
     11.14840      3.65726     14.22154         1.412969     -0.812056      0.389906
     12.24390      0.60834     11.60927        -0.691946     -0.158463      0.207126
      2.18715      8.17435     10.29095        -0.627625     -0.482989     -0.365179
     10.26560     12.64470     11.00458         1.420228     -0.135210     -0.723632
      8.99403     13.52680     12.62295         0.076250      0.376927     -0.448135
      9.36171      6.07719     12.11918         0.902023     -0.113318      0.816366
      3.24996      4.73474     15.70685        -0.552930      0.772748     -0.344871
      6.25247     12.05190     14.83934         1.255163      0.021856     -0.507215
     11.41810      2.80664     12.06653         0.476263     -0.342879     -0.711079
     13.66490     12.47460     13.31944        -0.063592     -1.460590     -0.011832
      3.25466     14.20670     12.44420        -0.095197     -0.197297     -0.066617
      4.92928     13.90620     10.99935         1.197204      0.006604     -0.234296
      0.85578      1.02232     14.19238        -0.366920      0.032648      0.166812
      8.37829      8.09619     12.11491        -1.706602      0.144187     -0.967371
     12.60220      4.63684     11.19140         0.391445     -0.872591      0.458948
      7.67069     11.71220     13.02702        -0.774323      0.281070     -0.321607
      3.51842      9.01317     15.25293        -0.002612      0.443240      0.440311
      4.42255     10.87670     14.32444        -0.541193     -0.076754      0.288950
      7.47666      4.00206     14.54315        -0.065257     -0.287429     -0.818873
      8.12210      1.08303     12.04978         1.030086     -0.257636     -1.088280
      6.04327      8.30331     11.72795        -0.229529     -0.294949      0.314614
      1.57931      2.89508     11.14067         0.389926     -0.522741      0.008923
      1.45330     14.03590     10.98557         0.181190      0.219819     -0.181689
      9.72649     13.90890     14.69911         0.189207      0.381711      1.181663
      5.15327      1.52741     15.00506         0.626246     -0.735157     -0.743902
      6.25944      3.50941     10.89274         0.166999      0.061469      0.110272
      3.92366      3.29791     14.07280         0.480082     -0.470656      0.305983
      1.15684     10.99490     13.12246        -1.489070      0.798976      1.109493
     14.45170      3.85559     12.39600         0.049310      0.779596     -0.161663
     10.83370      9.95555     14.53962         0.619997     -0.267266      0.314195
      5.64354      4.36020     12.99934         0.953097      0.345006     -0.012831
     11.60540      6.64075     11.50225        -0.001246      0.533426     -0.045116
     11.85050     14.43420     13.82260        -0.047729      0.070518      0.154395
      2.68549      1.82034     12.88690        -0.893979      0.082590      0.158104
     10.12020      9.03537     10.89383        -0.094334     -0.406499     -0.638378
      9.49817      5.20091     14.30054        -1.179488      0.437886      0.185182
     11.72190      9.70856     12.37782         0.418029      0.252820      0.358550
      7.68794      8.46643     15.25473        -0.784120     -0.849031      0.185069
      6.44081      1.10954     10.57238        -0.686349      0.332229     -0.174098
     12.39350     11.78000     11.57313        -0.668260      0.026450      0.063524
     14.33290     12.46200     15.49797        -0.701740     -0.575158      0.832811
      4.59792     10.17460     12.13023        -0.188672     -0.473957     -0.675013
 -----------------------------------------------------------------------------------
    total drift:                               -0.007635     -0.004468     -0.002571


--------------------------------------------------------------------------------------------------------



  FREE ENERGIE OF THE ION-ELECTRON SYSTEM (eV)
  ---------------------------------------------------
  free  energy   TOTEN  =      -567.94619862 eV

  energy  without entropy=     -567.77810028  energy(sigma->0) =     -567.86214945



--------------------------------------------------------------------------------------------------------


    POTLOK:  cpu time      3.2754: real time      3.2978


--------------------------------------------------------------------------------------------------------


     LOOP+:  cpu time   6361.5647: real time   6365.7219
    4ORBIT:  cpu time      0.0000: real time      0.0000



 total charge

# of ion       s       p       d       tot
------------------------------------------
    1        0.527   0.014   0.000   0.541
    2        0.566   0.016   0.000   0.583
    3        0.561   0.017   0.000   0.579
    4        0.376   0.002   0.000   0.378
    5        0.513   0.015   0.000   0.528
    6        0.550   0.015   0.000   0.566
    7        0.800   0.841   0.000   1.642
    8        0.791   0.862   0.000   1.653
    9        0.771   0.964   0.000   1.735
   10        0.756   0.974   0.000   1.731
   11        0.776   0.947   0.000   1.723
   12        0.755   0.934   0.000   1.689
   13        0.863   0.743   0.000   1.606
   14        0.767   0.956   0.000   1.723
   15        0.813   0.856   0.000   1.669
   16        0.776   0.943   0.000   1.720
   17        0.761   0.935   0.000   1.696
   18        0.796   0.847   0.000   1.643
   19        0.800   0.856   0.000   1.656
   20        0.774   0.930   0.000   1.704
   21        0.803   0.827   0.000   1.630
   22        0.790   0.843   0.000   1.633
   23        0.908   0.622   0.000   1.530
   24        0.782   0.886   0.000   1.668
   25        0.858   0.738   0.000   1.596
   26        0.793   0.877   0.000   1.670
   27        0.802   0.837   0.000   1.640
   28        0.861   0.753   0.000   1.615
   29        0.843   0.766   0.000   1.610
   30        0.767   0.993   0.000   1.760
   31        0.774   0.918   0.000   1.692
   32        0.922   0.622   0.000   1.544
   33        0.785   0.917   0.000   1.702
   34        0.763   0.932   0.000   1.695
   35        0.770   0.954   0.000   1.724
   36        0.767   0.960   0.000   1.727
   37        0.783   0.881   0.000   1.665
   38        0.798   0.815   0.000   1.613
   39        0.766   0.978   0.000   1.745
   40        0.801   0.866   0.000   1.667
   41        0.761   0.939   0.000   1.700
   42        0.781   0.939   0.000   1.720
   43        0.763   0.984   0.000   1.748
   44        0.800   0.818   0.000   1.617
   45        0.775   0.908   0.000   1.683
   46        0.789   0.849   0.000   1.638
   47        0.798   0.856   0.000   1.654
   48        0.802   0.864   0.000   1.666
   49        0.860   0.762   0.000   1.622
   50        0.800   0.825   0.000   1.625
   51        0.795   0.800   0.000   1.594
   52        0.761   1.001   0.000   1.762
   53        0.783   0.920   0.000   1.703
   54        0.813   0.819   0.000   1.632
   55        0.869   0.705   0.000   1.574
   56        0.770   0.907   0.000   1.677
   57        0.774   0.872   0.000   1.645
   58        0.790   0.860   0.000   1.651
   59        0.767   0.940   0.000   1.707
   60        0.859   0.753   0.000   1.612
   61        0.802   0.857   0.000   1.659
   62        0.767   0.951   0.000   1.718
   63        0.892   0.667   0.000   1.558
   64        0.800   0.854   0.000   1.655
   65        0.810   0.845   0.000   1.655
   66        0.863   0.762   0.000   1.626
   67        0.765   0.914   0.000   1.679
--------------------------------------------------
tot         51.840  52.828   0.000 104.668


 total amount of memory used by VASP MPI-rank0   356944. kBytes
=======================================================================

   base                                    :      30000. kBytes
   nonl-proj                               :      67357. kBytes
   fftplans                                :     100025. kBytes
   grid                                    :      77177. kBytes
   one-center                              :         15. kBytes
   wavefun                                 :      82370. kBytes

  
  
 General timing and accounting informations for this job:
 ========================================================
  
                  Total CPU time used (sec):     6501.371
                            User time (sec):     5721.453
                          System time (sec):      779.917
                         Elapsed time (sec):     6505.690
  
                   Maximum memory used (kb):      617236.
                   Average memory used (kb):          N/A
  
                          Minor page faults:     12177181
                          Major page faults:         1157
                 Voluntary context switches:         3083
