ITEM: TIMESTEP
181363
ITEM: NUMBER OF ATOMS
13500
ITEM: BOX BOUNDS pp pp pp
-1.4233514252294641e+00 5.9344535031406124e+01
-1.4233514252294641e+00 5.9344535031406124e+01
-1.4233514252294641e+00 6.4405450805001706e+01
ITEM: ATOMS id type xs ys zs
1 2 0.230464 0.541938 0.482741
2 2 0.277953 0.888731 0.880381
3 2 0.0986278 0.349353 0.210024
4 2 0.204824 0.489866 0.276748
5 2 0.188576 0.388501 0.903838
6 2 0.028588 0.143671 0.821642
7 2 0.0211638 0.117689 0.181022
8 2 0.474665 0.983861 0.956125
9 2 0.237908 0.460982 0.335406
10 2 0.323128 0.390466 0.863524
11 2 0.383128 0.06382 0.886906
12 2 0.452909 0.307536 0.428338
13 2 0.0260149 0.0532366 0.508506
14 2 0.334477 0.103793 0.546049
15 2 0.335978 0.327572 0.885808
16 2 0.358771 0.168027 0.303869
17 2 0.189536 0.213703 0.00781613
18 2 0.232886 0.501115 0.390223
19 2 0.118428 0.668968 0.323411
20 2 0.0464782 0.882311 0.984247
21 2 0.201763 0.174104 0.286808
22 2 0.335561 0.0323259 0.347259
23 2 0.971393 0.296841 0.311354
24 2 0.673498 0.577178 0.200114
25 2 0.961864 0.441498 0.365964
26 2 0.584117 0.660861 0.987757
27 2 0.247129 0.931279 0.531226
28 2 0.289491 0.916762 0.0387715
29 2 0.313584 0.905771 0.178444
30 2 0.459736 0.923782 0.228034
31 2 0.858746 0.46005 0.290887
32 2 0.0758042 0.593377 0.413527
33 2 0.0469009 0.761724 0.744232
34 2 0.0617446 0.656099 0.249083
35 2 0.360967 0.257015 0.652163
36 2 0.936822 0.0728152 0.26218
37 2 0.51588 0.419203 0.266194
38 2 0.586175 0.465246 0.0740193
39 2 0.698944 0.532702 0.232858
40 2 0.143062 0.0151037 0.0996777
41 2 0.847889 0.314489 0.088838
42 2 0.338334 0.936033 0.17518
43 2 0.118771 0.249231 0.0442419
44 2 0.213226 0.388611 0.122688
45 2 0.144716 0.804031 0.773586
46 2 0.443479 0.269745 0.849113
47 2 0.0778468 0.157865 0.84647
48 2 0.729638 0.0853058 0.0733655
49 2 0.973822 0.145538 0.487411
50 2 0.0528781 0.817806 0.193621
51 2 0.764758 0.221484 0.261466
52 2 0.994692 0.135913 0.0184286
53 2 0.176139 0.203549 0.363235
54 2 0.217827 0.153198 0.444811
55 2 0.985602 0.136322 0.138214
56 2 0.361118 0.483749 0.941231
57 2 0.85702 0.315182 0.280003
58 2 0.290956 0.208771 0.909933
59 2 0.252324 0.7409 0.315682
60 2 0.949188 0.677511 0.86219
61 2 0.172876 0.911081 0.962594
62 2 0.410148 0.378475 0.230072
63 2 0.263506 0.475678 0.390375
64 2 0.0638145 0.240508 0.246228
65 2 0.456079 0.0179517 0.126334
66 2 0.757733 0.592102 0.273479
67 2 0.0756474 0.979501 0.18301
68 2 0.373181 0.991853 0.437665
69 2 0.179375 0.273943 0.0149132
70 2 0.199219 0.809143 0.0940164
71 2 0.410406 0.435796 0.660555
72 2 0.265131 0.723493 0.348145
73 2 0.141816 0.551932 0.277897
74 2 0.230773 0.723377 0.91265
75 2 0.131873 0.845125 0.329628
76 2 0.592804 0.461638 0.160883
77 2 0.818963 0.284637 0.3473
78 2 0.201981 0.368165 0.846579
79 2 0.966379 0.887993 0.276969
80 2 0.679257 0.120665 0.18229
81 2 0.653881 0.434293 0.151633
82 2 0.366634 0.502124 0.734875
83 2 0.395408 0.358987 0.458962
84 2 0.263371 0.241236 0.101247
85 2 0.276854 0.035959 0.0797252
86 2 0.206101 0.940395 0.197456
87 2 0.262146 0.781401 0.457077
88 2 0.0704555 0.811506 0.032014
89 2 0.179672 0.951108 0.462332
90 2 0.0112857 0.00271166 0.18036
91 2 0.340896 0.34353 0.344416
92 2 0.41268 0.264368 0.43675
93 2 0.5164 0.807802 0.203154
94 2 0.813668 0.0687676 0.0650021
95 2 0.329887 0.452097 0.299253
96 2 0.195945 0.588778 0.243335
97 2 0.143947 0.688657 0.173509
98 2 0.277352 0.534863 0.436628
99 2 0.217331 0.0658671 0.0642325
100 2 0.0119106 0.0267029 0.685899
101 2 0.0674741 0.406188 0.0263516
102 2 0.535843 0.131882 0.150645
103 2 0.890422 0.924268 0.248128
104 2 0.53731 0.503878 0.334155
105 2 0.167417 0.257416 0.225606
106 2 0.0156428 0.221143 0.357765
107 2 0.522848 0.466565 0.386722
108 2 0.957565 0.961626 0.897755
109 2 0.140871 0.864292 0.281079
110 2 0.210387 0.642892 0.909171
111 2 0.674598 0.273472 0.169058
112 2 0.700062 0.368992 0.0811144
113 2 0.795202 0.5712 0.0208099
114 2 0.622025 0.428602 0.22981
115 2 0.518513 0.605841 0.0109355
116 2 0.237895 0.360323 0.861614
117 2 0.302509 0.237536 0.216873
118 2 0.0801452 0.183304 0.242322
119 2 0.359765 0.392675 0.251484
120 2 0.425825 0.241613 0.0573399
121 2 0.912569 0.432251 0.120047
122 2 0.288264 0.381602 0.0672564
123 2 0.0710339 0.526002 0.820583
124 2 0.263665 0.341593 0.359694
125 2 0.0944014 0.565206 0.913068
126 2 0.993493 0.0020658 0.78793
127 2 0.668186 0.190624 0.118338
128 2 0.0727575 0.852749 0.0927263
129 2 0.189703 0.397373 0.868058
130 2 0.982307 0.0701578 0.571919
131 2 0.241988 0.890954 0.865762
132 2 0.390476 0.480463 0.0915729
133 2 0.391393 0.577893 0.516768
134 2 0.707975 0.368308 0.303093
135 2 0.542678 0.48347 0.583895
136 2 0.360673 0.717782 0.249648
137 2 0.411566 0.536584 0.0857699
138 2 0.182977 0.47338 0.303488
139 2 0.523329 0.503823 0.944255
140 2 0.0767372 0.218741 0.306985
141 2 0.463935 0.239728 0.465868
142 2 0.0615949 0.0406324 0.342919
143 2 0.470588 0.135472 0.348996
144 2 0.344581 0.977411 0.289818
145 2 0.203067 0.380644 0.278068
146 2 0.500661 0.780635 0.417799
147 2 0.318517 0.246701 0.403942
148 2 0.409487 0.616348 0.0704076
149 2 0.560908 0.336018 0.342107
150 2 0.0330344 0.30749 0.823813
151 2 0.512256 0.202432 0.501633
152 2 0.402097 0.0780403 0.858497
153 2 0.315566 0.37961 0.290421
154 2 0.371409 0.517813 0.0413316
155 2 0.239907 0.572953 0.298152
156 2 0.328513 0.199006 0.361665
157 2 0.240019 0.538927 0.444391
158 2 0.167739 0.273992 0.403839
159 2 0.449998 0.16765 0.35682
160 2 0.617606 0.112063 0.248872
161 2 0.0579947 0.940622 0.539696
162 2 0.427127 0.388988 0.0143109
163 2 0.492362 0.893647 0.296105
164 2 0.0320711 0.805622 0.0423842
165 2 0.0498481 0.209443 0.923673
166 2 0.123114 0.368149 0.288586
167 2 0.21092 0.548238 0.307528
168 2 0.052233 0.375128 0.52031
169 2 0.591387 0.115367 0.168081
170 2 0.432221 0.940163 0.0703207
171 2 0.316525 0.494284 0.148669
172 2 0.956025 0.885546 0.363853
173 2 0.0996974 0.0379432 0.568269
174 2 0.267223 0.507212 0.601887
175 2 0.263436 0.798053 0.139396
176 2 0.146562 0.198363 0.066217
177 2 0.125874 0.1424 0.17717
178 2 0.203374 0.413461 0.429713
179 2 0.124961 0.242695 0.932613
180 2 0.160315 0.134091 0.127202
181 2 0.275367 0.883327 0.434091
182 2 0.618052 0.366239 0.933265
183 2 0.112758 0.24724 0.344333
184 2 0.253951 0.191246 0.0684957
185 2 0.312107 0.252572 0.157717
186 2 0.372902 0.152443 0.229892
187 2 0.215895 0.371604 0.311353
188 2 0.943102 0.123889 0.499064
189 2 0.20949 0.156981 0.0373376
190 2 0.279831 0.470227 0.192688
191 2 0.292239 0.6194 0.898559
192 2 0.0540909 0.108073 0.355471
193 2 0.284914 0.311623 0.224141
194 2 0.337304 0.146025 0.459301
195 2 0.0790089 0.949479 0.397905
196 2 0.903399 0.437545 0.18435
197 2 0.291999 0.355507 0.943324
198 2 0.413711 0.254358 0.0931723
199 2 0.0647047 0.50344 0.112264
200 2 0.912753 0.920394 0.432975
201 2 0.164541 0.778712 0.431536
202 2 0.199523 0.200311 0.195647
203 2 0.549025 0.286468 0.469519
204 2 0.386341 0.0902551 0.492042
205 2 0.182057 0.358191 0.476132
206 2 0.113826 0.958266 0.537665
207 2 0.106053 0.217794 0.171522
208 2 0.223216 0.967188 0.173436
209 2 0.969197 0.722577 0.170459
210 2 0.260134 0.128481 0.350476
211 2 0.117862 0.472322 0.320373
212 2 0.295194 0.51244 0.66323
213 2 0.350614 0.268958 0.500014
214 2 0.419726 0.219856 0.567063
215 2 0.538011 0.702501 0.366933
216 2 0.484501 0.688874 0.404013
217 2 0.349918 0.509941 0.134035
218 2 0.243228 0.208283 0.496563
219 2 0.233046 0.102329 0.0671363
220 2 0.974616 0.0710867 0.270538
221 2 0.412117 0.309283 0.335808
222 2 0.364297 0.937758 0.118301
223 2 0.981977 0.472259 0.996201
224 2 0.506812 0.193372 0.315733
225 2 0.864098 0.22103 0.782643
226 2 0.955256 0.956465 0.0427565
227 2 0.15067 0.487491 0.0261181
228 2 0.165723 0.0206704 0.395755
229 2 0.370348 0.403416 0.609135
230 2 0.245694 0.139772 0.254907
231 2 0.0485579 0.116606 0.260925
232 2 0.028269 0.550682 0.441941
233 2 0.120245 0.0151856 0.069553
234 2 0.0132321 0.189905 0.869321
235 2 0.908531 0.638876 0.345256
236 2 0.304628 0.479526 0.243471
237 2 0.630637 0.00710666 0.171044
238 2 0.233727 0.488675 0.032382
239 2 0.306472 0.405209 0.174118
240 2 0.622498 0.347647 0.0113492
241 2 0.748824 0.103286 0.378784
242 2 0.286755 0.882501 0.261601
243 2 0.979524 0.798327 0.448652
244 2 0.167128 0.16852 0.302912
245 2 0.313452 0.252601 0.793822
246 2 0.924243 0.920816 0.308641
247 2 0.0160808 0.256277 0.169384
248 2 0.233661 0.476416 0.444972
249 2 0.43547 0.370815 0.359284
250 2 0.43377 0.468372 0.166638
251 2 0.0867267 0.120544 0.264717
252 2 0.270415 0.86588 0.150215
253 2 0.376179 0.992178 0.47412
254 2 0.586473 0.330748 0.3143
255 2 0.188077 0.856198 0.993073
256 2 0.153562 0.246085 0.813836
257 2 0.440423 0.46138 0.937882
258 2 0.0205266 0.586288 0.983711
259 2 0.541285 0.924837 0.27659
260 2 0.400755 0.510821 0.572624
261 2 0.434564 0.930224 0.401664
262 2 0.357115 0.740742 0.387614
263 2 0.500118 0.827869 0.62309
264 2 0.565485 0.281807 0.102505
265 2 0.0217553 0.194253 0.176417
266 2 0.466269 0.533722 0.279558
267 2 0.377562 0.0361749 0.815806
268 2 0.0730599 0.342262 0.607537
269 2 0.736874 0.25019 0.531215
270 2 0.444773 0.127282 0.618919
271 2 0.438344 0.335091 0.0680412
272 2 0.403679 0.830246 0.278103
273 2 0.191593 0.172276 0.812862
274 2 0.783966 0.630942 0.225297
275 2 0.518562 0.528058 0.641205
276 2 0.455832 0.840664 0.176463
277 2 0.347081 0.679062 0.897572
278 2 0.968326 0.426361 0.178472
279 2 0.75 0.348129 0.40919
280 2 0.432495 0.15716 0.140167
281 2 0.108818 0.187556 0.0068317
282 2 0.961954 0.0843487 0.872338
283 2 0.2728 0.191148 0.343594
284 2 0.519356 0.611566 0.406982
285 2 0.115565 0.161916 0.728534
286 2 0.243336 0.475231 0.206957
287 2 0.9856 0.197016 0.116048
288 2 0.193619 0.281374 0.952998
289 2 0.0106795 0.70998 0.520409
290 2 0.197684 0.796194 0.128904
291 2 0.397532 0.0932267 0.245024
292 2 0.453283 0.642651 0.221157
293 2 0.206383 0.151914 0.586489
294 2 0.982833 0.453483 0.231755
295 2 0.139614 0.312046 0.0468115
296 2 0.104615 0.706208 0.227754
297 2 0.511617 0.987931 0.337275
298 2 0.243614 0.977316 0.450478
299 2 0.218645 0.0848302 0.35729
300 2 0.425566 0.036227 0.662543
301 2 0.454374 0.284435 0.396572
302 2 0.135235 0.317954 0.163998
303 2 0.226225 0.219877 0.992495
304 2 0.539691 0.287377 0.167761
305 2 0.0752087 0.415749 0.242856
306 2 0.21709 0.121984 0.210513
307 2 0.266046 0.211658 0.278135
308 2 0.518725 0.327482 0.504335
309 2 0.946174 0.861237 0.33549
310 2 0.115294 0.287267 0.209865
311 2 0.352061 0.20407 0.131632
312 2 0.630426 0.365017 0.339102
313 2 0.485203 0.19494 0.285518
314 2 0.2712 0.259146 0.968001
315 2 0.285044 0.567499 0.512428
316 2 0.819143 0.233551 0.133573
317 2 0.205105 0.994017 0.00336941
318 2 0.06995 0.0354288 0.127399
319 2 0.926656 0.22769 0.352102
320 2 0.108327 0.0717389 0.210774
321 2 0.534211 0.259753 0.415242
322 2 0.0598903 0.189666 0.978987
323 2 0.338521 0.447928 0.52368
324 2 0.440685 0.0959252 0.0989396
325 2 0.357189 0.554617 0.042097
326 2 0.613207 0.611953 0.227864
327 2 0.15622 0.578005 0.0314432
328 2 0.324941 0.18881 0.300151
329 2 0.0897479 0.846056 0.738982
330 2 0.704141 0.861168 0.492758
331 2 0.206653 0.475417 0.374756
332 2 0.648098 0.530304 0.271417
333 2 0.221616 0.177334 0.320651
334 2 0.164413 0.159551 0.225361
335 2 0.145177 0.593742 0.19582
336 2 0.266485 0.176586 0.569321
337 2 0.158936 0.869469 0.80744
338 2 0.208177 0.280719 0.988631
339 2 0.304047 0.421051 0.0149461
340 2 0.0768656 0.0407964 0.474714
341 2 0.209827 0.323203 0.14134
342 2 0.000388853 0.974416 0.203803
343 2 0.926332 0.610385 0.32345
344 2 0.370477 0.874121 0.953167
345 2 0.312861 0.656717 0.805857
346 2 0.224416 0.362476 0.0967152
347 2 0.1219 0.955196 0.115248
348 2 0.375595 0.505826 0.194483
349 2 0.14844 0.484259 0.162255
350 2 0.245886 0.247622 0.359584
351 2 0.10624 0.319416 0.809387
352 2 0.436505 0.339003 0.383747
353 2 0.446662 0.148867 0.256641
354 2 0.114438 0.692233 0.927621
355 2 0.194205 0.834836 0.343224
356 2 0.124296 0.185718 0.0935967
357 2 0.260751 0.0262493 0.159415
358 2 0.202838 0.576111 0.0968191
359 2 0.676115 0.289954 0.601617
360 2 0.938059 0.201142 0.221504
361 2 0.172291 0.584673 0.568744
362 2 0.456794 0.405906 0.961815
363 2 0.0978445 0.734339 0.706503
364 2 0.289353 0.855263 0.326259
365 2 0.267644 0.0924558 0.165652
366 2 0.18848 0.327967 0.239232
367 2 0.296253 0.290117 0.96161
368 2 0.743662 0.0301285 0.450831
369 2 0.467242 0.347136 0.993228
370 2 0.462568 0.458418 0.625986
371 2 0.238359 0.640084 0.271971
372 2 0.0727975 0.251862 0.959722
373 2 0.298292 0.365247 0.56644
374 2 0.570333 0.906169 0.135444
375 2 0.383054 0.752581 0.938854
376 2 0.474185 0.19642 0.364472
377 2 0.16884 0.138395 0.32537
378 2 0.672129 0.0569537 0.083894
379 2 0.243097 0.509937 0.866627
380 2 0.102307 0.412105 0.338988
381 2 0.334983 0.736987 0.127283
382 2 0.0950617 0.710841 0.381559
383 2 0.293869 0.313606 0.320757
384 2 0.545687 0.584849 0.548238
385 2 0.159898 0.0905923 0.85406
386 2 0.288254 0.247819 0.467544
387 2 0.32641 0.456163 0.138962
388 2 0.432442 0.125776 0.43449
389 2 0.137156 0.841406 0.159077
390 2 0.103391 0.814208 0.84373
391 2 0.726862 0.150857 0.51856
392 2 0.243008 0.174148 0.161462
393 2 0.187671 0.840295 0.592023
394 2 0.98144 0.431055 0.839479
395 2 0.902989 0.56645 0.285186
396 2 0.965618 0.661175 0.355711
397 2 0.772739 0.720457 0.95342
398 2 0.355818 0.449736 0.195615
399 2 0.723992 0.980543 0.328158
400 2 0.615543 0.4023 0.95587
401 2 0.976035 0.921311 0.541814
402 2 0.381242 0.888661 0.409467
403 2 0.255975 0.269489 0.125539
404 2 0.584365 0.556963 0.832975
405 2 0.561317 0.398385 0.345367
406 2 0.0716004 0.689723 0.40291
407 2 0.0596787 0.178992 0.353403
408 2 0.289945 0.105804 0.98211
409 2 0.643952 0.523259 0.562264
410 2 0.916005 0.939811 0.00131657
411 2 0.413795 0.303517 0.431435
412 2 0.140178 0.192968 0.352589
413 2 0.800458 0.409141 0.329357
414 2 0.253087 0.285594 0.366634
415 2 0.306425 0.811703 0.282677
416 2 0.185405 0.483803 0.210695
417 2 0.244991 0.398722 0.14197
418 2 0.195965 0.557416 0.375853
419 2 0.0793674 0.250847 0.326524
420 2 0.46653 0.03732 0.241431
421 2 0.985362 0.000997966 0.153038
422 2 0.198345 0.596479 0.37141
423 2 0.16586 0.627808 0.329098
424 2 0.966334 0.685319 0.946389
425 2 0.0763985 0.963021 0.215923
426 2 0.149191 0.97649 0.0983137
427 2 0.261857 0.401714 0.254978
428 2 0.162174 0.198121 0.140877
429 2 0.367809 0.92162 0.426219
430 2 0.341554 0.188327 0.166256
431 2 0.0424628 0.201074 0.787493
432 2 0.0239446 0.229808 0.19516
433 2 0.550034 0.482343 0.923346
434 2 0.110934 0.366844 0.047695
435 2 0.131403 0.306033 0.271155
436 2 0.31699 0.445608 0.0703208
437 2 0.0733647 0.984538 0.275142
438 2 0.200482 0.886362 0.458168
439 2 0.387555 0.679445 0.304831
440 2 0.375848 0.494694 0.158553
441 2 0.0353569 0.218779 0.260404
442 2 0.294555 0.200479 0.210988
443 2 0.652614 0.248529 0.0145599
444 2 0.383645 0.1265 0.259344
445 2 0.11843 0.180058 0.929029
446 2 0.452158 0.443954 0.220427
447 2 0.289448 0.136225 0.139187
448 2 0.565722 0.459406 0.950206
449 2 0.00710418 0.908221 0.238442
450 2 0.304069 0.0465583 0.22739
451 2 0.396928 0.289726 0.289117
452 2 0.43031 0.283415 0.554541
453 2 0.924086 0.79456 0.300446
454 2 0.175268 0.295762 0.0455242
455 2 0.422757 0.268405 0.379991
456 2 0.32209 0.952865 0.307992
457 2 0.40026 0.295947 0.764802
458 2 0.534242 0.768555 0.31653
459 2 0.268564 0.365636 0.389465
460 2 0.390527 0.179586 0.284995
461 2 0.296882 0.386963 0.10393
462 2 0.0399018 0.0890155 0.23693
463 2 0.21335 0.489144 0.341704
464 2 0.503178 0.415547 0.591461
465 2 0.178984 0.402875 0.197519
466 2 0.146024 0.466443 0.957802
467 2 0.12475 0.223139 0.264807
468 2 0.342043 0.127231 0.695998
469 2 0.5774 0.50853 0.127407
470 2 0.344957 0.486478 0.206957
471 2 0.276198 0.10042 0.199943
472 2 0.541057 0.267285 0.276657
473 2 0.0226481 0.954225 0.690522
474 2 0.209866 0.572681 0.926766
475 2 0.198976 0.765213 0.621416
476 2 0.103818 0.91367 0.860396
477 2 0.209516 0.989912 0.810056
478 2 0.145034 0.541548 0.890684
479 2 0.552481 0.570474 0.136799
480 2 0.252401 0.7394 0.178135
481 2 0.459994 0.137011 0.313643
482 2 0.0474083 0.243435 0.0611048
483 2 0.173609 0.069526 0.332251
484 2 0.0882011 0.305572 0.936152
485 2 0.0350148 0.255533 0.137304
486 2 0.00194633 0.0754315 0.827287
487 2 0.19966 0.138604 0.128126
488 2 0.343941 0.339499 0.427043
489 2 0.638324 0.48369 0.517243
490 2 0.808662 0.271025 0.274084
491 2 0.200406 0.529075 0.136784
492 2 0.52772 0.515331 0.859588
493 2 0.549827 0.303029 0.504499
494 2 0.933929 0.372363 0.0265692
495 2 0.950349 0.0252973 0.292304
496 2 0.494428 0.478813 0.273551
497 2 0.278848 0.151156 0.48293
498 2 0.235853 0.417544 0.281133
499 2 0.317764 0.0334279 0.380987
500 2 0.134922 0.699977 0.481332
501 2 0.192107 0.994808 0.211859
502 2 0.207871 0.154659 0.159845
503 2 0.139837 0.428079 0.153634
504 2 0.143665 0.278619 5.73496e-05
505 2 0.268277 0.461966 0.278982
506 2 0.192794 0.297137 0.494627
507 2 0.48374 0.440461 0.275379
508 2 0.953881 0.773848 0.0806725
509 2 0.269499 0.417492 0.221688
510 2 0.312971 0.318823 0.352911
511 2 0.026746 0.519817 0.278949
512 2 0.112776 0.12508 0.237054
513 2 0.420968 0.467023 0.464018
514 2 0.248023 0.671183 0.0418924
515 2 0.0167225 0.465291 0.389701
516 2 0.226428 0.373174 0.222678
517 2 0.409282 0.961843 0.221364
518 2 0.470602 0.187255 0.20478
519 2 0.139195 0.450536 0.463328
520 2 0.449026 0.566318 0.59189
521 2 0.0399314 0.969651 0.0254803
522 2 0.383353 0.172893 0.349539
523 2 0.993598 0.405152 0.407187
524 2 0.386265 0.106964 0.362892
525 2 0.301513 0.553031 0.314995
526 2 0.335284 0.858949 0.521646
527 2 0.935675 0.209194 0.257065
528 2 0.350592 0.9753 0.588342
529 2 0.270715 0.155458 0.27897
530 2 0.965961 0.876842 0.776629
531 2 0.148335 0.835897 0.423994
532 2 0.332665 0.542277 0.703845
533 2 0.691296 0.27966 0.34036
534 2 0.344207 0.950392 0.892645
535 2 0.745004 0.24594 0.164688
536 2 0.0813061 0.320595 0.414763
537 2 0.166788 0.0565548 0.505708
538 2 0.298005 0.157565 0.392698
539 2 0.90454 0.124862 0.247865
540 2 0.249844 0.100633 0.252383
541 2 0.222913 0.502264 0.156029
542 2 0.359735 0.245023 0.194582
543 2 0.578976 0.495509 0.276932
544 2 0.439784 0.409468 0.147043
545 2 0.568921 0.297779 0.22339
546 2 0.187745 0.370543 0.145671
547 2 0.664772 0.0355475 0.11744
548 2 0.274835 0.222986 0.365099
549 2 0.104039 0.145062 0.325889
550 2 0.604168 0.00068427 0.888863
551 2 0.305985 0.380661 0.386776
552 2 0.339681 0.281608 0.0437024
553 2 0.468838 0.680123 0.227137
554 2 0.986907 0.157883 0.757549
555 2 0.158111 0.893695 0.355302
556 2 0.365852 0.12215 0.0847887
557 2 0.505006 0.998993 0.374712
558 2 0.096214 0.912474 0.503032
559 2 0.647707 0.1486 0.422082
560 2 0.583873 0.352577 0.558618
561 2 0.555559 0.597322 0.353829
562 2 0.999696 0.09281 0.38168
563 2 0.172026 0.100953 0.179589
564 2 0.955003 0.412791 0.524474
565 2 0.416488 0.655729 0.0140148
566 2 0.0748901 0.429922 0.359226
567 2 0.101078 0.556784 0.0979555
568 2 0.373521 0.696532 0.969681
569 2 0.271224 0.0284009 0.415528
570 2 0.151071 0.576482 0.64385
571 2 0.0638961 0.51828 0.578581
572 2 0.829263 0.122166 0.0388377
573 2 0.198264 0.452086 0.126159
574 2 0.730808 0.0768672 0.11
575 2 0.609302 0.989385 0.440085
576 2 0.54682 0.0729274 0.163595
577 2 0.529878 0.498805 0.433649
578 2 0.285741 0.262652 0.62683
579 2 0.678388 0.55125 0.14591
580 2 0.0342861 0.00693624 0.0153015
581 2 0.607207 0.308126 0.262931
582 2 0.139571 0.393136 0.0496042
583 2 0.96665 0.728054 0.208109
584 2 0.463143 0.332713 0.312511
585 2 0.338307 0.498399 0.242902
586 2 0.317256 0.445825 0.490109
587 2 0.598886 0.285785 0.636433
588 2 0.348676 0.353142 0.249817
589 2 0.169434 0.495059 0.558848
590 2 0.392249 0.52155 0.269643
591 2 0.0503617 0.527277 0.920689
592 2 0.0135027 0.256834 0.342147
593 2 0.045071 0.0254542 0.800135
594 2 0.317992 0.315615 0.182371
595 2 0.281179 0.139423 0.201285
596 2 0.798507 0.24417 0.959618
597 2 0.249067 0.388497 0.00707064
598 2 0.454683 0.537812 0.346526
599 2 0.990979 0.134435 0.202264
600 2 0.569818 0.325096 0.810416
601 2 0.397673 0.421158 0.083014
602 2 0.245134 0.842903 0.0589849
603 2 0.10706 0.91361 0.822397
604 2 0.975862 0.587492 0.401395
605 2 0.345421 0.243304 0.138386
606 2 0.981562 0.342565 0.956148
607 2 0.462439 0.527262 0.719705
608 2 0.419881 0.414749 0.270431
609 2 0.939898 0.0516393 0.23208
610 2 0.921113 0.178213 0.274484
611 2 0.229875 0.140365 0.330322
612 2 0.547093 0.527594 0.617668
613 2 0.508708 0.28339 0.793868
614 2 0.417697 0.177884 0.468476
615 2 0.397408 0.029557 0.108084
616 2 0.763638 0.336839 0.32233
617 2 0.147536 0.303854 0.90814
618 2 0.154977 0.042189 0.782818
619 2 0.229854 0.537437 0.232352
620 2 0.925635 0.152464 0.174461
621 2 0.908489 0.699313 0.351731
622 2 0.211838 0.511679 0.844481
623 2 0.151283 0.056068 0.390933
624 2 0.19706 0.0555944 0.964882
625 2 0.285435 0.354362 0.219881
626 2 0.137847 0.0201287 0.136047
627 2 0.183025 0.0971896 0.432701
628 2 0.504324 0.368261 0.3478
629 2 0.0191214 0.176898 0.804079
630 2 0.135392 0.469761 0.106473
631 2 0.165567 0.311775 0.186183
632 2 0.9307 0.339114 0.289054
633 2 0.0445282 0.179944 0.258008
634 2 0.438286 0.472258 0.430875
635 2 0.137174 0.576232 0.354871
636 2 0.0133393 0.0533134 0.934526
637 2 0.354115 0.433296 0.974219
638 2 0.0124448 0.419745 0.346515
639 2 0.527727 0.200274 0.443446
640 2 0.044528 0.359499 0.169986
641 2 0.0505036 0.398578 0.219032
642 2 0.318734 0.862919 0.266934
643 2 0.437135 0.276499 0.149631
644 2 0.348246 0.0978949 0.494051
645 2 0.409455 0.0249175 0.966096
646 2 0.253718 0.971499 0.957815
647 2 0.985873 0.761465 0.352629
648 2 0.0965689 0.563973 0.156869
649 2 0.256093 0.193608 0.218923
650 2 0.289619 0.136162 0.773081
651 2 0.0721547 0.574478 0.350402
652 2 0.237342 0.0622235 0.715268
653 2 0.285513 0.335359 0.72922
654 2 0.347113 0.84554 0.801718
655 2 0.999286 0.970677 0.13557
656 2 0.35484 0.188395 0.233461
657 2 0.95219 0.074906 0.425264
658 2 0.883601 0.0533131 0.192584
659 2 0.916153 0.181367 0.919121
660 2 0.41166 0.512814 0.966728
661 2 0.0154047 0.772054 0.407689
662 2 0.301675 0.788172 0.840326
663 2 0.515248 0.643898 0.330757
664 2 0.115785 0.35985 0.934661
665 2 0.613475 0.0362566 0.246143
666 2 0.907855 0.936024 0.649619
667 2 0.102101 0.0789608 0.825711
668 2 0.435858 0.766809 0.906104
669 2 0.241339 0.332587 0.120054
670 2 0.675298 0.444245 0.706144
671 2 0.114486 0.16758 0.151482
672 2 0.489794 0.820949 0.307398
673 2 0.39363 0.940047 0.0704223
674 2 0.335807 0.143945 0.099976
675 2 0.111007 0.104158 0.388002
676 2 0.395457 0.216251 0.509103
677 2 0.354824 0.471517 0.676537
678 2 0.305132 0.852353 0.753391
679 2 0.299063 0.657275 0.134401
680 2 0.404725 0.372904 0.834745
681 2 0.497208 0.939876 0.088283
682 2 0.369362 0.142567 0.370021
683 2 0.451162 0.5631 0.418896
684 2 0.254197 0.155013 0.222667
685 2 0.181449 0.911245 0.303128
686 2 0.0177161 0.277212 0.549518
687 2 0.247801 0.400883 0.949767
688 2 0.545489 0.0429857 0.110386
689 2 0.282547 0.956913 0.173813
690 2 0.311904 0.284459 0.678463
691 2 0.144765 0.340534 0.85892
692 2 0.630508 0.971919 0.370391
693 2 0.12177 0.0837287 0.147848
694 2 0.173307 0.588541 0.730125
695 2 0.413627 0.612754 0.205524
696 2 0.196717 0.548897 0.248695
697 2 0.393841 0.0982838 0.526988
698 2 0.60072 0.737403 0.280631
699 2 0.342671 0.093952 0.20027
700 2 0.43951 0.91118 0.312904
701 2 0.13309 0.725764 0.981231
702 2 0.0546576 0.400889 0.408165
703 2 0.368388 0.915025 0.225261
704 2 0.950371 0.0164101 0.0567527
705 2 0.0973303 0.252011 0.26279
706 2 0.0121325 0.0412889 0.180949
707 2 0.209649 0.42444 0.465231
708 2 0.348348 0.432389 0.432609
709 2 0.0571066 0.157821 0.657594
710 2 0.244022 0.665697 0.35549
711 2 0.966819 0.138019 0.0485087
712 2 0.595862 0.160226 0.284262
713 2 0.141328 0.129115 0.960201
714 2 0.879709 0.196724 0.952836
715 2 0.179306 0.509504 0.112641
716 2 0.346342 0.220875 0.293286
717 2 0.975221 0.0545655 0.30282
718 2 0.838145 0.0853184 0.937395
719 2 0.553719 0.601077 0.39239
720 2 0.401841 0.142126 0.0832519
721 2 0.537869 0.965084 0.321199
722 2 0.39231 0.894044 0.137584
723 2 0.923702 0.152519 0.333328
724 2 0.1822 0.240568 0.0334842
725 2 0.45823 0.458362 0.000941297
726 2 0.222256 0.980436 0.665769
727 2 0.2436 0.630443 0.165663
728 2 0.868945 0.250971 0.982833
729 2 0.297455 0.49056 0.402442
730 2 0.129713 0.0987076 0.356048
731 2 0.423029 0.402114 0.643135
732 2 0.142285 0.96543 0.0355897
733 2 0.319147 0.294313 0.212632
734 2 0.310145 0.18033 0.333886
735 2 0.114514 0.575703 0.126365
736 2 0.324971 0.425996 0.20179
737 2 0.682229 0.236789 0.0893297
738 2 0.269275 0.286494 0.333275
739 2 0.925845 0.0265889 0.0302128
740 2 0.206433 0.120249 0.17692
741 2 0.044073 0.672125 0.0066364
742 2 0.223909 0.313074 0.237266
743 2 0.897875 0.222421 0.586109
744 2 0.974754 0.830592 0.327272
745 2 0.0772902 0.132402 0.998565
746 2 0.0310197 0.0924859 0.327362
747 2 0.37629 0.54138 0.210315
748 2 0.553478 0.179129 0.353396
749 2 0.124601 0.121691 0.618062
750 2 0.580014 0.153692 0.588501
751 2 0.516295 0.0198162 0.316862
752 2 0.955733 0.0200209 0.251923
753 2 0.506451 0.556403 0.763004
754 2 0.0923399 0.0132082 0.176226
755 2 0.157781 0.261365 0.16339
756 2 0.991754 0.389198 0.481338
757 2 0.863617 0.0439444 0.325782
758 2 0.27739 0.556883 0.0439755
759 2 0.323424 0.589636 0.232312
760 2 0.805118 0.457079 0.391601
761 2 0.211213 0.0520087 0.0268462
762 2 0.127744 0.441017 0.34035
763 2 0.245053 0.501005 0.236332
764 2 0.475945 0.371368 0.535827
765 2 0.577459 0.566817 0.562413
766 2 0.100266 0.288846 0.0902788
767 2 0.25134 0.844249 0.322214
768 2 0.442717 0.811865 0.0453862
769 2 0.262472 0.348503 0.423492
770 2 0.230055 0.169135 0.384493
771 2 0.183278 0.477121 0.248106
772 2 0.337117 0.0200777 0.888864
773 2 0.217478 0.664592 0.0204072
774 2 0.0147267 0.0496112 0.630724
775 2 0.144819 0.225989 0.233681
776 2 0.383047 0.111348 0.850401
777 2 0.273721 0.135897 0.104956
778 2 0.0816785 0.558517 0.429761
779 2 0.0255411 0.158872 0.458101
780 2 0.242285 0.0928795 0.217478
781 2 0.431526 0.440124 0.0742277
782 2 0.61252 0.142942 0.713515
783 2 0.512893 0.379773 0.543151
784 2 0.150898 0.494311 0.312452
785 2 0.434227 0.308393 0.236913
786 2 0.160041 0.339046 0.0949208
787 2 0.032035 0.0427483 0.599435
788 2 0.276565 0.146084 0.424516
789 2 0.324752 0.840618 0.166687
790 2 0.381726 0.362965 0.523737
791 2 0.303104 0.976077 0.330622
792 2 0.314798 0.982927 0.0927984
793 2 0.505571 0.379436 0.101072
794 2 0.296321 0.185017 0.271931
795 2 0.224698 0.762561 0.167589
796 2 0.760472 0.993671 0.330229
797 2 0.301729 0.0711213 0.388388
798 2 0.567653 0.449202 0.231894
799 2 0.0687532 0.179269 0.426367
800 2 0.246236 0.191446 0.128132
801 2 0.262857 0.593256 0.452933
802 2 0.160376 0.958416 0.068752
803 2 0.261405 0.852457 0.259412
804 2 0.159407 0.209187 0.892943
805 2 0.301849 0.191349 0.174637
806 2 0.387689 0.994843 0.0315876
807 2 0.172964 0.253279 0.751329
808 2 0.116873 0.291491 0.303674
809 2 0.241313 0.210951 0.865638
810 2 0.272685 0.404348 0.332124
811 2 0.314913 0.18164 0.236965
812 2 0.291415 0.797367 0.508611
813 2 0.167656 0.925506 0.335074
814 2 0.16719 0.959505 0.151952
815 2 0.0408726 0.0993879 0.0973835
816 2 0.188888 0.153765 0.738492
817 2 0.328108 0.287874 0.937664
818 2 0.277976 0.499289 0.335474
819 2 0.752355 0.269893 0.29861
820 2 0.0500475 0.592103 0.281751
821 2 0.261032 0.888123 0.400772
822 2 0.945589 0.602705 0.379774
823 2 0.243665 0.491854 0.275726
824 2 0.137918 0.0709856 0.663192
825 2 0.322598 0.377489 0.349442
826 2 0.162627 0.0813356 0.36463
827 2 0.479739 0.0496141 0.129405
828 2 0.246074 0.333961 0.264182
829 2 0.113633 0.970268 0.224579
830 2 0.13426 0.155476 0.248712
831 2 0.157721 0.581713 0.294962
832 2 0.116449 0.368892 0.385768
833 2 0.339736 0.0403115 0.281366
834 2 0.932573 0.51134 0.0255246
835 2 0.451675 0.750746 0.0493422
836 2 0.312987 0.38243 0.508319
837 2 0.55885 0.387222 0.863929
838 2 0.56705 0.0484537 0.140586
839 2 0.0122936 0.0454012 0.10854
840 2 0.631843 0.141574 0.389081
841 2 0.512889 0.995687 0.0897385
842 2 0.227352 0.232748 0.472077
843 2 0.297499 0.296732 0.645927
844 2 0.0448122 0.715039 0.954837
845 2 0.857899 0.183077 0.00763672
846 2 0.0562043 0.603635 0.980539
847 2 0.412602 0.499945 0.357274
848 2 0.13792 0.745927 0.256407
849 2 0.142782 0.760551 0.364822
850 2 0.0709535 0.20001 0.116152
851 2 0.153365 0.512797 0.344355
852 2 0.279223 0.0706464 0.0954872
853 2 0.227836 0.317286 0.199014
854 2 0.663154 0.32118 0.298966
855 2 0.17361 0.848659 0.959881
856 2 0.409247 0.493223 0.322086
857 2 0.0988539 0.59537 0.891356
858 2 0.284984 0.392601 0.958242
859 2 0.351244 0.330713 0.310629
860 2 0.367679 0.258835 0.0558934
861 2 0.458528 0.344185 0.929466
862 2 0.293683 0.480654 0.532974
863 2 0.96123 0.332604 0.474783
864 2 0.934802 0.581627 0.26976
865 2 0.0910234 0.375808 0.805639
866 2 0.409035 0.827022 0.996262
867 2 0.40406 0.0563696 0.439099
868 2 0.19253 0.38955 0.987999
869 2 0.262859 0.639303 0.0575328
870 2 0.576518 0.311999 0.392197
871 2 0.330287 0.569115 0.368375
872 2 0.687991 0.348782 0.576424
873 2 0.0400165 0.631163 0.337258
874 2 0.668105 0.445303 0.559777
875 2 0.136112 0.345668 0.260789
876 2 0.961539 0.942231 0.953908
877 2 0.589406 0.386772 0.44628
878 2 0.886763 0.919288 0.183604
879 2 0.39765 0.0553184 0.476508
880 2 0.0953758 0.752237 0.331291
881 2 0.205209 0.317277 0.056557
882 2 0.072433 0.124268 0.144343
883 2 0.258219 0.229099 0.91327
884 2 0.419892 0.129249 0.114053
885 2 0.888325 0.381388 0.0916331
886 2 0.382456 0.649669 0.359279
887 2 0.14303 0.0523442 0.158818
888 2 0.438582 0.1002 0.40468
889 2 0.0624363 0.490377 0.356453
890 2 0.615326 0.552974 0.269233
891 2 0.849291 0.527051 0.221994
892 2 0.182288 0.212998 0.112792
893 2 0.0852013 0.456153 0.304953
894 2 0.233825 0.777827 0.373357
895 2 0.296894 0.0803355 0.331466
896 2 0.1579 0.960094 0.399045
897 2 0.563366 0.469338 0.863006
898 2 0.361298 0.374974 0.998948
899 2 0.0227308 0.873995 0.245938
900 2 0.117999 0.193506 0.1982
901 2 0.0643969 0.869814 0.75867
902 2 0.531656 0.939426 0.106161
903 2 0.0411709 0.0172371 0.108999