ITEM: TIMESTEP
398577
ITEM: NUMBER OF ATOMS
13500
ITEM: BOX BOUNDS pp pp pp
-1.4233514252294641e+00 5.9344535031406124e+01
-1.4233514252294641e+00 5.9344535031406124e+01
-1.4233514252294641e+00 7.5826845653465440e+01
ITEM: ATOMS id type xs ys zs
1 2 0.228153 0.541751 0.52197
2 2 0.279887 0.888156 0.83611
3 2 0.106684 0.351029 0.0891307
4 2 0.201711 0.487984 0.360752
5 2 0.19052 0.388707 0.853469
6 2 0.0303668 0.141857 0.789213
7 2 0.0289718 0.12072 0.0706152
8 2 0.476468 0.9839 0.897922
9 2 0.235448 0.458783 0.402788
10 2 0.324718 0.391102 0.82135
11 2 0.384748 0.0631468 0.840745
12 2 0.451183 0.307012 0.48115
13 2 0.0243959 0.0523132 0.543944
14 2 0.33232 0.103921 0.57325
15 2 0.337017 0.328733 0.83912
16 2 0.356204 0.166539 0.384485
17 2 0.193151 0.215732 0.93515
18 2 0.231755 0.499857 0.448378
19 2 0.115445 0.667819 0.39507
20 2 0.0489296 0.88075 0.920588
21 2 0.199314 0.180138 0.144314
22 2 0.333601 0.0300966 0.415337
23 2 0.966833 0.299904 0.387097
24 2 0.672644 0.584319 0.298224
25 2 0.959777 0.440634 0.430608
26 2 0.615808 0.697471 0.129104
27 2 0.244784 0.931122 0.560609
28 2 0.290615 0.918413 0.958934
29 2 0.302507 0.901655 0.268667
30 2 0.461696 0.910579 0.319012
31 2 0.855099 0.461835 0.371191
32 2 0.0741062 0.592605 0.466101
33 2 0.0472762 0.760847 0.729241
34 2 0.0561427 0.657288 0.333832
35 2 0.361156 0.257021 0.655264
36 2 0.936999 0.0770254 0.347723
37 2 0.512928 0.418501 0.354631
38 2 0.594137 0.474483 0.984556
39 2 0.696797 0.537815 0.32391
40 2 0.14669 0.0156126 0.0105296
41 2 0.854999 0.317147 0.000754509
42 2 0.335021 0.911038 0.284686
43 2 0.120922 0.251392 0.964113
44 2 0.215884 0.392066 0.0244179
45 2 0.142857 0.804773 0.750454
46 2 0.443268 0.268649 0.80889
47 2 0.0790622 0.156397 0.807245
48 2 0.732652 0.0827032 0.985
49 2 0.972782 0.144855 0.527953
50 2 0.04872 0.822365 0.29284
51 2 0.761119 0.225178 0.350927
52 2 0.995475 0.136086 0.945017
53 2 0.172696 0.201538 0.430074
54 2 0.214692 0.150326 0.492919
55 2 0.992672 0.131716 0.0382899
56 2 0.364088 0.485052 0.882068
57 2 0.852723 0.318317 0.360741
58 2 0.294075 0.21132 0.858074
59 2 0.250213 0.740173 0.388994
60 2 0.949799 0.67653 0.822962
61 2 0.173177 0.91162 0.900576
62 2 0.414169 0.386979 0.114255
63 2 0.261217 0.473496 0.447698
64 2 0.0715842 0.242821 0.128891
65 2 0.466309 0.015802 0.033141
66 2 0.754153 0.595344 0.357138
67 2 0.0920767 0.991454 0.100661
68 2 0.370706 0.990774 0.4886
69 2 0.182261 0.276034 0.939801
70 2 0.205485 0.813355 0.00387835
71 2 0.409631 0.43556 0.661424
72 2 0.263474 0.721919 0.414491
73 2 0.134561 0.548531 0.358372
74 2 0.232383 0.724943 0.862141
75 2 0.13022 0.843762 0.398996
76 2 0.596105 0.466707 0.0504296
77 2 0.816142 0.285424 0.415173
78 2 0.202058 0.368174 0.806258
79 2 0.962192 0.886358 0.359571
80 2 0.684653 0.117536 0.0724197
81 2 0.650122 0.426096 0.0427467
82 2 0.366258 0.501908 0.720461
83 2 0.393562 0.35708 0.504939
84 2 0.267703 0.244874 0.00538014
85 2 0.283132 0.036518 0.998305
86 2 0.208243 0.946538 0.0886942
87 2 0.258794 0.782276 0.500697
88 2 0.0728454 0.809 0.963055
89 2 0.175601 0.94672 0.501757
90 2 0.0354442 0.0316309 0.115724
91 2 0.336523 0.341659 0.415512
92 2 0.41007 0.264196 0.487322
93 2 0.512784 0.807471 0.304102
94 2 0.818321 0.0652816 0.98206
95 2 0.326726 0.448758 0.373136
96 2 0.183883 0.586209 0.325811
97 2 0.144192 0.682586 0.287495
98 2 0.274825 0.533764 0.48432
99 2 0.213443 0.0713853 0.982977
100 2 0.0118093 0.0252526 0.682719
101 2 0.071067 0.407224 0.949401
102 2 0.541956 0.135565 0.0483649
103 2 0.88553 0.925941 0.342061
104 2 0.536706 0.502647 0.406846
105 2 0.172933 0.256155 0.102896
106 2 0.0143111 0.21825 0.422611
107 2 0.520279 0.465574 0.448176
108 2 0.951296 0.956957 0.846299
109 2 0.140426 0.861078 0.358101
110 2 0.210254 0.6433 0.852304
111 2 0.671542 0.276251 0.280414
112 2 0.705699 0.36923 0.994642
113 2 0.822528 0.576345 0.925877
114 2 0.617998 0.427721 0.329341
115 2 0.517543 0.595309 0.94009
116 2 0.237302 0.361337 0.819765
117 2 0.302193 0.239368 0.100075
118 2 0.0929835 0.196309 0.110232
119 2 0.356478 0.392257 0.122954
120 2 0.430098 0.244033 0.97453
121 2 0.921061 0.428223 0.0242709
122 2 0.291858 0.383737 0.979006
123 2 0.0716903 0.526289 0.789655
124 2 0.259637 0.338164 0.429058
125 2 0.0954904 0.566394 0.859893
126 2 0.995096 0.00105506 0.762266
127 2 0.672832 0.189454 0.0173323
128 2 0.0793159 0.854252 0.00529235
129 2 0.190025 0.397375 0.823912
130 2 0.981273 0.0682813 0.593817
131 2 0.243933 0.890924 0.824756
132 2 0.395471 0.48429 0.999884
133 2 0.389031 0.577064 0.550205
134 2 0.706079 0.369164 0.380648
135 2 0.542394 0.483255 0.599479
136 2 0.358217 0.713969 0.336551
137 2 0.417152 0.540498 0.995859
138 2 0.180046 0.471792 0.381793
139 2 0.524297 0.502571 0.880222
140 2 0.047999 0.223367 0.361143
141 2 0.462495 0.239427 0.50955
142 2 0.0575753 0.0413273 0.412171
143 2 0.466447 0.135209 0.422914
144 2 0.343373 0.974776 0.367369
145 2 0.190466 0.378779 0.363988
146 2 0.498291 0.780834 0.470152
147 2 0.315852 0.24335 0.462544
148 2 0.409594 0.626126 0.99112
149 2 0.55997 0.335488 0.412223
150 2 0.0342389 0.306931 0.790158
151 2 0.510788 0.201378 0.536192
152 2 0.404196 0.077036 0.817379
153 2 0.300411 0.364919 0.360095
154 2 0.375483 0.520141 0.961427
155 2 0.237093 0.570802 0.376678
156 2 0.323496 0.195881 0.428382
157 2 0.23796 0.53793 0.491493
158 2 0.166916 0.272744 0.463782
159 2 0.446646 0.167001 0.433504
160 2 0.623924 0.100305 0.125339
161 2 0.0562531 0.938981 0.56833
162 2 0.433586 0.390818 0.937898
163 2 0.487557 0.893062 0.37063
164 2 0.0354359 0.799983 0.97075
165 2 0.0506986 0.209148 0.868777
166 2 0.136898 0.370464 0.371495
167 2 0.207578 0.546389 0.381728
168 2 0.0505967 0.375902 0.552794
169 2 0.600003 0.119307 0.0611635
170 2 0.434556 0.94175 0.987087
171 2 0.321722 0.489694 0.0305541
172 2 0.955116 0.886416 0.427742
173 2 0.0989516 0.0372656 0.590855
174 2 0.266446 0.506152 0.615218
175 2 0.268363 0.80038 0.0375718
176 2 0.148565 0.201393 0.979776
177 2 0.132201 0.142812 0.0697003
178 2 0.200786 0.411654 0.481853
179 2 0.127071 0.24318 0.877243
180 2 0.163609 0.13596 0.0282844
181 2 0.273995 0.883859 0.482564
182 2 0.620702 0.366584 0.87607
183 2 0.107033 0.240693 0.410747
184 2 0.256812 0.193815 0.983118
185 2 0.315433 0.254739 0.0527674
186 2 0.37668 0.143924 0.332618
187 2 0.214308 0.367271 0.386441
188 2 0.941937 0.123445 0.536132
189 2 0.211667 0.157872 0.955688
190 2 0.277532 0.477179 0.0805919
191 2 0.294302 0.620186 0.850111
192 2 0.0509607 0.107629 0.421488
193 2 0.28997 0.315314 0.100773
194 2 0.334321 0.146078 0.502256
195 2 0.0765544 0.948204 0.453911
196 2 0.903911 0.433642 0.290893
197 2 0.292623 0.358189 0.884124
198 2 0.417786 0.25758 0.00262352
199 2 0.0722756 0.510236 0.0181272
200 2 0.911626 0.920373 0.483222
201 2 0.157911 0.779694 0.482121
202 2 0.200161 0.208256 0.0814136
203 2 0.548126 0.285852 0.513258
204 2 0.383959 0.0889883 0.53124
205 2 0.180761 0.356726 0.517854
206 2 0.112614 0.95708 0.56624
207 2 0.110119 0.219508 0.062628
208 2 0.227216 0.973132 0.0717002
209 2 0.98164 0.720676 0.27952
210 2 0.255653 0.125571 0.415345
211 2 0.116843 0.468773 0.3886
212 2 0.294085 0.511076 0.662897
213 2 0.34985 0.268135 0.536978
214 2 0.419597 0.219264 0.588271
215 2 0.532963 0.702624 0.43097
216 2 0.482037 0.687855 0.461226
217 2 0.352511 0.499125 0.0482347
218 2 0.241887 0.205978 0.533957
219 2 0.235993 0.102467 0.981564
220 2 0.974371 0.0726625 0.353122
221 2 0.408437 0.308485 0.40863
222 2 0.366941 0.936783 0.0393477
223 2 0.98464 0.474162 0.927232
224 2 0.499448 0.188212 0.39535
225 2 0.864744 0.220889 0.757945
226 2 0.958708 0.952793 0.965949
227 2 0.15316 0.490033 0.949413
228 2 0.162577 0.0193379 0.454113
229 2 0.369758 0.401928 0.622913
230 2 0.254796 0.145555 0.132853
231 2 0.0565982 0.123214 0.134019
232 2 0.0263923 0.55134 0.487543
233 2 0.121815 0.0149731 0.9873
234 2 0.0148472 0.188576 0.826326
235 2 0.906153 0.640191 0.413264
236 2 0.296615 0.485838 0.328127
237 2 0.638369 0.0125073 0.0615027
238 2 0.236603 0.49158 0.955171
239 2 0.309684 0.405388 0.062403
240 2 0.625888 0.3476 0.936944
241 2 0.745328 0.104008 0.440881
242 2 0.287148 0.878585 0.344209
243 2 0.97897 0.79804 0.495026
244 2 0.175616 0.169672 0.382556
245 2 0.313275 0.253206 0.76549
246 2 0.921257 0.920336 0.386903
247 2 0.0280552 0.257179 0.0649997
248 2 0.231656 0.47445 0.492113
249 2 0.432028 0.37008 0.425002
250 2 0.418625 0.483447 0.248413
251 2 0.0941147 0.120477 0.14078
252 2 0.276375 0.864399 0.246787
253 2 0.374711 0.991814 0.518862
254 2 0.585675 0.329379 0.389263
255 2 0.189353 0.857583 0.924786
256 2 0.154398 0.247044 0.782381
257 2 0.442111 0.458278 0.873751
258 2 0.0182764 0.584169 0.920308
259 2 0.537145 0.924416 0.358199
260 2 0.399757 0.511825 0.593538
261 2 0.432099 0.92835 0.458304
262 2 0.354251 0.738151 0.446576
263 2 0.499317 0.826464 0.633725
264 2 0.570164 0.280643 0.0147822
265 2 0.0246966 0.183996 0.0714785
266 2 0.465054 0.533864 0.3653
267 2 0.379188 0.0351252 0.784312
268 2 0.0708174 0.337074 0.622217
269 2 0.736223 0.250114 0.561065
270 2 0.442919 0.126324 0.626598
271 2 0.443694 0.332345 0.988957
272 2 0.398846 0.82577 0.361649
273 2 0.192419 0.171644 0.780715
274 2 0.779753 0.637504 0.318778
275 2 0.518213 0.524906 0.647333
276 2 0.44152 0.832124 0.274886
277 2 0.348945 0.680022 0.848175
278 2 0.965339 0.425783 0.0724086
279 2 0.748309 0.347756 0.463495
280 2 0.437044 0.159689 0.0428059
281 2 0.110259 0.18816 0.935498
282 2 0.962493 0.082369 0.829582
283 2 0.266792 0.187944 0.411885
284 2 0.517233 0.610731 0.464401
285 2 0.115456 0.161346 0.71596
286 2 0.241697 0.469744 0.0894559
287 2 0.984381 0.196516 0.0313059
288 2 0.195464 0.281762 0.891266
289 2 0.0101096 0.709107 0.551532
290 2 0.20514 0.800109 0.0320103
291 2 0.417575 0.062592 0.275287
292 2 0.451347 0.642754 0.318676
293 2 0.205536 0.148391 0.602478
294 2 0.977607 0.466777 0.330166
295 2 0.142713 0.313152 0.966371
296 2 0.102092 0.706996 0.317812
297 2 0.509893 0.985695 0.408684
298 2 0.241225 0.976571 0.496832
299 2 0.215241 0.0811963 0.416267
300 2 0.4246 0.0351064 0.660181
301 2 0.451495 0.283506 0.456051
302 2 0.142823 0.321709 0.0556873
303 2 0.229734 0.221998 0.923768
304 2 0.54307 0.288022 0.06756
305 2 0.081599 0.417666 0.337908
306 2 0.22496 0.128432 0.0960888
307 2 0.288314 0.222773 0.12612
308 2 0.517919 0.326115 0.541368
309 2 0.944582 0.861525 0.405128
310 2 0.121987 0.290963 0.0911545
311 2 0.3562 0.207413 0.0306653
312 2 0.628236 0.365006 0.409767
313 2 0.4776 0.19102 0.371051
314 2 0.274485 0.261913 0.903729
315 2 0.281989 0.568056 0.545546
316 2 0.789474 0.243365 0.259019
317 2 0.22453 0.986925 0.923248
318 2 0.0738127 0.0345734 0.0331048
319 2 0.924967 0.229237 0.420061
320 2 0.113519 0.0775403 0.0969717
321 2 0.533504 0.261137 0.469121
322 2 0.0609542 0.189777 0.913739
323 2 0.337212 0.447549 0.553909
324 2 0.444628 0.0992267 0.0117146
325 2 0.361291 0.556613 0.963687
326 2 0.610896 0.615394 0.319439
327 2 0.155927 0.578192 0.955033
328 2 0.324856 0.186947 0.380286
329 2 0.0896287 0.845622 0.724962
330 2 0.702865 0.86132 0.528368
331 2 0.204864 0.473097 0.438666
332 2 0.644754 0.532679 0.352983
333 2 0.210792 0.17419 0.396493
334 2 0.172696 0.163829 0.109151
335 2 0.138338 0.592163 0.296856
336 2 0.264164 0.17513 0.59012
337 2 0.159394 0.867976 0.777847
338 2 0.211537 0.282457 0.919349
339 2 0.306375 0.423811 0.939413
340 2 0.0752227 0.0395012 0.517178
341 2 0.213869 0.326571 0.0381462
342 2 0.995885 0.973385 0.303203
343 2 0.92325 0.611823 0.395817
344 2 0.369749 0.873893 0.892436
345 2 0.313664 0.656794 0.777709
346 2 0.227987 0.365627 0.003705
347 2 0.124195 0.955812 0.0258219
348 2 0.379253 0.504566 0.300077
349 2 0.15833 0.495309 0.0562538
350 2 0.239752 0.242368 0.427679
351 2 0.108359 0.319004 0.77655
352 2 0.434241 0.339133 0.445276
353 2 0.438336 0.145623 0.350938
354 2 0.115884 0.693088 0.873284
355 2 0.192688 0.832966 0.410896
356 2 0.126601 0.188131 0.00193432
357 2 0.263615 0.0296536 0.0593221
358 2 0.204468 0.580021 0.00390386
359 2 0.677504 0.289858 0.61528
360 2 0.933605 0.211252 0.314877
361 2 0.169022 0.582965 0.594386
362 2 0.458517 0.404144 0.892165
363 2 0.0977814 0.734289 0.698474
364 2 0.285529 0.854324 0.397875
365 2 0.27166 0.0958799 0.0608319
366 2 0.193485 0.337477 0.116954
367 2 0.299282 0.292219 0.897885
368 2 0.74178 0.029922 0.496517
369 2 0.471137 0.346594 0.918316
370 2 0.463383 0.457987 0.634319
371 2 0.235038 0.636061 0.349495
372 2 0.0737869 0.251877 0.897332
373 2 0.297812 0.366529 0.58877
374 2 0.575043 0.895657 0.0322071
375 2 0.38587 0.753188 0.885917
376 2 0.471417 0.196583 0.431478
377 2 0.165222 0.13554 0.39378
378 2 0.67586 0.0554452 0.994008
379 2 0.242168 0.512054 0.823374
380 2 0.10174 0.409904 0.410852
381 2 0.337535 0.735185 0.0292812
382 2 0.0927603 0.710069 0.440093
383 2 0.288897 0.308589 0.401851
384 2 0.544741 0.58541 0.573863
385 2 0.163617 0.0893676 0.813689
386 2 0.28552 0.245931 0.511611
387 2 0.329408 0.452665 0.0339161
388 2 0.430127 0.124126 0.484621
389 2 0.14574 0.84057 0.0567143
390 2 0.102995 0.814616 0.808934
391 2 0.725412 0.150945 0.553587
392 2 0.24589 0.176985 0.0544783
393 2 0.187361 0.840057 0.60791
394 2 0.983122 0.43055 0.803631
395 2 0.898755 0.567643 0.365564
396 2 0.962387 0.662443 0.420741
397 2 0.77117 0.719215 0.890812
398 2 0.360277 0.44037 0.0764052
399 2 0.724231 0.979917 0.404011
400 2 0.618478 0.40228 0.892154
401 2 0.975882 0.920988 0.569899
402 2 0.378603 0.88759 0.465224
403 2 0.260065 0.272525 0.0257421
404 2 0.586392 0.556083 0.799276
405 2 0.558141 0.397976 0.415679
406 2 0.0699502 0.689121 0.458154
407 2 0.0528125 0.175454 0.416861
408 2 0.289924 0.104078 0.918186
409 2 0.642919 0.523673 0.583674
410 2 0.919074 0.935503 0.932705
411 2 0.412759 0.302881 0.483608
412 2 0.139167 0.188253 0.420248
413 2 0.797086 0.410796 0.401047
414 2 0.247709 0.279576 0.433461
415 2 0.303213 0.811534 0.362886
416 2 0.208892 0.480575 0.316258
417 2 0.247969 0.401801 0.0387129
418 2 0.194114 0.556235 0.435856
419 2 0.0767434 0.259224 0.398432
420 2 0.472857 0.0281402 0.326233
421 2 0.98769 0.985443 0.274741
422 2 0.196878 0.594867 0.43321
423 2 0.163024 0.626131 0.398722
424 2 0.963755 0.685159 0.889232
425 2 0.0728788 0.963144 0.308768
426 2 0.150978 0.977213 0.0113689
427 2 0.290621 0.402785 0.123752
428 2 0.165603 0.199747 0.0390642
429 2 0.365004 0.921142 0.477238
430 2 0.343966 0.191399 0.0573495
431 2 0.0415984 0.199795 0.760391
432 2 0.0458782 0.23323 0.083753
433 2 0.552287 0.481168 0.865985
434 2 0.115049 0.369282 0.966389
435 2 0.138541 0.301997 0.158481
436 2 0.320963 0.446548 0.981899
437 2 0.0702356 0.985929 0.355174
438 2 0.198991 0.884673 0.501259
439 2 0.385015 0.677536 0.382209
440 2 0.389767 0.504447 0.270838
441 2 0.0623004 0.206257 0.127534
442 2 0.298653 0.204394 0.0892884
443 2 0.653273 0.248076 0.942043
444 2 0.383937 0.117606 0.353644
445 2 0.120811 0.179736 0.874911
446 2 0.44828 0.451945 0.316644
447 2 0.292318 0.138236 0.0385446
448 2 0.567185 0.458379 0.888078
449 2 0.00151088 0.906923 0.329569
450 2 0.308087 0.0515701 0.112584
451 2 0.393379 0.287502 0.373751
452 2 0.4295 0.283025 0.580741
453 2 0.920942 0.80078 0.376366
454 2 0.178304 0.297824 0.964907
455 2 0.419184 0.268095 0.443245
456 2 0.319163 0.951751 0.381484
457 2 0.401318 0.295546 0.743761
458 2 0.531464 0.769061 0.392268
459 2 0.265944 0.366224 0.448789
460 2 0.388277 0.178449 0.371101
461 2 0.301339 0.389911 0.00828922
462 2 0.0420561 0.0949859 0.117365
463 2 0.211419 0.486317 0.410775
464 2 0.502338 0.41318 0.607645
465 2 0.184373 0.405506 0.0855874
466 2 0.147928 0.467322 0.895614
467 2 0.13077 0.223191 0.136493
468 2 0.343193 0.128199 0.69049
469 2 0.586835 0.508816 0.0157667
470 2 0.348279 0.492753 0.314736
471 2 0.282204 0.105713 0.0887719
472 2 0.537344 0.264281 0.362217
473 2 0.0233852 0.952912 0.687353
474 2 0.210297 0.574383 0.870882
475 2 0.198064 0.764181 0.631103
476 2 0.104402 0.913056 0.822174
477 2 0.212111 0.988798 0.780831
478 2 0.145799 0.541376 0.84215
479 2 0.537118 0.577767 0.247697
480 2 0.244842 0.736983 0.0763791
481 2 0.454301 0.132799 0.394215
482 2 0.0497371 0.245876 0.979886
483 2 0.169312 0.0662498 0.396231
484 2 0.0900379 0.305635 0.876235
485 2 0.0420168 0.254932 0.0370414
486 2 0.00290788 0.0731358 0.793434
487 2 0.202121 0.140721 0.0286365
488 2 0.343557 0.33587 0.479315
489 2 0.637899 0.48339 0.548975
490 2 0.806119 0.271954 0.359087
491 2 0.204907 0.534446 0.0374122
492 2 0.528716 0.514795 0.81553
493 2 0.54881 0.301956 0.541521
494 2 0.936909 0.372565 0.951169
495 2 0.947899 0.0261666 0.372615
496 2 0.492923 0.478991 0.361679
497 2 0.27628 0.149955 0.523698
498 2 0.232218 0.416569 0.362953
499 2 0.315448 0.0332939 0.442322
500 2 0.132523 0.699426 0.521335
501 2 0.193439 0.00170712 0.102302
502 2 0.212358 0.157273 0.0542128
503 2 0.140116 0.447586 0.068699
504 2 0.146083 0.278946 0.928394
505 2 0.263054 0.460488 0.353584
506 2 0.189622 0.295893 0.5284
507 2 0.482015 0.441047 0.360352
508 2 0.943427 0.768678 0.208178
509 2 0.273642 0.417175 0.0992125
510 2 0.309237 0.318404 0.42682
511 2 0.0271209 0.519904 0.36458
512 2 0.121655 0.127826 0.119829
513 2 0.419078 0.465734 0.508598
514 2 0.25086 0.671079 0.96143
515 2 0.0153119 0.463914 0.44896
516 2 0.233786 0.378075 0.106798
517 2 0.406288 0.953592 0.315887
518 2 0.468126 0.172775 0.318398
519 2 0.138146 0.450013 0.505306
520 2 0.448071 0.564229 0.608794
521 2 0.0433049 0.968938 0.952952
522 2 0.379377 0.170995 0.422637
523 2 0.991476 0.403982 0.463604
524 2 0.382012 0.104925 0.429688
525 2 0.298103 0.552102 0.390708
526 2 0.333735 0.858349 0.552871
527 2 0.923484 0.216045 0.343444
528 2 0.349184 0.970935 0.607097
529 2 0.286095 0.160859 0.147007
530 2 0.966345 0.876801 0.751096
531 2 0.145841 0.835797 0.472305
532 2 0.331977 0.541967 0.69575
533 2 0.687436 0.280627 0.410416
534 2 0.346057 0.950889 0.847282
535 2 0.731448 0.251782 0.27734
536 2 0.0809654 0.318563 0.471641
537 2 0.163992 0.0559859 0.539774
538 2 0.293316 0.154828 0.45133
539 2 0.900337 0.128419 0.337362
540 2 0.258562 0.107022 0.130944
541 2 0.228943 0.508326 0.0525584
542 2 0.361218 0.244146 0.0834705
543 2 0.57694 0.497 0.360594
544 2 0.443469 0.416279 0.0461826
545 2 0.56427 0.288336 0.321988
546 2 0.191919 0.373494 0.0435099
547 2 0.67039 0.0340337 0.0197313
548 2 0.269978 0.219326 0.429649
549 2 0.100154 0.144318 0.396845
550 2 0.605392 0.000326077 0.842832
551 2 0.300011 0.380863 0.43637
552 2 0.344165 0.285542 0.964661
553 2 0.465285 0.680088 0.320296
554 2 0.98688 0.157119 0.74005
555 2 0.1568 0.890947 0.419103
556 2 0.36953 0.125715 0.997231
557 2 0.502686 0.99911 0.437545
558 2 0.0958308 0.912038 0.537682
559 2 0.64549 0.147603 0.476481
560 2 0.583963 0.351657 0.581883
561 2 0.553183 0.59771 0.421507
562 2 0.997874 0.092455 0.443179
563 2 0.177448 0.104863 0.0720163
564 2 0.952784 0.41219 0.557962
565 2 0.416784 0.656795 0.939336
566 2 0.0724762 0.42569 0.425798
567 2 0.102948 0.564411 0.015958
568 2 0.376538 0.69716 0.906632
569 2 0.26799 0.0271242 0.468868
570 2 0.150199 0.57764 0.644938
571 2 0.0624681 0.518066 0.598481
572 2 0.834208 0.120411 0.961494
573 2 0.201116 0.456126 0.0262193
574 2 0.733873 0.0743604 0.0144898
575 2 0.6066 0.988933 0.488868
576 2 0.557173 0.0748058 0.0545971
577 2 0.528772 0.498379 0.484837
578 2 0.283893 0.262295 0.635349
579 2 0.68032 0.561297 0.25286
580 2 0.0369617 0.00561804 0.94413
581 2 0.592485 0.295862 0.341762
582 2 0.142967 0.395833 0.967845
583 2 0.965219 0.733222 0.305568
584 2 0.460886 0.332598 0.389699
585 2 0.31887 0.498402 0.350262
586 2 0.31499 0.444913 0.527664
587 2 0.5984 0.285101 0.642937
588 2 0.349452 0.355277 0.121999
589 2 0.166996 0.493981 0.579678
590 2 0.386328 0.518143 0.350729
591 2 0.0520698 0.528312 0.866414
592 2 0.0115989 0.25507 0.412686
593 2 0.0468457 0.0239886 0.772855
594 2 0.322179 0.317693 0.0685164
595 2 0.289181 0.144036 0.0866347
596 2 0.800415 0.243995 0.898373
597 2 0.251266 0.391253 0.933146
598 2 0.452005 0.536433 0.416796
599 2 0.936485 0.157601 0.287635
600 2 0.57017 0.325393 0.778749
601 2 0.402978 0.422797 0.989582
602 2 0.248304 0.846482 0.976151
603 2 0.107939 0.913499 0.791182
604 2 0.974467 0.587279 0.457008
605 2 0.348846 0.245516 0.0376019
606 2 0.983781 0.341501 0.894946
607 2 0.462436 0.526389 0.709201
608 2 0.419441 0.414232 0.354867
609 2 0.931728 0.0659492 0.319948
610 2 0.919837 0.181715 0.357055
611 2 0.224322 0.137535 0.399431
612 2 0.546963 0.526585 0.628489
613 2 0.508499 0.282138 0.765665
614 2 0.416252 0.176784 0.510338
615 2 0.399321 0.0357118 0.0144482
616 2 0.761665 0.339175 0.395341
617 2 0.149965 0.304411 0.855805
618 2 0.155575 0.0413977 0.758492
619 2 0.223461 0.540672 0.323554
620 2 0.939193 0.124362 0.0609538
621 2 0.906888 0.700756 0.416925
622 2 0.211524 0.513186 0.805041
623 2 0.148476 0.0540069 0.448207
624 2 0.197987 0.0567552 0.902041
625 2 0.289872 0.354486 0.0962008
626 2 0.140461 0.0215593 0.0403708
627 2 0.180693 0.0953962 0.482441
628 2 0.502289 0.367097 0.417177
629 2 0.0207504 0.175561 0.776137
630 2 0.140011 0.477047 0.0104331
631 2 0.17181 0.315688 0.0750704
632 2 0.930665 0.340867 0.367481
633 2 0.0810301 0.178641 0.14218
634 2 0.435725 0.4709 0.481244
635 2 0.134932 0.575613 0.41945
636 2 0.0149601 0.0527224 0.880838
637 2 0.359774 0.434051 0.910452
638 2 0.0105459 0.416577 0.415583
639 2 0.526118 0.199888 0.491586
640 2 0.0506737 0.358597 0.0629914
641 2 0.0576599 0.403312 0.316573
642 2 0.320756 0.867581 0.353954
643 2 0.438184 0.278281 0.0482037
644 2 0.346035 0.0965611 0.531186
645 2 0.41122 0.02567 0.905034
646 2 0.25422 0.969689 0.891485
647 2 0.984407 0.762665 0.416268
648 2 0.11201 0.5796 0.0634829
649 2 0.261236 0.198251 0.0979199
650 2 0.290893 0.136581 0.750635
651 2 0.0691583 0.574348 0.416054
652 2 0.240817 0.0620309 0.700823
653 2 0.285846 0.334036 0.714285
654 2 0.346953 0.845782 0.776895
655 2 0.00919944 0.00985719 0.128985
656 2 0.367677 0.180826 0.33162
657 2 0.950017 0.0745105 0.476373
658 2 0.87799 0.0517033 0.300507
659 2 0.913432 0.179006 0.86816
660 2 0.413795 0.513997 0.901169
661 2 0.0137951 0.77199 0.461798
662 2 0.30304 0.789299 0.804903
663 2 0.51389 0.644037 0.402881
664 2 0.117502 0.359423 0.876348
665 2 0.633752 0.0361403 0.109933
666 2 0.908576 0.934177 0.656786
667 2 0.104277 0.0772885 0.793398
668 2 0.438511 0.767083 0.858442
669 2 0.245226 0.335951 0.0209644
670 2 0.675505 0.444423 0.698497
671 2 0.117867 0.167285 0.0484819
672 2 0.484993 0.822069 0.380962
673 2 0.396457 0.938416 0.990089
674 2 0.338981 0.147015 0.0088144
675 2 0.109238 0.102745 0.446939
676 2 0.393486 0.214893 0.543586
677 2 0.354447 0.471082 0.674885
678 2 0.304952 0.851765 0.736185
679 2 0.308427 0.659582 0.0329319
680 2 0.405091 0.372518 0.798554
681 2 0.499709 0.94245 0.00145848
682 2 0.363504 0.13911 0.435353
683 2 0.451132 0.559867 0.473175
684 2 0.271474 0.164015 0.109046
685 2 0.179753 0.907974 0.375163
686 2 0.0190303 0.283861 0.568544
687 2 0.250713 0.403908 0.888564
688 2 0.547706 0.0421975 0.016879
689 2 0.289225 0.960664 0.0732757
690 2 0.312642 0.283234 0.675693
691 2 0.145749 0.340386 0.815993
692 2 0.627005 0.971664 0.434865
693 2 0.127228 0.0842383 0.0467085
694 2 0.173435 0.589441 0.716719
695 2 0.411134 0.612034 0.304521
696 2 0.188025 0.548416 0.334274
697 2 0.390839 0.0973996 0.560308
698 2 0.596595 0.736647 0.362251
699 2 0.345982 0.0932537 0.0924668
700 2 0.436056 0.910694 0.385756
701 2 0.134875 0.72706 0.914287
702 2 0.0527324 0.399211 0.46388
703 2 0.374293 0.906492 0.318686
704 2 0.954359 0.0129704 0.976102
705 2 0.103785 0.24807 0.144042
706 2 0.0205719 0.0429451 0.0884307
707 2 0.205832 0.422655 0.511087
708 2 0.345527 0.430828 0.482556
709 2 0.057143 0.156428 0.660151
710 2 0.241758 0.664143 0.420827
711 2 0.968774 0.139205 0.969443
712 2 0.581937 0.160449 0.371968
713 2 0.144155 0.129207 0.899929
714 2 0.88542 0.203237 0.904674
715 2 0.183601 0.515089 0.0172462
716 2 0.343396 0.219438 0.37525
717 2 0.973032 0.0547272 0.379192
718 2 0.841099 0.0827085 0.879021
719 2 0.551895 0.601934 0.452428
720 2 0.406132 0.144497 0.996381
721 2 0.536586 0.960605 0.398901
722 2 0.388365 0.869688 0.249892
723 2 0.921714 0.15559 0.403466
724 2 0.185384 0.243196 0.955177
725 2 0.46255 0.459279 0.921576
726 2 0.221844 0.978144 0.667775
727 2 0.247686 0.637537 0.0544733
728 2 0.867844 0.253801 0.919502
729 2 0.295026 0.488876 0.456745
730 2 0.127619 0.096567 0.420322
731 2 0.423014 0.401272 0.649305
732 2 0.14527 0.96539 0.960197
733 2 0.323294 0.29648 0.0934359
734 2 0.304681 0.178369 0.405096
735 2 0.122156 0.587101 0.0348976
736 2 0.326419 0.426386 0.08429
737 2 0.684457 0.234556 0.998859
738 2 0.264611 0.279135 0.406516
739 2 0.929281 0.0246422 0.954839
740 2 0.211269 0.123812 0.0689648
741 2 0.0421762 0.670207 0.931702
742 2 0.228322 0.321047 0.112762
743 2 0.899183 0.222027 0.601303
744 2 0.973187 0.831427 0.399301
745 2 0.0783626 0.132111 0.928895
746 2 0.0272505 0.0938729 0.399902
747 2 0.375694 0.541574 0.306671
748 2 0.550688 0.177752 0.422101
749 2 0.122657 0.120813 0.628884
750 2 0.578539 0.15227 0.605164
751 2 0.514411 0.0173207 0.391627
752 2 0.955551 0.0177537 0.343485
753 2 0.508344 0.554174 0.742976
754 2 0.0998308 0.0132479 0.0755532
755 2 0.162866 0.264087 0.0556619
756 2 0.989421 0.389549 0.520892
757 2 0.862278 0.0458645 0.398647
758 2 0.280551 0.560919 0.963292
759 2 0.320636 0.58641 0.321917
760 2 0.80294 0.458506 0.450888
761 2 0.228778 0.0451615 0.935632
762 2 0.125051 0.440325 0.40946
763 2 0.234886 0.504442 0.328444
764 2 0.474998 0.370381 0.563434
765 2 0.576346 0.567144 0.584013
766 2 0.102937 0.291498 0.000636858
767 2 0.248564 0.842177 0.394265
768 2 0.44684 0.813198 0.96697
769 2 0.26194 0.347644 0.476146
770 2 0.22652 0.165643 0.444718
771 2 0.182846 0.472017 0.337717
772 2 0.339144 0.0194875 0.843925
773 2 0.226479 0.65223 0.943256
774 2 0.0135889 0.0481486 0.639881
775 2 0.150381 0.226677 0.110612
776 2 0.386673 0.110508 0.810179
777 2 0.276314 0.137431 0.0112291
778 2 0.0799225 0.558141 0.479084
779 2 0.0240486 0.15764 0.503891
780 2 0.248257 0.0989207 0.102563
781 2 0.436465 0.442402 0.984825
782 2 0.613888 0.14233 0.702619
783 2 0.510961 0.379562 0.571155
784 2 0.149022 0.493026 0.387825
785 2 0.435372 0.291705 0.33922
786 2 0.163546 0.343035 0.00392686
787 2 0.0317705 0.0412408 0.61439
788 2 0.272606 0.143074 0.476065
789 2 0.302425 0.813397 0.0822577
790 2 0.380509 0.361719 0.55525
791 2 0.299287 0.976203 0.397613
792 2 0.322998 0.982889 0.00578087
793 2 0.506634 0.380267 0.00629388
794 2 0.299837 0.184136 0.12446
795 2 0.227854 0.765733 0.0617456
796 2 0.759476 0.99428 0.404503
797 2 0.297093 0.0702797 0.447686
798 2 0.564458 0.445783 0.3287
799 2 0.0670831 0.177624 0.476701
800 2 0.249144 0.194603 0.0277397
801 2 0.260966 0.592646 0.497589
802 2 0.163233 0.959226 0.987115
803 2 0.260331 0.850233 0.343583
804 2 0.160813 0.209254 0.844842
805 2 0.30476 0.194318 0.0606371
806 2 0.390946 0.996279 0.96186
807 2 0.172278 0.255765 0.734048
808 2 0.104348 0.285734 0.393712
809 2 0.241399 0.20898 0.823796
810 2 0.270655 0.400476 0.400193
811 2 0.328938 0.186086 0.102008
812 2 0.29016 0.797042 0.542266
813 2 0.167713 0.921143 0.402625
814 2 0.168688 0.962714 0.0552756
815 2 0.0440566 0.102137 0.00681092
816 2 0.190187 0.1532 0.722249
817 2 0.331098 0.289426 0.879291
818 2 0.275509 0.497826 0.405294
819 2 0.748827 0.273213 0.379352
820 2 0.044449 0.591962 0.363725
821 2 0.259179 0.88978 0.45533
822 2 0.944161 0.604041 0.440902
823 2 0.239686 0.490992 0.357788
824 2 0.137187 0.0691692 0.663806
825 2 0.319361 0.3752 0.409544
826 2 0.159694 0.0769261 0.424735
827 2 0.482631 0.0508607 0.036269
828 2 0.247991 0.344198 0.132539
829 2 0.109926 0.962704 0.313014
830 2 0.142951 0.158659 0.128664
831 2 0.152425 0.579167 0.370637
832 2 0.114231 0.366765 0.446579
833 2 0.349899 0.040012 0.366835
834 2 0.938353 0.511674 0.952737
835 2 0.454607 0.751829 0.970482
836 2 0.311271 0.381781 0.542897
837 2 0.561114 0.386009 0.819515
838 2 0.575265 0.0498925 0.0367534
839 2 0.0170735 0.0479673 0.0170295
840 2 0.62897 0.14102 0.449255
841 2 0.514965 0.995811 0.00618878
842 2 0.223759 0.23111 0.516013
843 2 0.296472 0.295873 0.649668
844 2 0.0446439 0.716163 0.893881
845 2 0.857802 0.185159 0.941124
846 2 0.0544864 0.602105 0.915759
847 2 0.408535 0.498891 0.423146
848 2 0.138327 0.742537 0.343737
849 2 0.141482 0.759318 0.427366
850 2 0.0727748 0.200285 0.0201453
851 2 0.150297 0.511575 0.414216
852 2 0.282655 0.0724304 0.00901321
853 2 0.233274 0.322512 0.0825793
854 2 0.661926 0.322756 0.37829
855 2 0.173647 0.848835 0.897891
856 2 0.40543 0.491479 0.39397
857 2 0.0989037 0.597005 0.842445
858 2 0.286746 0.394844 0.896019
859 2 0.347693 0.326497 0.389092
860 2 0.371462 0.261209 0.973017
861 2 0.460758 0.34351 0.870791
862 2 0.292504 0.480879 0.560344
863 2 0.958351 0.331422 0.517082
864 2 0.92885 0.584969 0.352624
865 2 0.0931417 0.375361 0.777452
866 2 0.412255 0.828902 0.926523
867 2 0.401518 0.0543998 0.49027
868 2 0.194851 0.392625 0.916999
869 2 0.268907 0.641972 0.975409
870 2 0.575249 0.312395 0.452693
871 2 0.327623 0.569316 0.430606
872 2 0.6875 0.350575 0.596765
873 2 0.0369492 0.631343 0.406112
874 2 0.667724 0.444992 0.582521
875 2 0.154865 0.331756 0.144183
876 2 0.963971 0.940805 0.895679
877 2 0.588001 0.387416 0.494506
878 2 0.882715 0.92352 0.292148
879 2 0.395633 0.0538834 0.520693
880 2 0.0933812 0.751303 0.399863
881 2 0.207653 0.320274 0.972175
882 2 0.081966 0.124281 0.0405323
883 2 0.262132 0.231486 0.859404
884 2 0.423511 0.131874 0.0227581
885 2 0.921149 0.359799 0.0360302
886 2 0.378942 0.651044 0.425221
887 2 0.148121 0.0543851 0.0565887
888 2 0.43571 0.0981786 0.461871
889 2 0.0613907 0.488353 0.421148
890 2 0.61232 0.554735 0.351973
891 2 0.847788 0.528117 0.313308
892 2 0.18547 0.215189 0.0161885
893 2 0.0815586 0.450556 0.383043
894 2 0.231735 0.776223 0.438928
895 2 0.299522 0.0826615 0.409404
896 2 0.157243 0.958415 0.457332
897 2 0.566074 0.468693 0.818814
898 2 0.366929 0.377071 0.926112
899 2 0.0193985 0.873213 0.334608
900 2 0.124743 0.19182 0.0804165
901 2 0.0645276 0.869041 0.740033
902 2 0.535516 0.940802 0.0142813