 vasp.6.5.0 16Dec24 (build Jan 20 2025 08:32:48) complex                         
 executed on        HPECrayEX_GCC date 2025.07.29  01:34:06
 running  128 mpi-ranks, with    1 threads/rank, on    1 nodes
 distrk:  each k-point on  128 cores,    1 groups
 distr:  one band on NCORE=  16 cores,    8 groups


--------------------------------------------------------------------------------------------------------


 INCAR:
   SYSTEM = a-Si SPC
   NCORE = 16
   ISTART = 1
   ICHARG = 1
   ISPIN = 1
   ISYM = 1
   EDIFF = 1E-6
   NELM = 150
   EDIFFG = -0.01
   NSW = 0
   ISIF = 2
   IBRION = -1
   PREC = Accurate
   ENCUT = 1200
   KSPACING = 0.23
   KGAMMA = .TRUE.
   METAGGA = SCAN
   LASPH = .TRUE.
   LDIAG = .FALSE.
   LMIXTAU = .TRUE.
   ADDGRID = .TRUE.
   ALGO = Normal
   ISMEAR = 0
   SIGMA = 0.1
   LORBIT = 11
   NEDOS = 2000
   LWAVE = .FALSE.
   LCHARG = .FALSE.

 POTCAR:    PAW_PBE H 15Jun2001                   
 POTCAR:    PAW_PBE Si 05Jan2001                  
 POTCAR:    PAW_PBE H 15Jun2001                   
   SHA256 =  030f79b5d3ab3cf0e668861823c8fb652ff669f3e15e46930bd03bfd63a607b6 H/POTCAR              
   COPYR  = (c) Copyright 15Jun2001 Georg Kresse                                                    
   COPYR  = This file is part of the software VASP. Any use, copying, and all other rights are regul
   COPYR  = If you do not have a valid VASP license, you may not use, copy or distribute this file. 
   VRHFIN =H: ultrasoft test                                                                        
   LEXCH  = PE                                                                                      
   EATOM  =    12.4884 eV,    0.9179 Ry                                                             
                                                                                                    
   TITEL  = PAW_PBE H 15Jun2001                                                                     
   LULTRA =        F    use ultrasoft PP ?                                                          
   IUNSCR =        0    unscreen: 0-lin 1-nonlin 2-no                                               
   RPACOR =    0.000    partial core radius                                                         
   POMASS =    1.000; ZVAL   =    1.000    mass and valenz                                          
   RCORE  =    1.100    outmost cutoff radius                                                       
   RWIGS  =    0.700; RWIGS  =    0.370    wigner-seitz radius (au A)                               
   ENMAX  =  250.000; ENMIN  =  200.000 eV                                                          
   RCLOC  =    0.701    cutoff for local pot                                                        
   LCOR   =        T    correct aug charges                                                         
   LPAW   =        T    paw PP                                                                      
   EAUG   =  400.000                                                                                
   RMAX   =    1.123    core radius for proj-oper                                                   
   RAUG   =    1.200    factor for augmentation sphere                                              
   RDEP   =    1.112    radius for radial grids                                                     
   RDEPT  =    0.926    core radius for aug-charge                                                  
                                                                                                    
   Atomic configuration                                                                             
    2 entries                                                                                       
     n  l   j            E        occ.                                                              
     1  0  0.50        -6.4927   1.0000                                                             
     2  1  0.50        -3.4015   0.0000                                                             
   Description                                                                                      
     l       E           TYP  RCUT    TYP  RCUT                                                     
     0     -6.4927494     23  1.100                                                                 
     0      6.8029130     23  1.100                                                                 
     1     -4.0817478     23  1.100                                                                 
  local pseudopotential read in
  atomic valenz-charges read in
  non local Contribution for L=           0  read in
    real space projection operators read in
  non local Contribution for L=           0  read in
    real space projection operators read in
  non local Contribution for L=           1  read in
    real space projection operators read in
    PAW grid and wavefunctions read in

   number of l-projection  operators is LMAX  =           3
   number of lm-projection operators is LMMAX =           5

 POTCAR:    PAW_PBE Si 05Jan2001                  
   SHA256 =  79d9987ad8750f624c4d6acb2a16d13abf6a777132adc04dc6c8399be72b42bb Si/POTCAR             
   COPYR  = (c) Copyright 05Jan2001 Georg Kresse                                                    
   COPYR  = This file is part of the software VASP. Any use, copying, and all other rights are regul
   COPYR  = If you do not have a valid VASP license, you may not use, copy or distribute this file. 
   VRHFIN =Si: s2p2                                                                                 
   LEXCH  = PE                                                                                      
   EATOM  =   103.0669 eV,    7.5752 Ry                                                             
                                                                                                    
   TITEL  = PAW_PBE Si 05Jan2001                                                                    
   LULTRA =        F    use ultrasoft PP ?                                                          
   IUNSCR =        1    unscreen: 0-lin 1-nonlin 2-no                                               
   RPACOR =    1.500    partial core radius                                                         
   POMASS =   28.085; ZVAL   =    4.000    mass and valenz                                          
   RCORE  =    1.900    outmost cutoff radius                                                       
   RWIGS  =    2.480; RWIGS  =    1.312    wigner-seitz radius (au A)                               
   ENMAX  =  245.345; ENMIN  =  184.009 eV                                                          
   ICORE  =        2    local potential                                                             
   LCOR   =        T    correct aug charges                                                         
   LPAW   =        T    paw PP                                                                      
   EAUG   =  322.069                                                                                
   DEXC   =    0.000                                                                                
   RMAX   =    1.950    core radius for proj-oper                                                   
   RAUG   =    1.300    factor for augmentation sphere                                              
   RDEP   =    1.993    radius for radial grids                                                     
   RDEPT  =    1.837    core radius for aug-charge                                                  
                                                                                                    
   Atomic configuration                                                                             
    6 entries                                                                                       
     n  l   j            E        occ.                                                              
     1  0  0.50     -1785.8828   2.0000                                                             
     2  0  0.50      -139.4969   2.0000                                                             
     2  1  1.50       -95.5546   6.0000                                                             
     3  0  0.50       -10.8127   2.0000                                                             
     3  1  0.50        -4.0811   2.0000                                                             
     3  2  1.50        -4.0817   0.0000                                                             
   Description                                                                                      
     l       E           TYP  RCUT    TYP  RCUT                                                     
     0    -10.8127223     23  1.900                                                                 
     0     -7.6451159     23  1.900                                                                 
     1     -4.0811372     23  1.900                                                                 
     1      2.4879257     23  1.900                                                                 
     2     -4.0817478      7  1.900                                                                 
  local pseudopotential read in
  partial core-charges read in
  partial kinetic energy density read in
  atomic valenz-charges read in
  non local Contribution for L=           0  read in
    real space projection operators read in
  non local Contribution for L=           0  read in
    real space projection operators read in
  non local Contribution for L=           1  read in
    real space projection operators read in
  non local Contribution for L=           1  read in
    real space projection operators read in
    PAW grid and wavefunctions read in

   number of l-projection  operators is LMAX  =           4
   number of lm-projection operators is LMMAX =           8

 -----------------------------------------------------------------------------
|                                                                             |
|               ----> ADVICE to this user running VASP <----                  |
|                                                                             |
|     You have a (more or less) 'large supercell' and for larger cells it     |
|     might be more efficient to use real-space projection operators.         |
|     Therefore, try LREAL= Auto in the INCAR file.                           |
|     Mind: For very accurate calculation, you might also keep the            |
|     reciprocal projection scheme (i.e. LREAL=.FALSE.).                      |
|                                                                             |
 -----------------------------------------------------------------------------

 -----------------------------------------------------------------------------
|                                                                             |
|               ----> ADVICE to this user running VASP <----                  |
|                                                                             |
|     You enforced a specific xc type in the INCAR file but a different       |
|     type was found in the POTCAR file.                                      |
|     I HOPE YOU KNOW WHAT YOU ARE DOING!                                     |
|                                                                             |
 -----------------------------------------------------------------------------

  PAW_PBE H 15Jun2001                   :
 energy of atom  1       EATOM=  -12.4884
 kinetic energy error for atom=    0.0000 (will be added to EATOM!!)
  PAW_PBE Si 05Jan2001                  :
 energy of atom  2       EATOM= -103.0669
 kinetic energy error for atom=    0.0001 (will be added to EATOM!!)


 POSCAR:  H Si
  positions in cartesian coordinates
  No initial velocities read in


 exchange-correlation table for SCAN
   RHO(1)=    0.500       N(1)  =     2000
   RHO(2)=  100.500       N(2)  =     4000



--------------------------------------------------------------------------------------------------------


 ion  position               nearest neighbor table
   1  0.017  0.557  0.353-  86 1.48
   2  0.015  0.497  0.435-  86 1.65  13 1.71
   3  0.555  0.430  0.335-  80 1.49
   4  0.011  0.238  0.357-  41 1.49
   5  0.556  0.103  0.659-  78 1.47
   6  0.624  0.370  0.628-  45 2.28  32 2.37  73 2.39
   7  0.741  0.795  0.511-  50 2.29  58 2.30  75 2.31  26 2.31
   8  0.197  0.172  0.620-  47 2.26  48 2.32  69 2.37
   9  0.114  0.669  0.439-  77 2.28  86 2.34  79 2.34  83 2.39
  10  0.535  0.473  0.448-  31 2.35  80 2.36  23 2.37  21 2.38
  11  0.748  0.251  0.398-  14 2.28  37 2.29  15 2.30  80 3.11
  12  0.488  0.907  0.455-  74 2.42  60 2.42  64 2.42  20 2.50
  13  0.945  0.457  0.480-   2 1.71  72 2.29  82 2.31  70 2.37
  14  0.762  0.399  0.373-  11 2.28  72 2.31  80 2.38
  15  0.852  0.135  0.413-  11 2.30  68 2.35  52 2.41  41 2.42
  16  0.364  0.327  0.548-  47 2.32  73 2.36  49 2.36  39 2.37
  17  0.453  0.551  0.579-  61 2.34  73 2.35  44 2.39  76 2.41
  18  0.917  0.658  0.570-  66 2.28  22 2.29  70 2.32  58 2.33
  19  0.757  0.609  0.443-  72 2.33  58 2.34  23 2.34  36 2.36
  20  0.493  0.737  0.447-  88 2.28  23 2.39  12 2.50  76 2.66
  21  0.373  0.492  0.439-  88 2.38  10 2.38  56 2.40  49 2.41
  22  0.829  0.713  0.632-  18 2.29  63 2.38  28 2.41
  23  0.602  0.618  0.464-  26 2.32  19 2.34  10 2.37  20 2.39
  24  0.809  0.249  0.546-  68 2.35  29 2.35  45 2.35  89 2.38
  25  0.231  0.876  0.467-  77 2.33  60 2.33  59 2.36  65 2.41
  26  0.638  0.685  0.538-   7 2.31  23 2.32  43 2.32  63 2.34  44 2.72
  27  0.123  0.055  0.382-  40 2.32  59 2.33  41 2.39
  28  0.857  0.876  0.629-  50 2.32  22 2.41  85 2.60
  29  0.957  0.274  0.577-  82 2.34  24 2.35  35 2.44  69 2.52
  30  0.857  0.908  0.400-  54 2.33  46 2.34  52 2.34  75 2.36  36 3.00
  31  0.584  0.361  0.504-  73 2.32  89 2.32  10 2.35  38 2.36
  32  0.746  0.457  0.595-   6 2.37  89 2.40  63 2.42  35 2.43
  33  0.181  0.420  0.375-  62 2.31  86 2.31  56 2.35
  34  0.653  0.081  0.491-  51 2.34  74 2.35  68 2.36  38 2.39
  35  0.900  0.411  0.617-  70 2.31  32 2.43  29 2.44
  36  0.769  0.724  0.384-  46 2.36  19 2.36  75 2.38  30 3.00
  37  0.591  0.238  0.394-  11 2.29  38 2.37  80 2.38
  38  0.556  0.211  0.476-  31 2.36  37 2.37  39 2.38  34 2.39
  39  0.396  0.210  0.492-  16 2.37  42 2.37  67 2.38  38 2.38
  40  0.275  0.095  0.396-  27 2.32  67 2.35  60 2.37
  41  0.011  0.171  0.397-   4 1.49  53 2.35  27 2.39  15 2.42
  42  0.305  0.082  0.514-  39 2.37  60 2.39  71 2.45  81 2.46  48 2.54
  43  0.506  0.759  0.563-  26 2.32  64 2.33  76 2.34  44 2.36
  44  0.551  0.653  0.623-  43 2.36  63 2.38  17 2.39  26 2.72
  45  0.691  0.237  0.602-  78 2.24   6 2.28  24 2.35
  46  0.920  0.773  0.368-  30 2.34  36 2.36  83 2.51
  47  0.245  0.316  0.603-   8 2.26  90 2.32  16 2.32
  48  0.339  0.106  0.603-  81 2.28   8 2.32  42 2.54
  49  0.276  0.423  0.498-  62 2.36  16 2.36  21 2.41  84 2.53
  50  0.762  0.912  0.565-   7 2.29  28 2.32  87 2.33  51 2.36
  51  0.626  1.000  0.562-  78 2.29  34 2.34  64 2.35  50 2.36
  52  0.758  0.023  0.372-  30 2.34  15 2.41  74 2.51  75 3.12
  53  0.090  0.228  0.464-  62 2.30  82 2.31  41 2.35  71 2.36
  54  0.960  0.918  0.463-  30 2.33  59 2.34  87 2.36  83 2.37
  55  0.266  0.693  0.558-  76 2.31  79 2.33  61 2.34  65 2.38
  56  0.339  0.389  0.374-  33 2.35  21 2.40  67 2.44  62 2.84
  57  0.090  0.868  0.580-  66 2.27  65 2.31  85 2.32
  58  0.855  0.690  0.494-   7 2.30  18 2.33  19 2.34  83 2.34  66 3.05
  59  0.108  0.979  0.456-  27 2.33  54 2.34  25 2.36  71 2.39
  60  0.342  0.985  0.448-  25 2.33  40 2.37  42 2.39  12 2.42
  61  0.305  0.572  0.609-  90 2.34  55 2.34  17 2.34
  62  0.206  0.326  0.441-  53 2.30  33 2.31  67 2.31  49 2.36  56 2.84
  63  0.707  0.617  0.605-  26 2.34  22 2.38  44 2.38  32 2.42
  64  0.495  0.913  0.542-  43 2.33  81 2.35  51 2.35  12 2.42
  65  0.239  0.854  0.553-  57 2.31  81 2.35  55 2.38  25 2.41
  66  0.038  0.741  0.541-  57 2.27  18 2.28  79 2.34  83 2.63  58 3.05
  67  0.332  0.242  0.415-  62 2.31  40 2.35  39 2.38  56 2.44
  68  0.810  0.120  0.494-  24 2.35  15 2.35  34 2.36  87 2.37
  69  0.055  0.132  0.585-   8 2.37  85 2.43  71 2.43  29 2.52
  70  0.964  0.507  0.561-  35 2.31  18 2.32  13 2.37  84 2.56  82 2.92
  71  0.138  0.101  0.511-  53 2.36  59 2.39  69 2.43  42 2.45
  72  0.800  0.455  0.448-  13 2.29  14 2.31  19 2.33  89 2.35
  73  0.502  0.398  0.573-  31 2.32  17 2.35  16 2.36   6 2.39
  74  0.629  0.977  0.427-  75 2.31  34 2.35  12 2.42  52 2.51
  75  0.721  0.848  0.434-   7 2.31  74 2.31  30 2.36  36 2.38  52 3.12
  76  0.405  0.663  0.521-  55 2.31  43 2.34  88 2.40  17 2.41  20 2.66
  77  0.240  0.751  0.415-   9 2.28  25 2.33  88 2.34
  78  0.633  0.100  0.625-   5 1.47  45 2.24  51 2.29
  79  0.142  0.627  0.518-  55 2.33   9 2.34  66 2.34  84 2.40
  80  0.599  0.400  0.381-   3 1.49  10 2.36  14 2.38  37 2.38  11 3.11
  81  0.352  0.962  0.572-  48 2.28  64 2.35  65 2.35  42 2.46
  82  0.035  0.343  0.513-  13 2.31  53 2.31  29 2.34  84 2.49  70 2.92
  83  0.978  0.757  0.453-  58 2.34  54 2.37   9 2.39  46 2.51  66 2.63
  84  0.133  0.470  0.544-  90 2.33  79 2.40  82 2.49  49 2.53  70 2.56
  85  0.982  0.983  0.594-  57 2.32  87 2.34  69 2.43  28 2.60
  86  0.082  0.539  0.393-   1 1.48   2 1.65  33 2.31   9 2.34
  87  0.883  0.990  0.528-  50 2.33  85 2.34  54 2.36  68 2.37
  88  0.360  0.655  0.438-  20 2.28  77 2.34  21 2.38  76 2.40
  89  0.740  0.386  0.517-  31 2.32  72 2.35  24 2.38  32 2.40
  90  0.191  0.461  0.622-  47 2.32  84 2.33  61 2.34

  LATTYP: Found a simple tetragonal cell.
 ALAT       =    14.5584376764
 C/A-ratio  =     1.9142024796
  
  Lattice vectors:
  
 A1 = (  14.5584376764,   0.0000000000,   0.0000000000)
 A2 = (   0.0000000000,  14.5584376764,   0.0000000000)
 A3 = (   0.0000000000,   0.0000000000,  27.8677975000)


Analysis of symmetry for initial positions (statically):
=====================================================================
 Subroutine PRICEL returns:
 Original cell was already a primitive cell.
 

 Routine SETGRP: Setting up the symmetry group for a 
 simple tetragonal supercell.


 Subroutine GETGRP returns: Found  1 space group operations
 (whereof  1 operations were pure point group operations)
 out of a pool of 16 trial point group operations.


The static configuration has the point symmetry C_1 .


Analysis of symmetry for dynamics (positions and initial velocities):
=====================================================================
 Subroutine PRICEL returns:
 Original cell was already a primitive cell.
 

 Routine SETGRP: Setting up the symmetry group for a 
 simple tetragonal supercell.


 Subroutine GETGRP returns: Found  1 space group operations
 (whereof  1 operations were pure point group operations)
 out of a pool of 16 trial point group operations.


The dynamic configuration has the point symmetry C_1 .


 Subroutine INISYM returns: Found  1 space group operations
 (whereof  1 operations are pure point group operations),
 and found     1 'primitive' translations


----------------------------------------------------------------------------------------

                                     Primitive cell                                     

  volume of cell :    5906.5269

  direct lattice vectors                    reciprocal lattice vectors
    14.558437676  0.000000000  0.000000000     0.068688689  0.000000000  0.000000000
     0.000000000 14.558437676  0.000000000     0.000000000  0.068688689  0.000000000
     0.000000000  0.000000000 27.867797500     0.000000000  0.000000000  0.035883711

  length of vectors
    14.558437676 14.558437676 27.867797500     0.068688689  0.068688689  0.035883711

  position of ions in fractional coordinates (direct lattice)
     0.017124366  0.556734493  0.353071062
     0.014824600  0.496892787  0.435453317
     0.555230778  0.429986219  0.335145188
     0.010937089  0.238412349  0.356788474
     0.556184196  0.102618291  0.658814002
     0.624392381  0.369525584  0.628289850
     0.740864846  0.794555684  0.511214346
     0.196962956  0.171630021  0.620283548
     0.114435451  0.669124152  0.438647648
     0.534936383  0.472571812  0.448387474
     0.747721847  0.250597791  0.398403738
     0.488456597  0.907286627  0.455326427
     0.944930175  0.457043514  0.480205514
     0.762289647  0.398758470  0.372576377
     0.851666661  0.135100562  0.413327732
     0.364225981  0.326592092  0.548367107
     0.453305815  0.551008640  0.579475538
     0.916546186  0.657903448  0.569786793
     0.756804089  0.608753512  0.443487564
     0.492874791  0.736623050  0.446744259
     0.373351409  0.492097918  0.438707530
     0.828674086  0.712884538  0.631564938
     0.601535100  0.618025064  0.464480146
     0.809466748  0.248586430  0.545584499
     0.230830263  0.876091117  0.466747155
     0.638098025  0.684575179  0.537694258
     0.123160887  0.054527850  0.382372277
     0.856649943  0.875801396  0.629042047
     0.956946922  0.273765023  0.577088413
     0.857230848  0.908170545  0.399713142
     0.583745132  0.361347721  0.503854925
     0.745885381  0.456566354  0.594683323
     0.181176889  0.420033069  0.375388565
     0.653056980  0.081278282  0.490762819
     0.900303038  0.410954504  0.617430125
     0.769048153  0.724228755  0.384377001
     0.591134694  0.238372679  0.393587340
     0.556437709  0.210751289  0.475536411
     0.396168862  0.209735540  0.491786465
     0.274624611  0.095497671  0.396355465
     0.010741336  0.170852588  0.396813613
     0.305154937  0.082101249  0.514152196
     0.505888409  0.759020919  0.563464799
     0.551497884  0.652823523  0.622742869
     0.690774443  0.236532780  0.602331205
     0.920194997  0.773170945  0.368275683
     0.245024545  0.315916307  0.603402449
     0.338775919  0.106406641  0.602849213
     0.275592895  0.423054735  0.498259387
     0.762051989  0.911841750  0.564620358
     0.626016216  0.999779149  0.561715490
     0.757651145  0.023330602  0.372434948
     0.090347293  0.228118629  0.464009700
     0.960493208  0.917605233  0.463395845
     0.266464171  0.693378501  0.558199000
     0.339411791  0.389216017  0.373829330
     0.089928245  0.868419138  0.579842443
     0.855226881  0.690016874  0.494338825
     0.107939898  0.979225569  0.455685498
     0.342387497  0.984994600  0.447584159
     0.304560287  0.571823991  0.609128367
     0.206287377  0.326319562  0.440788181
     0.707334673  0.616882892  0.604545868
     0.495277950  0.913385348  0.542109052
     0.238888609  0.853966207  0.552525537
     0.037563240  0.741003143  0.541378854
     0.331676968  0.241891744  0.415294566
     0.810282701  0.120445248  0.494438270
     0.054974240  0.131932158  0.584610634
     0.964202327  0.507172371  0.560546990
     0.138089907  0.101464690  0.510590512
     0.800187353  0.455198098  0.447668347
     0.502170251  0.397891896  0.572893770
     0.629134363  0.977124199  0.427413518
     0.721201285  0.848427372  0.433983208
     0.405378714  0.663059748  0.521094436
     0.239697941  0.751111220  0.414989124
     0.633388244  0.100386978  0.624641658
     0.142232305  0.627213253  0.518351785
     0.599339858  0.400000024  0.380586105
     0.352494444  0.962409776  0.571519367
     0.034886397  0.343031777  0.513364776
     0.977916432  0.756865369  0.452618305
     0.133296260  0.470223465  0.544195051
     0.982301359  0.983029104  0.593894072
     0.081818253  0.538761737  0.392894859
     0.883074516  0.989652950  0.527704992
     0.360052454  0.654712735  0.438455728
     0.739570820  0.386011811  0.516777423
     0.191058943  0.461290973  0.622191897

  ion indices of the primitive-cell ions
   primitive index   ion index
                 1           1
                 2           2
                 3           3
                 4           4
                 5           5
                 6           6
                 7           7
                 8           8
                 9           9
                10          10
                11          11
                12          12
                13          13
                14          14
                15          15
                16          16
                17          17
                18          18
                19          19
                20          20
                21          21
                22          22
                23          23
                24          24
                25          25
                26          26
                27          27
                28          28
                29          29
                30          30
                31          31
                32          32
                33          33
                34          34
                35          35
                36          36
                37          37
                38          38
                39          39
                40          40
                41          41
                42          42
                43          43
                44          44
                45          45
                46          46
                47          47
                48          48
                49          49
                50          50
                51          51
                52          52
                53          53
                54          54
                55          55
                56          56
                57          57
                58          58
                59          59
                60          60
                61          61
                62          62
                63          63
                64          64
                65          65
                66          66
                67          67
                68          68
                69          69
                70          70
                71          71
                72          72
                73          73
                74          74
                75          75
                76          76
                77          77
                78          78
                79          79
                80          80
                81          81
                82          82
                83          83
                84          84
                85          85
                86          86
                87          87
                88          88
                89          89
                90          90

----------------------------------------------------------------------------------------


 -----------------------------------------------------------------------------
|                                                                             |
|           W    W    AA    RRRRR   N    N  II  N    N   GGGG   !!!           |
|           W    W   A  A   R    R  NN   N  II  NN   N  G    G  !!!           |
|           W    W  A    A  R    R  N N  N  II  N N  N  G       !!!           |
|           W WW W  AAAAAA  RRRRR   N  N N  II  N  N N  G  GGG   !            |
|           WW  WW  A    A  R   R   N   NN  II  N   NN  G    G                |
|           W    W  A    A  R    R  N    N  II  N    N   GGGG   !!!           |
|                                                                             |
|     The requested file  could not be found or opened for reading            |
|     k-point information. Automatic k-point generation is used as a          |
|     fallback, which may lead to unwanted results.                           |
|                                                                             |
 -----------------------------------------------------------------------------



Automatic generation of k-mesh.
 Grid dimensions derived from KSPACING:
 generate k-points for:    2    2    1

 Generating k-lattice:

  Cartesian coordinates                     Fractional coordinates (reciprocal lattice)
     0.034344345  0.000000000  0.000000000     0.500000000  0.000000000  0.000000000
     0.000000000  0.034344345  0.000000000     0.000000000  0.500000000  0.000000000
     0.000000000  0.000000000  0.035883711     0.000000000  0.000000000  1.000000000

  Length of vectors
     0.034344345  0.034344345  0.035883711

  Shift w.r.t. Gamma in fractional coordinates (k-lattice)
     0.000000000  0.000000000  0.000000000

 
 Subroutine IBZKPT returns following result:
 ===========================================
 
 Found      4 irreducible k-points:
 
 Following reciprocal coordinates:
            Coordinates               Weight
  0.000000  0.000000  0.000000      1.000000
  0.500000  0.000000  0.000000      1.000000
  0.000000  0.500000  0.000000      1.000000
  0.500000  0.500000  0.000000      1.000000
 
 Following cartesian coordinates:
            Coordinates               Weight
  0.000000  0.000000  0.000000      1.000000
  0.034344  0.000000  0.000000      1.000000
  0.000000  0.034344  0.000000      1.000000
  0.034344  0.034344  0.000000      1.000000
 


--------------------------------------------------------------------------------------------------------




 Dimension of arrays:
   k-points           NKPTS =      4   k-points in BZ     NKDIM =      4   number of bands    NBANDS=    224
   number of dos      NEDOS =   2000   number of ions     NIONS =     90
   non local maximal  LDIM  =      4   non local SUM 2l+1 LMDIM =      8
   total plane-waves  NPLWV = ******
   max r-space proj   IRMAX =      1   max aug-charges    IRDMAX= 409155
   dimension x,y,z NGX =   168 NGY =  168 NGZ =  320
   dimension x,y,z NGXF=   336 NGYF=  336 NGZF=  640
   support grid    NGXF=   672 NGYF=  672 NGZF= 1280
   ions per type =               5  85
   NGX,Y,Z   is equivalent  to a cutoff of  19.18, 19.18, 19.09 a.u.
   NGXF,Y,Z  is equivalent  to a cutoff of  38.37, 38.37, 38.18 a.u.

 SYSTEM =  a-Si SPC                                
 POSCAR =   H Si                                   

 Startparameter for this run:
   NWRITE =      2    write-flag & timer
   PREC   = accura    normal or accurate (medium, high low for compatibility)
   ISTART =      1    job   : 0-new  1-cont  2-samecut
   ICHARG =      1    charge: 1-file 2-atom 10-const
   ISPIN  =      1    spin polarized calculation?
   LNONCOLLINEAR =      F non collinear calculations
   LSORBIT =      F    spin-orbit coupling
   INIWAV =      1    electr: 0-lowe 1-rand  2-diag
   LASPH  =      T    aspherical Exc in radial PAW
 Electronic Relaxation 1
   ENCUT  = 1200.0 eV  88.20 Ry    9.39 a.u.  41.12 41.12 78.71*2*pi/ulx,y,z
   ENINI  = 1200.0     initial cutoff
   ENAUG  =  400.0 eV  augmentation charge cutoff
   NELM   =    150;   NELMIN=  2; NELMDL=  0     # of ELM steps 
   EDIFF  = 0.1E-05   stopping-criterion for ELM
   LREAL  =      F    real-space projection
   NLSPLINE    = F    spline interpolate recip. space projectors
   LCOMPAT=      F    compatible to vasp.4.4
   GGA_COMPAT  = T    GGA compatible to vasp.4.4-vasp.4.6
   LMAXPAW     = -100 max onsite density
   LMAXMIX     =    2 max onsite mixed and CHGCAR
   VOSKOWN=      0    Vosko Wilk Nusair interpolation
   ROPT   =    0.00000   0.00000
 Ionic relaxation
   EDIFFG = -.1E-01   stopping-criterion for IOM
   NSW    =      0    number of steps for IOM
   NBLOCK =      1;   KBLOCK =      1    inner block; outer block 
   IBRION =     -1    ionic relax: 0-MD 1-quasi-New 2-CG
   NFREE  =      0    steps in history (QN), initial steepest desc. (CG)
   ISIF   =      2    stress and relaxation
   IWAVPR =     10    prediction:  0-non 1-charg 2-wave 3-comb
   ISYM   =      1    0-nonsym 1-usesym 2-fastsym
   LCORR  =      T    Harris-Foulkes like correction to forces

   POTIM  = 0.5000    time-step for ionic-motion
   TEIN   =    0.0    initial temperature
   TEBEG  =    0.0;   TEEND  =   0.0 temperature during run
   SMASS  =  -3.00    Nose mass-parameter (am)
   estimated Nose-frequenzy (Omega)   =  0.10E-29 period in steps = 0.13E+47 mass=  -0.484E-26a.u.
   SCALEE = 1.0000    scale energy and forces
   NPACO  =    256;   APACO  = 10.0  distance and # of slots for P.C.
   PSTRESS=    0.0 pullay stress

  Mass of Ions in am
   POMASS =   1.00 28.09
  Ionic Valenz
   ZVAL   =   1.00  4.00
  Atomic Wigner-Seitz radii
   RWIGS  =  -1.00 -1.00
  virtual crystal weights 
   VCA    =   1.00  1.00
   NELECT =     345.0000    total number of electrons
   NUPDOWN=      -1.0000    fix difference up-down

 DOS related values:
   EMIN   =  10.00;   EMAX   =-10.00  energy-range for DOS
   EFERMI =   0.00;   METHOD = LEGACY      
   ISMEAR =     0;   SIGMA  =   0.10  broadening in eV -4-tet -1-fermi 0-gaus
   EFERMI_NEDOS =   21; number of points for ismear=-14 and -15

 Electronic relaxation 2 (details)
   IALGO  =     38    algorithm
   LDIAG  =      F    sub-space diagonalisation (order eigenvalues)
   LSUBROT=      F    optimize rotation matrix (better conditioning)
   TURBO    =      0    0=normal 1=particle mesh
   IRESTART =      0    0=no restart 2=restart with 2 vectors
   NREBOOT  =      0    no. of reboots
   NMIN     =      0    reboot dimension
   EREF     =   0.00    reference energy to select bands
   IMIX   =      4    mixing-type and parameters
     AMIX     =   0.40;   BMIX     =  1.00
     AMIX_MAG =   1.60;   BMIX_MAG =  1.00
     AMIN     =   0.10
     WC   =   100.;   INIMIX=   1;  MIXPRE=   1;  MAXMIX= -45

 Intra band minimization:
   WEIMIN = 0.0000     energy-eigenvalue tresh-hold
   EBREAK =  0.11E-08  absolut break condition
   DEPER  =   0.30     relativ break condition  

   TIME   =   0.40     timestep for ELM

  volume/ion in A,a.u.               =      65.63       442.88
  Fermi-wavevector in a.u.,A,eV,Ry     =   0.635190  1.200335  5.489496  0.403467
  Thomas-Fermi vector in A             =   1.699440

 Write flags
   LWAVE        =      F    write WAVECAR
   LDOWNSAMPLE  =      F    k-point downsampling of WAVECAR
   LCHARG       =      F    write CHGCAR
   LVTOT        =      F    write LOCPOT, total local potential
   LVHAR        =      F    write LOCPOT, Hartree potential only
   WRT_POTENTIAL= false  ! write potential to hdf5 file
   LELF         =      F    write electronic localiz. function (ELF)
   LORBIT       =     11    0 simple, 1 ext, 2 COOP (PROOUT), +10 PAW based schemes


 Python interface
   PLUGINS active      =      F    recompile with -DPLUGINS to activate

 Dipole corrections
   LMONO      =      F    monopole corrections only (constant potential shift)
   LDIPOL     =      F    correct potential (dipole corrections)
   IDIPOL     =      0    1-x, 2-y, 3-z, 4-all directions 
   EPSILON    =  1.0000000 bulk dielectric constant
   LVACPOTAV  =      F  vacuum potentials using an averaging scheme for the charge density
   VACPOTFLAT =  0.1000000 required flatness to determine vacuum potential

Coulomb truncation method
  LTRUNCATE          =      F  Coulomb kernel truncation to be used
  IDIMENSIONALITY    =      3  Dimensionality of cutoff (0 molecules / 2 surfaces)
  ISURFACE           =     -1  Direction of surface normal
  LCOARSEN           =      F  Coarsen the charge grid before padding, preferred


 Exchange correlation treatment:
   METAGGA = SCAN    functional components
   XC_C    = 1    coefficients multiplying the functional components
   LIBXC   =     F    Libxc                    
   VOSKOWN =     0    Vosko Wilk Nusair interpolation
   LHFCALC =     F    Hartree Fock is set to
   LHFONE  =     F    Hartree Fock one center treatment
   AEXX    =    0.0000 exact exchange contribution

 Parameters of functionals:
   SCAN:
     P1 =  0.000000E+00
     P2 =  0.000000E+00
     P3 =  0.000000E+00

 Accuracy and mixing parameters for tau-dependent meta-GGA functionals:
   LMAXTAU = 6
   LMIXTAU = T

 Van der Waals corrections
   IVDW    =     0    specifies the selected vdW correction

 Linear response parameters
   LEPSILON=     F    determine dielectric tensor
   LRPA    =     F    only Hartree local field effects (RPA)
   LNABLA  =     F    use nabla operator in PAW spheres
   LVEL    =     F    velocity operator in full k-point grid
   CSHIFT  =0.1000    complex shift for real part using Kramers Kronig
   OMEGAMAX=  -1.0    maximum frequency
   DEG_THRESHOLD= 0.2000000E-02 threshold for treating states as degnerate
   RTIME   =   -0.100 relaxation time in fs
  (WPLASMAI=    0.000 imaginary part of plasma frequency in eV, 0.658/RTIME)
   DFIELD  = 0.0000000 0.0000000 0.0000000 field for delta impulse in time

  Optional k-point grid parameters
   LKPOINTS_OPT  =     F    use optional k-point grid
   KPOINTS_OPT_MODE=     1    mode for optional k-point grid

 Orbital magnetization related:
   ORBITALMAG=     F  switch on orbital magnetization
   LCHIMAG   =     F  perturbation theory with respect to B field
   DQ        =  0.001000  dq finite difference perturbation B field
   LLRAUG    =     F  two centre corrections for induced B field
   LBONE     =     F  B-component reconstruction in AE one-centre
   LVGVCALC  =     T  calculate vGv susceptibility
   LVGVAPPL  =     F  apply vGv susceptibility instead of pGv for G=0

 Random number generation:
   RANDOM_GENERATOR = DEFAULT
   PCG_SEED         = not used


--------------------------------------------------------------------------------------------------------


 Static calculation
 charge density and potential will be updated during run
 non-spin polarized calculation
 Variant of blocked Davidson
 perform Loewdin sub-space diagonalisation
    ordering is kept fixed
    before iterative eigenvector-optimisation
 modified Broyden-mixing scheme, WC =      100.0
 initial mixing is a Kerker type mixing with AMIX =  0.4000 and BMIX =      1.0000
 Hartree-type preconditioning will be used
 using additional bands           51
 reciprocal scheme for non local part
 use partial core corrections
 calculate Harris-corrections to forces   (improved forces if not selfconsistent)
 use gradient corrections 
 use of overlap-Matrix (Vanderbilt PP)
 Gauss-broadening in eV      SIGMA  =   0.10


--------------------------------------------------------------------------------------------------------


  energy-cutoff  :     1200.00
  volume of cell :     5906.53
      direct lattice vectors                 reciprocal lattice vectors
    14.558437676  0.000000000  0.000000000     0.068688689  0.000000000  0.000000000
     0.000000000 14.558437676  0.000000000     0.000000000  0.068688689  0.000000000
     0.000000000  0.000000000 27.867797500     0.000000000  0.000000000  0.035883711

  length of vectors
    14.558437676 14.558437676 27.867797500     0.068688689  0.068688689  0.035883711



 old parameters found on file WAVECAR:
  energy-cutoff  :     1200.00
  volume of cell :     5906.53
      direct lattice vectors                 reciprocal lattice vectors
    14.558437676  0.000000000  0.000000000     0.068688689  0.000000000  0.000000000
     0.000000000 14.558437676  0.000000000     0.000000000  0.068688689  0.000000000
     0.000000000  0.000000000 27.867797500     0.000000000  0.000000000  0.035883711

  length of vectors


 k-points in units of 2pi/SCALE and weight: read from INCAR                         
   0.00000000  0.00000000  0.00000000       0.250
   0.03434434  0.00000000  0.00000000       0.250
   0.00000000  0.03434434  0.00000000       0.250
   0.03434434  0.03434434  0.00000000       0.250

 k-points in reciprocal lattice and weights: read from INCAR                         
   0.00000000  0.00000000  0.00000000       0.250
   0.50000000  0.00000000  0.00000000       0.250
   0.00000000  0.50000000  0.00000000       0.250
   0.50000000  0.50000000  0.00000000       0.250

 position of ions in fractional coordinates (direct lattice) 
   0.01712437  0.55673449  0.35307106
   0.01482460  0.49689279  0.43545332
   0.55523078  0.42998622  0.33514519
   0.01093709  0.23841235  0.35678847
   0.55618420  0.10261829  0.65881400
   0.62439238  0.36952558  0.62828985
   0.74086485  0.79455568  0.51121435
   0.19696296  0.17163002  0.62028355
   0.11443545  0.66912415  0.43864765
   0.53493638  0.47257181  0.44838747
   0.74772185  0.25059779  0.39840374
   0.48845660  0.90728663  0.45532643
   0.94493017  0.45704351  0.48020551
   0.76228965  0.39875847  0.37257638
   0.85166666  0.13510056  0.41332773
   0.36422598  0.32659209  0.54836711
   0.45330582  0.55100864  0.57947554
   0.91654619  0.65790345  0.56978679
   0.75680409  0.60875351  0.44348756
   0.49287479  0.73662305  0.44674426
   0.37335141  0.49209792  0.43870753
   0.82867409  0.71288454  0.63156494
   0.60153510  0.61802506  0.46448015
   0.80946675  0.24858643  0.54558450
   0.23083026  0.87609112  0.46674716
   0.63809803  0.68457518  0.53769426
   0.12316089  0.05452785  0.38237228
   0.85664994  0.87580140  0.62904205
   0.95694692  0.27376502  0.57708841
   0.85723085  0.90817055  0.39971314
   0.58374513  0.36134772  0.50385492
   0.74588538  0.45656635  0.59468332
   0.18117689  0.42003307  0.37538856
   0.65305698  0.08127828  0.49076282
   0.90030304  0.41095450  0.61743013
   0.76904815  0.72422876  0.38437700
   0.59113469  0.23837268  0.39358734
   0.55643771  0.21075129  0.47553641
   0.39616886  0.20973554  0.49178646
   0.27462461  0.09549767  0.39635547
   0.01074134  0.17085259  0.39681361
   0.30515494  0.08210125  0.51415220
   0.50588841  0.75902092  0.56346480
   0.55149788  0.65282352  0.62274287
   0.69077444  0.23653278  0.60233121
   0.92019500  0.77317095  0.36827568
   0.24502455  0.31591631  0.60340245
   0.33877592  0.10640664  0.60284921
   0.27559289  0.42305473  0.49825939
   0.76205199  0.91184175  0.56462036
   0.62601622  0.99977915  0.56171549
   0.75765114  0.02333060  0.37243495
   0.09034729  0.22811863  0.46400970
   0.96049321  0.91760523  0.46339584
   0.26646417  0.69337850  0.55819900
   0.33941179  0.38921602  0.37382933
   0.08992824  0.86841914  0.57984244
   0.85522688  0.69001687  0.49433883
   0.10793990  0.97922557  0.45568550
   0.34238750  0.98499460  0.44758416
   0.30456029  0.57182399  0.60912837
   0.20628738  0.32631956  0.44078818
   0.70733467  0.61688289  0.60454587
   0.49527795  0.91338535  0.54210905
   0.23888861  0.85396621  0.55252554
   0.03756324  0.74100314  0.54137885
   0.33167697  0.24189174  0.41529457
   0.81028270  0.12044525  0.49443827
   0.05497424  0.13193216  0.58461063
   0.96420233  0.50717237  0.56054699
   0.13808991  0.10146469  0.51059051
   0.80018735  0.45519810  0.44766835
   0.50217025  0.39789190  0.57289377
   0.62913436  0.97712420  0.42741352
   0.72120129  0.84842737  0.43398321
   0.40537871  0.66305975  0.52109444
   0.23969794  0.75111122  0.41498912
   0.63338824  0.10038698  0.62464166
   0.14223231  0.62721325  0.51835179
   0.59933986  0.40000002  0.38058611
   0.35249444  0.96240978  0.57151937
   0.03488640  0.34303178  0.51336478
   0.97791643  0.75686537  0.45261831
   0.13329626  0.47022347  0.54419505
   0.98230136  0.98302910  0.59389407
   0.08181825  0.53876174  0.39289486
   0.88307452  0.98965295  0.52770499
   0.36005245  0.65471274  0.43845573
   0.73957082  0.38601181  0.51677742
   0.19105894  0.46129097  0.62219190

 position of ions in cartesian coordinates  (Angst):
   0.24930402  8.10518442  9.83931285
   0.21582302  7.23398267 12.13512485
   8.08329268  6.25992757  9.33975823
   0.15922693  3.47091133  9.94290895
   8.09717296  1.49396199 18.35969519
   9.09017757  5.37971518 17.50905432
  10.78583468 11.56748941 14.24641788
   2.86747292  2.49866497 17.28593631
   1.66600138  9.74140226 12.22414383
   7.78783800  6.87990727 12.49557132
  10.88566191  3.64831232 11.10263470
   7.11116493 13.20867582 12.68894466
  13.75670706  6.65383952 13.38227001
  11.09774631  5.80530034 10.38288302
  12.39893601  1.96685311 11.51853355
   5.30256124  4.75467062 15.28178349
   6.59942446  8.02182495 16.14870695
  13.34348053  9.57804635 15.87870296
  11.01788517  8.86250006 12.35902162
   7.17548692 10.72408076 12.44977855
   5.43541322  7.16417687 12.22581260
  12.06420003 10.37848512 17.60032381
   8.75741126  8.99747938 12.94403864
  11.78457120  3.61903005 15.20423835
   3.36052800 12.75451792 13.00721520
   9.28971033  9.96634508 14.98435471
   1.79303010  0.79384030 10.65587319
  12.47148481 12.75030004 17.53001638
  13.93165213  3.98559103 16.08218302
  12.47994188 13.22154428 11.13912491
   8.49841712  5.26065827 14.04132701
  10.85892583  6.64689281 16.57251441
   2.63765244  6.11502525 10.46125250
   9.50748934  1.18328481 13.67647885
  13.10700567  5.98285553 17.20641770
  11.19613960 10.54363920 10.71174042
   8.60599760  3.47033379 10.96841229
   8.10086371  3.06820950 13.25215240
   5.76759968  3.05342179 13.70500561
   3.99810528  1.39029689 11.04555384
   0.15637706  2.48734675 11.05832142
   4.44257913  1.19526592 14.32828929
   7.36494488 11.05015874 15.70252293
   8.02894758  9.50409058 17.35447218
  10.05659668  3.44354773 16.78564405
  13.39660152 11.25616102 10.26303215
   3.56717457  4.59924787 16.81549725
   4.93204810  1.54911445 16.80007978
   4.01220198  6.15901599 13.88539169
  11.09428639 13.27499129 15.73472581
   9.11381806 14.55522244 15.65377354
  11.03021697  0.33965712 10.37894172
   1.31531543  3.32105084 12.93092836
  13.98328051 13.35889860 12.91382157
   3.87930202 10.09450770 15.55577671
   4.94130540  5.66637712 10.41780006
   1.30921475 12.64282590 16.15893179
  12.45076724 10.04556766 13.77613428
   1.57143628 14.25599442 12.69895118
   4.98462703 14.33998249 12.47318472
   4.43392196  8.32486394 16.97506599
   3.00322192  4.75070300 12.28379577
  10.29768776  8.98085114 16.84736182
   7.21047317 13.29746367 15.10738528
   3.47784492 12.43241380 15.39766977
   0.54686209 10.78784807 15.08703628
   4.82869847  3.52156588 11.57334487
  11.79645020  1.75349464 13.77890559
   0.80033904  1.92072610 16.29181076
  14.03727948  7.38363736 15.62121000
   2.01037331  1.47716737 14.22903300
  11.64947771  6.62697314 12.47553085
   7.31081430  5.79268437 15.96528757
   9.15921341 14.22540175 11.91107337
  10.49956396 12.35177702 12.09415615
   5.90168074  9.65311401 14.52175421
   3.48962754 10.93500588 11.56483287
   9.22114328  1.46147756 17.40738724
   2.07068015  9.13124505 14.44532258
   8.72545197  5.82337542 10.60609651
   5.13176840 14.01118275 15.92698600
   0.50789143  4.99400675 14.30634561
  14.23693543 11.01877730 12.61347527
   1.94058530  6.84571901 15.16551749
  14.30077311 14.31136794 16.55051974
   1.19114593  7.84352917 10.94911437
  12.85618530 14.40780080 14.70597587
   5.24180121  9.53159455 12.21879544
  10.76699569  5.61972889 14.40144859
   2.78151971  6.71567588 17.33911780



--------------------------------------------------------------------------------------------------------


 k-point     1 :   0.0000 0.0000 0.0000  plane waves:  557197
 k-point     2 :   0.5000 0.0000 0.0000  plane waves:  557646
 k-point     3 :   0.0000 0.5000 0.0000  plane waves:  557646
 k-point     4 :   0.5000 0.5000 0.0000  plane waves:  557540

 maximum and minimum number of plane-waves per node :     34900    34778

 maximum number of plane-waves:    557646
 maximum index in each direction: 
   IXMAX=   41   IYMAX=   41   IZMAX=   78
   IXMIN=  -41   IYMIN=  -41   IZMIN=  -78


 parallel 3D FFT for wavefunctions:
    minimum data exchange during FFTs selected (reduces bandwidth)
 parallel 3D FFT for charge:
    minimum data exchange during FFTs selected (reduces bandwidth)


 total amount of memory used by VASP MPI-rank0   353450. kBytes
=======================================================================

   base                                    :      30000. kBytes
   nonl-proj                               :      68038. kBytes
   fftplans                                :     108856. kBytes
   grid                                    :      83991. kBytes
   one-center                              :         18. kBytes
   wavefun                                 :      62547. kBytes

     INWAV:  cpu time     18.4663: real time     18.4787
 Broyden mixing: mesh for mixing (old mesh)
   NGX = 83   NGY = 83   NGZ =157
  (NGX  =336   NGY  =336   NGZ  =640)
  gives a total of ****** points

 initial charge density was supplied:
 number of electron     344.9999999 magnetization 
 keeping initial charge density in first step


--------------------------------------------------------------------------------------------------------


 Maximum index for augmentation-charges        11419 (set IRDMAX)


--------------------------------------------------------------------------------------------------------


 First call to EWALD:  gamma=   0.098
 Maximum number of real-space cells   3x   3x   2
 Maximum number of reciprocal cells   2x   2x   4

    FEWALD:  cpu time      0.0159: real time      0.0161


--------------------------------------- Ionic step        1  -------------------------------------------




--------------------------------------- Iteration      1(   1)  ---------------------------------------


    POTLOK:  cpu time      2.1700: real time      2.1709
    SETDIJ:  cpu time      1.6153: real time      1.6160
    EDDIAG:  cpu time     37.3794: real time     37.4020
     EDDAV:  cpu time    170.8858: real time    170.9746
       DOS:  cpu time      0.0095: real time      0.0098
    CHARGE:  cpu time     21.7108: real time     21.7312
    MIXING:  cpu time      0.0504: real time      0.0506
    --------------------------------------------
      LOOP:  cpu time    233.8213: real time    233.9550

 eigenvalue-minimisations  :  1792
 total energy-change (2. order) :-0.8758132E+03  (-0.9648870E+00)
 number of electron     344.9999999 magnetization 
 augmentation part      -19.2229290 magnetization 

 Broyden mixing:
  rms(total) = 0.11360E+01    rms(broyden)= 0.25488E+02
  rms(prec ) = 0.11657E+01
  weight for this iteration     100.00
  WARNING: grid for Broyden might be to small

 Free energy of the ion-electron system (eV)
  ---------------------------------------------------
  alpha Z        PSCENC =        42.49455205
  Ewald energy   TEWEN  =     52250.30078598
  -Hartree energ DENC   =    -60009.62053439
  -exchange      EXHF   =         0.00000000
  -V(xc)+E(xc)   XCENC  =      -403.68953939
  PAW double counting   =     31884.00377499   -31036.61088758
  entropy T*S    EENTRO =        -0.20680710
  eigenvalues    EBANDS =     -2425.60737478
  atomic energy  EATOM  =      8823.12285143
  Solvation  Ediel_sol  =         0.00000000
  ---------------------------------------------------
  free energy    TOTEN  =      -875.81317880 eV

  energy without entropy =     -875.60637170  energy(sigma->0) =     -875.70977525


--------------------------------------------------------------------------------------------------------




--------------------------------------- Iteration      1(   2)  ---------------------------------------


    POTLOK:  cpu time      2.1318: real time      2.1540
    SETDIJ:  cpu time      1.6239: real time      1.6247
    EDDIAG:  cpu time     37.3448: real time     37.3713
     EDDAV:  cpu time    172.6009: real time    172.6935
       DOS:  cpu time      0.0047: real time      0.0047
    CHARGE:  cpu time     21.6590: real time     21.6769
    MIXING:  cpu time      0.0443: real time      0.0444
    --------------------------------------------
      LOOP:  cpu time    235.4093: real time    235.5695

 eigenvalue-minimisations  :  1824
 total energy-change (2. order) : 0.6078090E+02  (-0.9217928E+00)
 number of electron     344.9999999 magnetization 
 augmentation part      -19.1452334 magnetization 

 Broyden mixing:
  rms(total) = 0.77164E+00    rms(broyden)= 0.14725E+02
  rms(prec ) = 0.78717E+00
  weight for this iteration     100.00
  WARNING: grid for Broyden might be to small

 eigenvalues of (default mixing * dielectric matrix)
  average eigenvalue GAMMA=   0.6339
  0.6339

 Free energy of the ion-electron system (eV)
  ---------------------------------------------------
  alpha Z        PSCENC =        42.49455205
  Ewald energy   TEWEN  =     52250.30078598
  -Hartree energ DENC   =    -59995.87120589
  -exchange      EXHF   =         0.00000000
  -V(xc)+E(xc)   XCENC  =      -394.88126736
  PAW double counting   =     38089.72790228   -37242.12458736
  entropy T*S    EENTRO =        -0.20583656
  eigenvalues    EBANDS =     -2387.59547082
  atomic energy  EATOM  =      8823.12285143
  Solvation  Ediel_sol  =         0.00000000
  ---------------------------------------------------
  free energy    TOTEN  =      -815.03227626 eV

  energy without entropy =     -814.82643970  energy(sigma->0) =     -814.92935798


--------------------------------------------------------------------------------------------------------




--------------------------------------- Iteration      1(   3)  ---------------------------------------


    POTLOK:  cpu time      2.1827: real time      2.2126
    SETDIJ:  cpu time      1.6050: real time      1.6062
    EDDIAG:  cpu time     37.3019: real time     37.3266
     EDDAV:  cpu time    170.6360: real time    170.7352
       DOS:  cpu time      0.0019: real time      0.0019
    CHARGE:  cpu time     21.6109: real time     21.6309
    MIXING:  cpu time      0.0411: real time      0.0411
    --------------------------------------------
      LOOP:  cpu time    233.3795: real time    233.5545

 eigenvalue-minimisations  :  1792
 total energy-change (2. order) :-0.3460704E+01  (-0.7862397E+00)
 number of electron     344.9999999 magnetization 
 augmentation part      -19.0820605 magnetization 

 Broyden mixing:
  rms(total) = 0.30921E+00    rms(broyden)= 0.23303E+02
  rms(prec ) = 0.39947E+00
  weight for this iteration     100.00
  WARNING: grid for Broyden might be to small

 eigenvalues of (default mixing * dielectric matrix)
  average eigenvalue GAMMA=   0.8032
  0.9788  0.6277

 Free energy of the ion-electron system (eV)
  ---------------------------------------------------
  alpha Z        PSCENC =        42.49455205
  Ewald energy   TEWEN  =     52250.30078598
  -Hartree energ DENC   =    -59995.28312037
  -exchange      EXHF   =         0.00000000
  -V(xc)+E(xc)   XCENC  =      -398.33781608
  PAW double counting   =     45754.22804831   -44906.76119686
  entropy T*S    EENTRO =        -0.18697387
  eigenvalues    EBANDS =     -2388.07011066
  atomic energy  EATOM  =      8823.12285143
  Solvation  Ediel_sol  =         0.00000000
  ---------------------------------------------------
  free energy    TOTEN  =      -818.49298008 eV

  energy without entropy =     -818.30600621  energy(sigma->0) =     -818.39949314


--------------------------------------------------------------------------------------------------------




--------------------------------------- Iteration      1(   4)  ---------------------------------------


    POTLOK:  cpu time      2.1241: real time      2.1538
    SETDIJ:  cpu time      1.6143: real time      1.6150
    EDDIAG:  cpu time     37.3350: real time     37.3597
     EDDAV:  cpu time    185.2839: real time    185.3865
       DOS:  cpu time      0.0035: real time      0.0035
    CHARGE:  cpu time     21.6136: real time     21.6317
    MIXING:  cpu time      0.0418: real time      0.0418
    --------------------------------------------
      LOOP:  cpu time    248.0162: real time    248.1919

 eigenvalue-minimisations  :  2064
 total energy-change (2. order) : 0.4032109E+00  (-0.1475303E+00)
 number of electron     344.9999999 magnetization 
 augmentation part      -19.0796196 magnetization 

 Broyden mixing:
  rms(total) = 0.15711E+00    rms(broyden)= 0.10867E+01
  rms(prec ) = 0.23627E+00
  weight for this iteration     100.00
  WARNING: grid for Broyden might be to small

 eigenvalues of (default mixing * dielectric matrix)
  average eigenvalue GAMMA=   1.0201
  1.7910  0.6619  0.6074

 Free energy of the ion-electron system (eV)
  ---------------------------------------------------
  alpha Z        PSCENC =        42.49455205
  Ewald energy   TEWEN  =     52250.30078598
  -Hartree energ DENC   =    -59996.50858136
  -exchange      EXHF   =         0.00000000
  -V(xc)+E(xc)   XCENC  =      -399.28544302
  PAW double counting   =     51010.94094635   -50163.51515828
  entropy T*S    EENTRO =        -0.21100006
  eigenvalues    EBANDS =     -2385.42872230
  atomic energy  EATOM  =      8823.12285143
  Solvation  Ediel_sol  =         0.00000000
  ---------------------------------------------------
  free energy    TOTEN  =      -818.08976920 eV

  energy without entropy =     -817.87876914  energy(sigma->0) =     -817.98426917


--------------------------------------------------------------------------------------------------------




--------------------------------------- Iteration      1(   5)  ---------------------------------------


    POTLOK:  cpu time      2.1365: real time      2.1628
    SETDIJ:  cpu time      1.6104: real time      1.6112
    EDDIAG:  cpu time     37.3506: real time     37.3737
     EDDAV:  cpu time    186.9460: real time    187.0535
       DOS:  cpu time      0.0021: real time      0.0021
    CHARGE:  cpu time     21.6355: real time     21.6561
    MIXING:  cpu time      0.0418: real time      0.0419
    --------------------------------------------
      LOOP:  cpu time    249.7229: real time    249.9012

 eigenvalue-minimisations  :  2096
 total energy-change (2. order) : 0.2055086E-01  (-0.8035939E-01)
 number of electron     344.9999999 magnetization 
 augmentation part      -19.0792241 magnetization 

 Broyden mixing:
  rms(total) = 0.75616E-01    rms(broyden)= 0.17519E+01
  rms(prec ) = 0.10632E+00
  weight for this iteration     100.00
  WARNING: grid for Broyden might be to small

 eigenvalues of (default mixing * dielectric matrix)
  average eigenvalue GAMMA=   1.0173
  2.3862  0.7549  0.6225  0.3057

 Free energy of the ion-electron system (eV)
  ---------------------------------------------------
  alpha Z        PSCENC =        42.49455205
  Ewald energy   TEWEN  =     52250.30078598
  -Hartree energ DENC   =    -59997.58528516
  -exchange      EXHF   =         0.00000000
  -V(xc)+E(xc)   XCENC  =      -400.35026707
  PAW double counting   =     50900.81491048   -50053.37356944
  entropy T*S    EENTRO =        -0.18882510
  eigenvalues    EBANDS =     -2383.30437150
  atomic energy  EATOM  =      8823.12285143
  Solvation  Ediel_sol  =         0.00000000
  ---------------------------------------------------
  free energy    TOTEN  =      -818.06921834 eV

  energy without entropy =     -817.88039324  energy(sigma->0) =     -817.97480579


--------------------------------------------------------------------------------------------------------




--------------------------------------- Iteration      1(   6)  ---------------------------------------


    POTLOK:  cpu time      2.1292: real time      2.1583
    SETDIJ:  cpu time      1.6050: real time      1.6061
    EDDIAG:  cpu time     37.4190: real time     37.4439
     EDDAV:  cpu time    174.7221: real time    174.8215
       DOS:  cpu time      0.0019: real time      0.0019
    CHARGE:  cpu time     21.6350: real time     21.6567
    MIXING:  cpu time      0.0423: real time      0.0430
    --------------------------------------------
      LOOP:  cpu time    237.5546: real time    237.7315

 eigenvalue-minimisations  :  1864
 total energy-change (2. order) : 0.7476150E-02  (-0.1510021E-01)
 number of electron     344.9999999 magnetization 
 augmentation part      -19.0783149 magnetization 

 Broyden mixing:
  rms(total) = 0.38360E-01    rms(broyden)= 0.21605E+00
  rms(prec ) = 0.46014E-01
  weight for this iteration     100.00
  WARNING: grid for Broyden might be to small

 eigenvalues of (default mixing * dielectric matrix)
  average eigenvalue GAMMA=   0.9840
  2.5503  0.8726  0.6221  0.5802  0.2946

 Free energy of the ion-electron system (eV)
  ---------------------------------------------------
  alpha Z        PSCENC =        42.49455205
  Ewald energy   TEWEN  =     52250.30078598
  -Hartree energ DENC   =    -59998.68357280
  -exchange      EXHF   =         0.00000000
  -V(xc)+E(xc)   XCENC  =      -400.60293969
  PAW double counting   =     50461.04403424   -49613.57795069
  entropy T*S    EENTRO =        -0.20312027
  eigenvalues    EBANDS =     -2381.95638243
  atomic energy  EATOM  =      8823.12285143
  Solvation  Ediel_sol  =         0.00000000
  ---------------------------------------------------
  free energy    TOTEN  =      -818.06174219 eV

  energy without entropy =     -817.85862192  energy(sigma->0) =     -817.96018205


--------------------------------------------------------------------------------------------------------




--------------------------------------- Iteration      1(   7)  ---------------------------------------


    POTLOK:  cpu time      2.2069: real time      2.2325
    SETDIJ:  cpu time      1.6173: real time      1.6179
    EDDIAG:  cpu time     37.3295: real time     37.3565
     EDDAV:  cpu time    186.5234: real time    186.6334
       DOS:  cpu time      0.0019: real time      0.0019
    CHARGE:  cpu time     21.6544: real time     21.6757
    MIXING:  cpu time      0.0441: real time      0.0441
    --------------------------------------------
      LOOP:  cpu time    249.3775: real time    249.5619

 eigenvalue-minimisations  :  2088
 total energy-change (2. order) : 0.2415254E-02  (-0.1541281E-02)
 number of electron     344.9999999 magnetization 
 augmentation part      -19.0775076 magnetization 

 Broyden mixing:
  rms(total) = 0.23314E-01    rms(broyden)= 0.23781E+00
  rms(prec ) = 0.26752E-01
  weight for this iteration     100.00
  WARNING: grid for Broyden might be to small

 eigenvalues of (default mixing * dielectric matrix)
  average eigenvalue GAMMA=   0.9413
  2.5628  0.9523  0.7082  0.6226  0.3146  0.4876

 Free energy of the ion-electron system (eV)
  ---------------------------------------------------
  alpha Z        PSCENC =        42.49455205
  Ewald energy   TEWEN  =     52250.30078598
  -Hartree energ DENC   =    -59998.24839392
  -exchange      EXHF   =         0.00000000
  -V(xc)+E(xc)   XCENC  =      -400.55816624
  PAW double counting   =     50421.64856298   -49574.17074223
  entropy T*S    EENTRO =        -0.20577899
  eigenvalues    EBANDS =     -2382.44299799
  atomic energy  EATOM  =      8823.12285143
  Solvation  Ediel_sol  =         0.00000000
  ---------------------------------------------------
  free energy    TOTEN  =      -818.05932693 eV

  energy without entropy =     -817.85354795  energy(sigma->0) =     -817.95643744


--------------------------------------------------------------------------------------------------------




--------------------------------------- Iteration      1(   8)  ---------------------------------------


    POTLOK:  cpu time      2.1346: real time      2.1641
    SETDIJ:  cpu time      1.6135: real time      1.6147
    EDDIAG:  cpu time     37.3616: real time     37.3860
     EDDAV:  cpu time    175.0124: real time    175.1111
       DOS:  cpu time      0.0019: real time      0.0019
    CHARGE:  cpu time     21.6476: real time     21.6689
    MIXING:  cpu time      0.0450: real time      0.0450
    --------------------------------------------
      LOOP:  cpu time    237.8168: real time    237.9917

 eigenvalue-minimisations  :  1880
 total energy-change (2. order) :-0.8120871E-03  (-0.7402799E-03)
 number of electron     344.9999999 magnetization 
 augmentation part      -19.0765034 magnetization 

 Broyden mixing:
  rms(total) = 0.13013E-01    rms(broyden)= 0.47945E-01
  rms(prec ) = 0.14407E-01
  weight for this iteration     100.00
  WARNING: grid for Broyden might be to small

 eigenvalues of (default mixing * dielectric matrix)
  average eigenvalue GAMMA=   0.9260
  2.5557  1.2034  0.7802  0.6211  0.5728  0.3187  0.4304

 Free energy of the ion-electron system (eV)
  ---------------------------------------------------
  alpha Z        PSCENC =        42.49455205
  Ewald energy   TEWEN  =     52250.30078598
  -Hartree energ DENC   =    -59997.99496966
  -exchange      EXHF   =         0.00000000
  -V(xc)+E(xc)   XCENC  =      -400.43726222
  PAW double counting   =     50435.48362487   -49587.99500409
  entropy T*S    EENTRO =        -0.20652370
  eigenvalues    EBANDS =     -2382.82819367
  atomic energy  EATOM  =      8823.12285143
  Solvation  Ediel_sol  =         0.00000000
  ---------------------------------------------------
  free energy    TOTEN  =      -818.06013902 eV

  energy without entropy =     -817.85361532  energy(sigma->0) =     -817.95687717


--------------------------------------------------------------------------------------------------------




--------------------------------------- Iteration      1(   9)  ---------------------------------------


    POTLOK:  cpu time      2.1343: real time      2.1627
    SETDIJ:  cpu time      1.6096: real time      1.6109
    EDDIAG:  cpu time     37.3697: real time     37.3950
     EDDAV:  cpu time    174.7384: real time    174.8428
       DOS:  cpu time      0.0024: real time      0.0024
    CHARGE:  cpu time     21.6536: real time     21.6743
    MIXING:  cpu time      0.0452: real time      0.0452
    --------------------------------------------
      LOOP:  cpu time    237.5534: real time    237.7335

 eigenvalue-minimisations  :  1880
 total energy-change (2. order) :-0.7121361E-03  (-0.3441665E-03)
 number of electron     344.9999999 magnetization 
 augmentation part      -19.0754006 magnetization 

 Broyden mixing:
  rms(total) = 0.76885E-02    rms(broyden)= 0.48373E-01
  rms(prec ) = 0.94986E-02
  weight for this iteration     100.00
  WARNING: grid for Broyden might be to small

 eigenvalues of (default mixing * dielectric matrix)
  average eigenvalue GAMMA=   0.9401
  2.5401  1.5596  0.8378  0.6479  0.6479  0.3163  0.4854  0.4854

 Free energy of the ion-electron system (eV)
  ---------------------------------------------------
  alpha Z        PSCENC =        42.49455205
  Ewald energy   TEWEN  =     52250.30078598
  -Hartree energ DENC   =    -59997.91277804
  -exchange      EXHF   =         0.00000000
  -V(xc)+E(xc)   XCENC  =      -400.34013814
  PAW double counting   =     50459.94959309   -49612.45042315
  entropy T*S    EENTRO =        -0.20620781
  eigenvalues    EBANDS =     -2383.01908656
  atomic energy  EATOM  =      8823.12285143
  Solvation  Ediel_sol  =         0.00000000
  ---------------------------------------------------
  free energy    TOTEN  =      -818.06085116 eV

  energy without entropy =     -817.85464335  energy(sigma->0) =     -817.95774725


--------------------------------------------------------------------------------------------------------




--------------------------------------- Iteration      1(  10)  ---------------------------------------


    POTLOK:  cpu time      2.1322: real time      2.1605
    SETDIJ:  cpu time      1.6044: real time      1.6055
    EDDIAG:  cpu time     37.3959: real time     37.4214
     EDDAV:  cpu time    176.6138: real time    176.7168
       DOS:  cpu time      0.0037: real time      0.0037
    CHARGE:  cpu time     21.6461: real time     21.6655
    MIXING:  cpu time      0.0459: real time      0.0460
    --------------------------------------------
      LOOP:  cpu time    239.4418: real time    239.6192

 eigenvalue-minimisations  :  1912
 total energy-change (2. order) :-0.8059948E-04  (-0.1042680E-03)
 number of electron     344.9999999 magnetization 
 augmentation part      -19.0755638 magnetization 

 Broyden mixing:
  rms(total) = 0.29939E-02    rms(broyden)= 0.20567E-01
  rms(prec ) = 0.35641E-02
  weight for this iteration     100.00
  WARNING: grid for Broyden might be to small

 eigenvalues of (default mixing * dielectric matrix)
  average eigenvalue GAMMA=   1.0042
  2.4864  2.2555  0.9843  0.8291  0.6560  0.6331  0.3176  0.4377  0.4377

 Free energy of the ion-electron system (eV)
  ---------------------------------------------------
  alpha Z        PSCENC =        42.49455205
  Ewald energy   TEWEN  =     52250.30078598
  -Hartree energ DENC   =    -59997.73571072
  -exchange      EXHF   =         0.00000000
  -V(xc)+E(xc)   XCENC  =      -400.32566024
  PAW double counting   =     50473.35826997   -49625.85491125
  entropy T*S    EENTRO =        -0.20615191
  eigenvalues    EBANDS =     -2383.21495706
  atomic energy  EATOM  =      8823.12285143
  Solvation  Ediel_sol  =         0.00000000
  ---------------------------------------------------
  free energy    TOTEN  =      -818.06093176 eV

  energy without entropy =     -817.85477985  energy(sigma->0) =     -817.95785580


--------------------------------------------------------------------------------------------------------




--------------------------------------- Iteration      1(  11)  ---------------------------------------


    POTLOK:  cpu time      2.1375: real time      2.1614
    SETDIJ:  cpu time      1.6216: real time      1.6226
    EDDIAG:  cpu time     37.4094: real time     37.4365
     EDDAV:  cpu time    174.1406: real time    174.2382
       DOS:  cpu time      0.0021: real time      0.0021
    CHARGE:  cpu time     21.6336: real time     21.6536
    MIXING:  cpu time      0.0464: real time      0.0465
    --------------------------------------------
      LOOP:  cpu time    236.9912: real time    237.1608

 eigenvalue-minimisations  :  1872
 total energy-change (2. order) : 0.2478197E-04  (-0.7305157E-04)
 number of electron     344.9999999 magnetization 
 augmentation part      -19.0755861 magnetization 

 Broyden mixing:
  rms(total) = 0.18078E-02    rms(broyden)= 0.12614E-01
  rms(prec ) = 0.22117E-02
  weight for this iteration     100.00
  WARNING: grid for Broyden might be to small

 eigenvalues of (default mixing * dielectric matrix)
  average eigenvalue GAMMA=   1.0518
  2.6154  2.6154  1.1347  0.8347  0.8347  0.6512  0.6287  0.3183  0.4732  0.4116

 Free energy of the ion-electron system (eV)
  ---------------------------------------------------
  alpha Z        PSCENC =        42.49455205
  Ewald energy   TEWEN  =     52250.30078598
  -Hartree energ DENC   =    -59997.59192046
  -exchange      EXHF   =         0.00000000
  -V(xc)+E(xc)   XCENC  =      -400.33539187
  PAW double counting   =     50469.57917360   -49622.07411797
  entropy T*S    EENTRO =        -0.20581508
  eigenvalues    EBANDS =     -2383.35102465
  atomic energy  EATOM  =      8823.12285143
  Solvation  Ediel_sol  =         0.00000000
  ---------------------------------------------------
  free energy    TOTEN  =      -818.06090697 eV

  energy without entropy =     -817.85509189  energy(sigma->0) =     -817.95799943


--------------------------------------------------------------------------------------------------------




--------------------------------------- Iteration      1(  12)  ---------------------------------------


    POTLOK:  cpu time      2.1415: real time      2.1663
    SETDIJ:  cpu time      1.6216: real time      1.6224
    EDDIAG:  cpu time     37.3545: real time     37.3790
     EDDAV:  cpu time    177.7134: real time    177.8129
       DOS:  cpu time      0.0020: real time      0.0020
    CHARGE:  cpu time     21.6605: real time     21.6791
    MIXING:  cpu time      0.0470: real time      0.0470
    --------------------------------------------
      LOOP:  cpu time    240.5404: real time    240.7086

 eigenvalue-minimisations  :  1936
 total energy-change (2. order) :-0.3793345E-04  (-0.2740290E-04)
 number of electron     344.9999999 magnetization 
 augmentation part      -19.0756668 magnetization 

 Broyden mixing:
  rms(total) = 0.72832E-03    rms(broyden)= 0.39134E-02
  rms(prec ) = 0.88489E-03
  weight for this iteration     100.00
  WARNING: grid for Broyden might be to small

 eigenvalues of (default mixing * dielectric matrix)
  average eigenvalue GAMMA=   1.0655
  2.7188  2.7188  1.2438  1.0786  0.8195  0.3183  0.6833  0.6332  0.6050  0.4945
  0.4071

 Free energy of the ion-electron system (eV)
  ---------------------------------------------------
  alpha Z        PSCENC =        42.49455205
  Ewald energy   TEWEN  =     52250.30078598
  -Hartree energ DENC   =    -59997.40582651
  -exchange      EXHF   =         0.00000000
  -V(xc)+E(xc)   XCENC  =      -400.34171089
  PAW double counting   =     50467.37455076   -49619.86820506
  entropy T*S    EENTRO =        -0.20602812
  eigenvalues    EBANDS =     -2383.53191455
  atomic energy  EATOM  =      8823.12285143
  Solvation  Ediel_sol  =         0.00000000
  ---------------------------------------------------
  free energy    TOTEN  =      -818.06094491 eV

  energy without entropy =     -817.85491679  energy(sigma->0) =     -817.95793085


--------------------------------------------------------------------------------------------------------




--------------------------------------- Iteration      1(  13)  ---------------------------------------


    POTLOK:  cpu time      2.1367: real time      2.1639
    SETDIJ:  cpu time      1.6147: real time      1.6161
    EDDIAG:  cpu time     37.4011: real time     37.4257
     EDDAV:  cpu time    173.2635: real time    173.3605
       DOS:  cpu time      0.0027: real time      0.0027
    CHARGE:  cpu time     21.6432: real time     21.6648
    MIXING:  cpu time      0.0475: real time      0.0475
    --------------------------------------------
      LOOP:  cpu time    236.1095: real time    236.2812

 eigenvalue-minimisations  :  1856
 total energy-change (2. order) :-0.9775253E-04  (-0.2055781E-04)
 number of electron     344.9999999 magnetization 
 augmentation part      -19.0757401 magnetization 

 Broyden mixing:
  rms(total) = 0.35176E-03    rms(broyden)= 0.30147E-02
  rms(prec ) = 0.50327E-03
  weight for this iteration     100.00
  WARNING: grid for Broyden might be to small

 eigenvalues of (default mixing * dielectric matrix)
  average eigenvalue GAMMA=   1.0988
  2.7813  2.7813  1.6090  1.0155  1.0155  0.8733  0.3183  0.6640  0.6113  0.6113
  0.4975  0.4075

 Free energy of the ion-electron system (eV)
  ---------------------------------------------------
  alpha Z        PSCENC =        42.49455205
  Ewald energy   TEWEN  =     52250.30078598
  -Hartree energ DENC   =    -59997.21671306
  -exchange      EXHF   =         0.00000000
  -V(xc)+E(xc)   XCENC  =      -400.34860389
  PAW double counting   =     50464.50886728   -49617.00202675
  entropy T*S    EENTRO =        -0.20606537
  eigenvalues    EBANDS =     -2383.71469032
  atomic energy  EATOM  =      8823.12285143
  Solvation  Ediel_sol  =         0.00000000
  ---------------------------------------------------
  free energy    TOTEN  =      -818.06104266 eV

  energy without entropy =     -817.85497729  energy(sigma->0) =     -817.95800997


--------------------------------------------------------------------------------------------------------




--------------------------------------- Iteration      1(  14)  ---------------------------------------


    POTLOK:  cpu time      2.1581: real time      2.1596
    SETDIJ:  cpu time      1.6130: real time      1.6137
    EDDIAG:  cpu time     37.3847: real time     37.4076
     EDDAV:  cpu time    174.4684: real time    174.5694
       DOS:  cpu time      0.0031: real time      0.0031
    CHARGE:  cpu time     21.6666: real time     21.6882
    MIXING:  cpu time      0.0487: real time      0.0487
    --------------------------------------------
      LOOP:  cpu time    237.3426: real time    237.4904

 eigenvalue-minimisations  :  1872
 total energy-change (2. order) :-0.9589031E-04  (-0.1199440E-04)
 number of electron     344.9999999 magnetization 
 augmentation part      -19.0757665 magnetization 

 Broyden mixing:
  rms(total) = 0.23937E-03    rms(broyden)= 0.23289E-02
  rms(prec ) = 0.35275E-03
  weight for this iteration     100.00
  WARNING: grid for Broyden might be to small

 eigenvalues of (default mixing * dielectric matrix)
  average eigenvalue GAMMA=   1.1208
  2.8498  2.8498  2.0234  1.1371  0.9965  0.3183  0.8628  0.4077  0.4975  0.7411
  0.6009  0.6429  0.6429

 Free energy of the ion-electron system (eV)
  ---------------------------------------------------
  alpha Z        PSCENC =        42.49455205
  Ewald energy   TEWEN  =     52250.30078598
  -Hartree energ DENC   =    -59997.09145463
  -exchange      EXHF   =         0.00000000
  -V(xc)+E(xc)   XCENC  =      -400.35223384
  PAW double counting   =     50464.59642354   -49617.08967953
  entropy T*S    EENTRO =        -0.20605044
  eigenvalues    EBANDS =     -2383.83633311
  atomic energy  EATOM  =      8823.12285143
  Solvation  Ediel_sol  =         0.00000000
  ---------------------------------------------------
  free energy    TOTEN  =      -818.06113855 eV

  energy without entropy =     -817.85508811  energy(sigma->0) =     -817.95811333


--------------------------------------------------------------------------------------------------------




--------------------------------------- Iteration      1(  15)  ---------------------------------------


    POTLOK:  cpu time      2.1321: real time      2.1609
    SETDIJ:  cpu time      1.6143: real time      1.6156
    EDDIAG:  cpu time     37.3625: real time     37.3868
     EDDAV:  cpu time    173.4349: real time    173.5337
       DOS:  cpu time      0.0123: real time      0.0123
    CHARGE:  cpu time     21.6648: real time     21.6847
    MIXING:  cpu time      0.0659: real time      0.0671
    --------------------------------------------
      LOOP:  cpu time    236.2871: real time    236.4614

 eigenvalue-minimisations  :  1856
 total energy-change (2. order) :-0.9317377E-04  (-0.1187115E-04)
 number of electron     344.9999999 magnetization 
 augmentation part      -19.0757983 magnetization 

 Broyden mixing:
  rms(total) = 0.14405E-03    rms(broyden)= 0.10101E-02
  rms(prec ) = 0.23879E-03
  weight for this iteration     100.00
  WARNING: grid for Broyden might be to small

 eigenvalues of (default mixing * dielectric matrix)
  average eigenvalue GAMMA=   1.1551
  3.0508  2.8038  2.2753  1.4026  1.0121  1.0121  0.8740  0.3183  0.4079  0.4947
  0.6685  0.6348  0.6080  0.6080

 Free energy of the ion-electron system (eV)
  ---------------------------------------------------
  alpha Z        PSCENC =        42.49455205
  Ewald energy   TEWEN  =     52250.30078598
  -Hartree energ DENC   =    -59996.97851598
  -exchange      EXHF   =         0.00000000
  -V(xc)+E(xc)   XCENC  =      -400.35575236
  PAW double counting   =     50464.59978898   -49617.09332698
  entropy T*S    EENTRO =        -0.20603320
  eigenvalues    EBANDS =     -2383.94558164
  atomic energy  EATOM  =      8823.12285143
  Solvation  Ediel_sol  =         0.00000000
  ---------------------------------------------------
  free energy    TOTEN  =      -818.06123172 eV

  energy without entropy =     -817.85519852  energy(sigma->0) =     -817.95821512


--------------------------------------------------------------------------------------------------------




--------------------------------------- Iteration      1(  16)  ---------------------------------------


    POTLOK:  cpu time      2.1448: real time      2.1636
    SETDIJ:  cpu time      1.6275: real time      1.6283
    EDDIAG:  cpu time     37.3421: real time     37.3670
     EDDAV:  cpu time    173.3703: real time    173.4675
       DOS:  cpu time      0.0038: real time      0.0038
    CHARGE:  cpu time     21.6089: real time     21.6497
    MIXING:  cpu time      0.0518: real time      0.0518
    --------------------------------------------
      LOOP:  cpu time    236.1489: real time    236.3312

 eigenvalue-minimisations  :  1856
 total energy-change (2. order) :-0.1028374E-03  (-0.1121201E-04)
[...]
   -.390E+02 0.182E+02 0.363E+03   0.410E+02 -.179E+02 -.364E+03   -.159E+01 -.351E+00 0.536E+00   -.227E-04 0.597E-04 0.150E-04
   -.361E+01 0.943E+01 -.288E+03   0.342E+01 -.946E+01 0.287E+03   0.303E+00 -.186E-01 0.101E+01   -.369E-04 0.883E-05 -.335E-04
   -.332E+02 0.345E+01 -.300E+03   0.362E+02 -.882E+00 0.300E+03   -.230E+01 -.198E+01 0.569E+00   -.654E-04 -.477E-04 -.243E-04
   0.750E+00 -.197E+02 -.918E+00   -.214E+00 0.177E+02 -.170E+00   -.744E+00 0.197E+01 0.951E+00   -.486E-04 0.167E-04 -.642E-04
   0.213E+02 -.136E+02 -.203E+03   -.197E+02 0.133E+02 0.201E+03   -.193E+01 0.334E+00 0.126E+01   0.402E-04 -.605E-04 -.576E-04
   0.249E+02 0.421E+00 -.190E+03   -.237E+02 0.804E+00 0.189E+03   -.977E+00 -.121E+01 0.100E+01   0.317E-04 -.114E-03 -.104E-03
   0.301E+02 -.950E+01 0.350E+03   -.288E+02 0.865E+01 -.353E+03   -.142E+01 0.957E+00 0.273E+01   0.842E-05 -.941E-05 -.556E-04
   0.169E+02 0.453E+01 0.102E+03   -.168E+02 -.314E+01 -.102E+03   -.290E+00 -.141E+01 -.713E+00   0.301E-05 -.197E-04 -.581E-04
   -.191E+02 -.150E+02 0.972E+02   0.188E+02 0.153E+02 -.988E+02   0.141E+00 -.302E+00 0.146E+01   -.408E-04 -.122E-05 -.372E-04
   0.785E+01 -.285E+02 -.191E+03   -.700E+01 0.262E+02 0.189E+03   -.103E+01 0.226E+01 0.216E+01   -.233E-04 0.313E-04 -.283E-04
   -.286E+02 -.745E+01 0.350E+03   0.293E+02 0.852E+01 -.351E+03   -.542E+00 -.777E+00 0.108E+01   -.813E-04 0.290E-05 -.230E-04
   -.195E+02 -.917E+01 -.258E+03   0.192E+02 0.708E+01 0.257E+03   0.288E+00 0.187E+01 0.901E+00   -.319E-04 -.123E-04 -.205E-04
   -.108E+02 0.180E+02 0.215E+02   0.941E+01 -.172E+02 -.209E+02   0.136E+01 -.746E+00 -.624E+00   0.927E-05 0.737E-04 -.130E-04
   0.737E+00 0.138E+02 0.129E+03   -.320E+00 -.134E+02 -.129E+03   -.383E+00 -.594E+00 0.461E+00   -.386E-04 -.157E-04 -.230E-04
   -.378E+02 0.129E+02 0.186E+03   0.349E+02 -.134E+02 -.184E+03   0.279E+01 0.298E+00 -.187E+01   -.461E-05 -.228E-04 -.336E-04
   0.672E+01 -.183E+02 -.323E+03   -.695E+01 0.167E+02 0.320E+03   -.640E-01 0.122E+01 0.203E+01   -.328E-04 0.486E-04 -.251E-04
   0.200E+02 0.491E+01 0.160E+03   -.193E+02 -.489E+01 -.160E+03   -.657E+00 0.288E+00 -.519E+00   -.202E-04 0.330E-04 -.704E-04
   -.370E+01 0.629E+01 -.291E+03   0.358E+01 -.525E+01 0.289E+03   0.516E+00 -.916E+00 0.180E+01   0.457E-04 0.162E-03 -.282E-04
   0.711E+01 -.141E+02 -.132E+03   -.693E+01 0.138E+02 0.132E+03   -.265E-01 0.443E+00 0.141E+00   0.833E-05 -.523E-04 -.585E-04
   -.119E+02 -.373E+01 -.177E+03   0.111E+02 0.428E+01 0.176E+03   0.975E+00 -.634E+00 0.102E+01   -.400E-04 -.106E-04 -.231E-04
   -.153E+02 -.144E+02 -.134E+03   0.164E+02 0.131E+02 0.137E+03   -.911E+00 0.130E+01 -.186E+01   -.136E-04 0.392E-04 -.116E-04
   -.339E+02 0.253E+02 0.256E+03   0.316E+02 -.250E+02 -.252E+03   0.259E+01 -.449E+00 -.344E+01   -.424E-04 0.390E-05 -.485E-04
   -.143E+02 -.976E+01 0.588E+01   0.134E+02 0.100E+02 -.608E+01   0.708E+00 -.116E+00 0.213E+00   0.314E-04 -.107E-03 -.125E-03
   0.168E+02 0.360E+01 -.248E+03   -.146E+02 -.416E+01 0.247E+03   -.226E+01 0.757E+00 0.118E+01   0.127E-04 -.541E-04 -.410E-04
   -.147E+02 -.908E+01 -.183E+03   0.116E+02 0.916E+01 0.184E+03   0.280E+01 0.762E-01 -.871E+00   0.596E-04 0.841E-04 -.519E-04
   0.205E+01 0.443E+01 -.483E+02   -.289E+01 -.484E+01 0.453E+02   0.953E+00 0.256E+00 0.258E+01   -.159E-04 -.378E-04 -.402E-04
   -.145E+02 0.491E+01 0.163E+03   0.142E+02 -.453E+01 -.163E+03   0.225E+00 -.444E+00 -.494E+00   0.598E-04 0.489E-04 -.617E-04
   0.143E+02 0.168E+02 -.220E+03   -.136E+02 -.168E+02 0.217E+03   -.736E+00 -.671E-01 0.248E+01   -.177E-03 0.622E-04 -.101E-03
   0.531E+02 -.815E+01 0.234E+03   -.503E+02 0.728E+01 -.231E+03   -.280E+01 0.907E+00 -.261E+01   0.987E-04 -.106E-04 -.923E-04
   0.468E+02 0.168E+01 0.196E+03   -.452E+02 -.868E+00 -.195E+03   -.172E+01 -.751E+00 -.758E+00   0.290E-04 0.764E-04 -.458E-04
   0.102E+02 -.635E+01 -.424E+02   -.118E+02 0.751E+01 0.451E+02   0.160E+01 -.117E+01 -.236E+01   -.151E-04 0.454E-04 -.369E-04
   -.199E+02 -.180E+02 0.286E+03   0.192E+02 0.188E+02 -.287E+03   0.834E+00 -.486E+00 0.780E+00   -.117E-04 0.660E-05 -.107E-04
   0.285E+01 0.191E+02 -.320E+03   -.365E+01 -.171E+02 0.319E+03   0.834E+00 -.146E+01 0.100E+01   -.560E-05 -.122E-03 -.353E-04
   -.104E+02 0.762E+01 -.527E+02   0.100E+02 -.562E+01 0.520E+02   0.184E+00 -.194E+01 0.566E+00   -.152E-04 0.313E-04 -.268E-04
   0.148E+02 -.193E+02 0.309E+03   -.151E+02 0.193E+02 -.310E+03   0.185E+00 0.146E+00 0.111E+01   -.266E-04 -.105E-05 -.757E-04
   -.106E+02 0.190E+02 -.234E+03   0.983E+01 -.173E+02 0.235E+03   0.467E+00 -.174E+01 -.661E+00   -.306E-04 -.498E-04 -.383E-04
   -.520E+01 0.163E+02 -.286E+02   0.305E+01 -.183E+02 0.276E+02   0.201E+01 0.163E+01 0.919E+00   0.498E-04 0.280E-05 -.631E-04
   -.257E+02 0.433E+01 0.150E+03   0.245E+02 -.425E+01 -.149E+03   0.112E+01 -.246E+00 -.697E+00   -.151E-04 0.482E-04 0.263E-05
   -.144E+01 0.104E+00 -.121E+03   0.222E+01 0.877E+00 0.123E+03   -.502E+00 -.753E+00 -.161E+01   0.112E-04 0.260E-04 -.480E-04
   -.101E+02 -.167E+02 -.287E+03   0.101E+02 0.166E+02 0.283E+03   0.276E+00 -.889E-01 0.372E+01   0.118E-04 -.807E-04 -.410E-04
   -.849E+00 -.322E+01 0.290E+03   0.155E+01 0.524E+01 -.291E+03   -.333E+00 -.185E+01 0.133E+01   0.318E-04 -.196E-04 -.192E-04
   -.965E+01 -.222E+02 -.833E+02   0.892E+01 0.212E+02 0.837E+02   0.640E+00 0.698E+00 -.404E+00   0.196E-04 -.635E-04 -.716E-04
   0.808E+01 -.793E+01 0.220E+03   -.796E+01 0.978E+01 -.219E+03   -.539E+00 -.164E+01 -.104E+01   -.124E-04 0.184E-04 -.214E-04
   -.684E+01 0.292E+01 -.319E+02   0.546E+01 -.267E+01 0.324E+02   0.139E+01 0.297E-01 -.158E+00   0.797E-04 0.139E-05 -.125E-03
   0.190E+02 -.990E+01 -.348E+03   -.210E+02 0.100E+02 0.348E+03   0.180E+01 0.592E-01 0.686E+00   -.135E-04 0.287E-04 -.375E-04
 -----------------------------------------------------------------------------------------------
   -.891E+01 0.118E+02 -.219E+02   0.000E+00 -.195E-13 -.114E-12   0.891E+01 -.118E+02 0.218E+02   -.606E-04 0.138E-03 -.404E-02


 POSITION                                       TOTAL-FORCE (eV/Angst)
 -----------------------------------------------------------------------------------
      0.24930      8.10518      9.83931        -0.129715      0.005568     -0.034030
      0.21582      7.23398     12.13512         0.030356     -0.108172      0.055835
      8.08329      6.25993      9.33976        -0.064705      0.025872     -0.090041
      0.15923      3.47091      9.94291        -0.039781      0.088533      0.076519
      8.09717      1.49396     18.35970        -0.138393      0.046350      0.153044
      9.09018      5.37972     17.50905         0.067666      0.051731      0.407636
     10.78583     11.56749     14.24642         0.334201      0.230577      0.096954
      2.86747      2.49866     17.28594        -0.105781     -0.158492     -0.084315
      1.66600      9.74140     12.22414        -0.462283     -0.134362      0.399014
      7.78784      6.87991     12.49557        -0.053093      0.048194     -0.226064
     10.88566      3.64831     11.10263         0.037079      0.028764     -0.322290
      7.11116     13.20868     12.68894        -0.049604      0.097358     -0.104522
     13.75671      6.65384     13.38227         0.077637      0.128266      0.085528
     11.09775      5.80530     10.38288        -0.049381     -0.108016     -0.143057
     12.39894      1.96685     11.51853        -0.081753     -0.141525      0.187179
      5.30256      4.75467     15.28178         0.142442     -0.019559      0.201400
      6.59942      8.02182     16.14871         0.511395      0.035195      0.229322
     13.34348      9.57805     15.87870         0.056551     -0.242806      0.536824
     11.01789      8.86250     12.35902        -0.138511      0.071623     -0.322081
      7.17549     10.72408     12.44978         0.155501     -0.061626      0.190800
      5.43541      7.16418     12.22581         0.316097     -0.208956     -0.050806
     12.06420     10.37849     17.60032         0.376859      0.126435     -0.219712
      8.75741      8.99748     12.94404         0.089536     -0.240424      0.127101
     11.78457      3.61903     15.20424         0.136667     -0.178135     -0.191171
      3.36053     12.75452     13.00722        -0.064083     -0.095039     -0.077738
      9.28971      9.96635     14.98435         0.006631     -0.298532     -0.069006
      1.79303      0.79384     10.65587         0.065258      0.038099      0.070287
     12.47148     12.75030     17.53002        -0.277058      0.163477     -0.109856
     13.93165      3.98559     16.08218        -0.042959     -0.069746     -0.181298
     12.47994     13.22154     11.13912         0.153416     -0.041381     -0.289885
      8.49842      5.26066     14.04133         0.038324      0.086448     -0.024114
     10.85893      6.64689     16.57251         0.003620      0.155792     -0.111471
      2.63765      6.11503     10.46125        -0.371644     -0.306279     -0.229359
      9.50749      1.18328     13.67648         0.051803      0.121780      0.222313
     13.10701      5.98286     17.20642         0.298005      0.088885      0.215007
     11.19614     10.54364     10.71174         0.395712      0.118753      0.278931
      8.60600      3.47033     10.96841         0.014957      0.050405      0.275709
      8.10086      3.06821     13.25215        -0.061888     -0.104667     -0.155181
      5.76760      3.05342     13.70501         0.090680     -0.047253      0.007839
      3.99811      1.39030     11.04555        -0.327213      0.094735      0.270986
      0.15638      2.48735     11.05832         0.117690      0.015858     -0.109785
      4.44258      1.19527     14.32829        -0.166480      0.289752     -0.176786
      7.36494     11.05016     15.70252        -0.289969      0.197428     -0.098270
      8.02895      9.50409     17.35447        -0.008834     -0.138777     -0.305017
     10.05660      3.44355     16.78564        -0.298878     -0.592132      0.013662
     13.39660     11.25616     10.26303         0.028412      0.001184     -0.251972
      3.56717      4.59925     16.81550         0.142214     -0.063065      0.029121
      4.93205      1.54911     16.80008         0.362460      0.323717     -0.010563
      4.01220      6.15902     13.88539        -0.248792     -0.026427     -0.124905
     11.09429     13.27499     15.73473        -0.354483     -0.024089     -0.018304
      9.11382     14.55522     15.65377         0.220016     -0.037371     -0.008969
     11.03022      0.33966     10.37894        -0.004127      0.125853     -0.093284
      1.31532      3.32105     12.93093        -0.249767     -0.072415      0.172592
     13.98328     13.35890     12.91382        -0.143822     -0.085778     -0.055762
      3.87930     10.09451     15.55578        -0.215887      0.103090     -0.082868
      4.94131      5.66638     10.41780        -0.107017      0.270496      0.268171
      1.30921     12.64283     16.15893        -0.073341     -0.125386     -0.127883
     12.45077     10.04557     13.77613         0.023521      0.040517     -0.062252
      1.57144     14.25599     12.69895         0.012165     -0.211182      0.056753
      4.98463     14.33998     12.47318        -0.003751     -0.233804     -0.004523
      4.43392      8.32486     16.97507        -0.323432     -0.337732     -0.256733
      3.00322      4.75070     12.28380         0.041885      0.322955     -0.141999
     10.29769      8.98085     16.84736         0.401352      0.128049      0.270184
      7.21047     13.29746     15.10739         0.146905      0.115748      0.062053
      3.47784     12.43241     15.39767         0.202670     -0.119169     -0.031106
      0.54686     10.78785     15.08704         0.093363      0.118525      0.269629
      4.82870      3.52157     11.57334         0.284019     -0.152773     -0.075933
     11.79645      1.75349     13.77891        -0.108989      0.107559      0.030673
      0.80034      1.92073     16.29181        -0.118735      0.228460      0.500299
     14.03728      7.38364     15.62121        -0.160035      0.152503     -0.120580
      2.01037      1.47717     14.22903         0.152381     -0.120934     -0.301495
     11.64948      6.62697     12.47553        -0.017773     -0.059069     -0.356635
      7.31081      5.79268     15.96529        -0.036896     -0.020154      0.032907
      9.15921     14.22540     11.91107        -0.104114     -0.005335      0.119735
     10.49956     12.35178     12.09416        -0.073183      0.039313      0.067916
      5.90168      9.65311     14.52175         0.101916     -0.047672      0.319359
      3.48963     10.93501     11.56483         0.181781      0.129632     -0.220367
      9.22114      1.46148     17.40739        -0.043621      0.476112     -0.301236
      2.07068      9.13125     14.44532        -0.183913     -0.004192     -0.105922
      8.72545      5.82338     10.60610        -0.154015      0.159632     -0.030559
      5.13177     14.01118     15.92699        -0.344612     -0.075880      0.161385
      0.50789      4.99401     14.30635        -0.037621     -0.312023     -0.019616
     14.23694     11.01878     12.61348        -0.072908     -0.159639     -0.283882
      1.94059      6.84572     15.16552         0.243320      0.204486     -0.105843
     14.30077     14.31137     16.55052         0.300469     -0.255413     -0.033876
      1.19115      7.84353     10.94911         0.263946      0.035401      0.177941
     12.85619     14.40780     14.70598        -0.065701     -0.245489     -0.050118
      5.24180      9.53159     12.21880        -0.394809      0.163060     -0.404670
     10.76700      5.61973     14.40145         0.083537      0.276517      0.326162
      2.78152      6.71568     17.33912         0.008934      0.162185      0.440939
 -----------------------------------------------------------------------------------
    total drift:                               -0.000400     -0.013885     -0.010912


--------------------------------------------------------------------------------------------------------



  FREE ENERGIE OF THE ION-ELECTRON SYSTEM (eV)
  ---------------------------------------------------
  free  energy   TOTEN  =      -818.06146674 eV

  energy  without entropy=     -817.85542311  energy(sigma->0) =     -817.95844492



--------------------------------------------------------------------------------------------------------


    POTLOK:  cpu time      3.7289: real time      3.7386


--------------------------------------------------------------------------------------------------------


     LOOP+:  cpu time   5611.9932: real time   5616.1096
    4ORBIT:  cpu time      0.0000: real time      0.0000



 total charge

# of ion       s       p       d       tot
------------------------------------------
    1        0.567   0.016   0.000   0.583
    2        0.567   0.015   0.000   0.582
    3        0.571   0.015   0.000   0.586
    4        0.564   0.016   0.000   0.580
    5        0.566   0.017   0.000   0.582
    6        0.801   0.858   0.000   1.659
    7        0.769   0.970   0.000   1.739
    8        0.785   0.883   0.000   1.667
    9        0.761   0.942   0.000   1.703
   10        0.752   0.942   0.000   1.694
   11        0.801   0.868   0.000   1.670
   12        0.762   0.852   0.000   1.614
   13        0.785   0.891   0.000   1.676
   14        0.813   0.868   0.000   1.680
   15        0.751   0.930   0.000   1.680
   16        0.755   0.935   0.000   1.690
   17        0.762   0.906   0.000   1.668
   18        0.762   0.969   0.000   1.731
   19        0.762   0.948   0.000   1.710
   20        0.784   0.841   0.000   1.624
   21        0.759   0.889   0.000   1.649
   22        0.790   0.853   0.000   1.643
   23        0.753   0.929   0.000   1.683
   24        0.749   0.933   0.000   1.682
   25        0.757   0.932   0.000   1.689
   26        0.770   0.951   0.000   1.721
   27        0.790   0.869   0.000   1.659
   28        0.814   0.785   0.000   1.599
   29        0.754   0.897   0.000   1.651
   30        0.770   0.928   0.000   1.698
   31        0.761   0.946   0.000   1.708
   32        0.757   0.883   0.000   1.641
   33        0.785   0.899   0.000   1.684
   34        0.759   0.930   0.000   1.689
   35        0.811   0.819   0.000   1.631
   36        0.817   0.811   0.000   1.627
   37        0.804   0.855   0.000   1.659
   38        0.750   0.912   0.000   1.662
   39        0.760   0.911   0.000   1.671
   40        0.784   0.849   0.000   1.633
   41        0.738   0.942   0.000   1.680
   42        0.751   0.905   0.000   1.656
   43        0.765   0.927   0.000   1.692
   44        0.823   0.815   0.000   1.638
   45        0.774   0.909   0.000   1.683
   46        0.843   0.799   0.000   1.642
   47        0.784   0.878   0.000   1.662
   48        0.846   0.793   0.000   1.639
   49        0.782   0.866   0.000   1.648
   50        0.755   0.963   0.000   1.718
   51        0.745   0.966   0.000   1.711
   52        0.832   0.774   0.000   1.606
   53        0.757   0.954   0.000   1.711
   54        0.760   0.923   0.000   1.683
   55        0.759   0.939   0.000   1.697
   56        0.827   0.787   0.000   1.613
   57        0.776   0.907   0.000   1.683
   58        0.772   0.938   0.000   1.710
   59        0.753   0.935   0.000   1.688
   60        0.757   0.915   0.000   1.672
   61        0.793   0.854   0.000   1.647
   62        0.763   0.956   0.000   1.719
   63        0.761   0.897   0.000   1.658
   64        0.750   0.934   0.000   1.684
   65        0.757   0.922   0.000   1.679
   66        0.774   0.920   0.000   1.694
   67        0.758   0.924   0.000   1.682
   68        0.758   0.934   0.000   1.692
   69        0.763   0.849   0.000   1.612
   70        0.784   0.880   0.000   1.664
   71        0.760   0.884   0.000   1.644
   72        0.751   0.959   0.000   1.709
   73        0.753   0.934   0.000   1.688
   74        0.762   0.905   0.000   1.668
   75        0.769   0.935   0.000   1.703
   76        0.760   0.931   0.000   1.691
   77        0.797   0.890   0.000   1.687
   78        0.765   0.945   0.000   1.710
   79        0.768   0.930   0.000   1.698
   80        0.746   0.947   0.000   1.693
   81        0.773   0.908   0.000   1.681
   82        0.764   0.922   0.000   1.685
   83        0.753   0.915   0.000   1.667
   84        0.747   0.886   0.000   1.634
   85        0.764   0.867   0.000   1.631
   86        0.762   0.922   0.000   1.684
   87        0.761   0.938   0.000   1.700
   88        0.767   0.912   0.000   1.679
   89        0.766   0.916   0.000   1.682
   90        0.799   0.867   0.000   1.666
--------------------------------------------------
tot         68.481  76.680   0.000 145.161


 total amount of memory used by VASP MPI-rank0   353450. kBytes
=======================================================================

   base                                    :      30000. kBytes
   nonl-proj                               :      68038. kBytes
   fftplans                                :     108856. kBytes
   grid                                    :      83991. kBytes
   one-center                              :         18. kBytes
   wavefun                                 :      62547. kBytes

  
  
 General timing and accounting informations for this job:
 ========================================================
  
                  Total CPU time used (sec):     5758.591
                            User time (sec):     5108.773
                          System time (sec):      649.818
                         Elapsed time (sec):     5762.800
  
                   Maximum memory used (kb):      624664.
                   Average memory used (kb):          N/A
  
                          Minor page faults:     10316449
                          Major page faults:         1179
                 Voluntary context switches:         3499
