 vasp.6.5.0 16Dec24 (build Jan 20 2025 08:32:48) complex                         
 executed on        HPECrayEX_GCC date 2025.07.28  23:47:59
 running  128 mpi-ranks, with    1 threads/rank, on    1 nodes
 distrk:  each k-point on  128 cores,    1 groups
 distr:  one band on NCORE=  16 cores,    8 groups


--------------------------------------------------------------------------------------------------------


 INCAR:
   SYSTEM = a-Si SPC
   NCORE = 16
   ISTART = 1
   ICHARG = 1
   ISPIN = 1
   ISYM = 1
   EDIFF = 1E-6
   NELM = 150
   EDIFFG = -0.01
   NSW = 0
   ISIF = 2
   IBRION = -1
   PREC = Accurate
   ENCUT = 1200
   KSPACING = 0.23
   KGAMMA = .TRUE.
   METAGGA = SCAN
   LASPH = .TRUE.
   LDIAG = .FALSE.
   LMIXTAU = .TRUE.
   ADDGRID = .TRUE.
   ALGO = Normal
   ISMEAR = 0
   SIGMA = 0.1
   LORBIT = 11
   NEDOS = 2000
   LWAVE = .FALSE.
   LCHARG = .FALSE.

 POTCAR:    PAW_PBE H 15Jun2001                   
 POTCAR:    PAW_PBE Si 05Jan2001                  
 POTCAR:    PAW_PBE H 15Jun2001                   
   SHA256 =  030f79b5d3ab3cf0e668861823c8fb652ff669f3e15e46930bd03bfd63a607b6 H/POTCAR              
   COPYR  = (c) Copyright 15Jun2001 Georg Kresse                                                    
   COPYR  = This file is part of the software VASP. Any use, copying, and all other rights are regul
   COPYR  = If you do not have a valid VASP license, you may not use, copy or distribute this file. 
   VRHFIN =H: ultrasoft test                                                                        
   LEXCH  = PE                                                                                      
   EATOM  =    12.4884 eV,    0.9179 Ry                                                             
                                                                                                    
   TITEL  = PAW_PBE H 15Jun2001                                                                     
   LULTRA =        F    use ultrasoft PP ?                                                          
   IUNSCR =        0    unscreen: 0-lin 1-nonlin 2-no                                               
   RPACOR =    0.000    partial core radius                                                         
   POMASS =    1.000; ZVAL   =    1.000    mass and valenz                                          
   RCORE  =    1.100    outmost cutoff radius                                                       
   RWIGS  =    0.700; RWIGS  =    0.370    wigner-seitz radius (au A)                               
   ENMAX  =  250.000; ENMIN  =  200.000 eV                                                          
   RCLOC  =    0.701    cutoff for local pot                                                        
   LCOR   =        T    correct aug charges                                                         
   LPAW   =        T    paw PP                                                                      
   EAUG   =  400.000                                                                                
   RMAX   =    1.123    core radius for proj-oper                                                   
   RAUG   =    1.200    factor for augmentation sphere                                              
   RDEP   =    1.112    radius for radial grids                                                     
   RDEPT  =    0.926    core radius for aug-charge                                                  
                                                                                                    
   Atomic configuration                                                                             
    2 entries                                                                                       
     n  l   j            E        occ.                                                              
     1  0  0.50        -6.4927   1.0000                                                             
     2  1  0.50        -3.4015   0.0000                                                             
   Description                                                                                      
     l       E           TYP  RCUT    TYP  RCUT                                                     
     0     -6.4927494     23  1.100                                                                 
     0      6.8029130     23  1.100                                                                 
     1     -4.0817478     23  1.100                                                                 
  local pseudopotential read in
  atomic valenz-charges read in
  non local Contribution for L=           0  read in
    real space projection operators read in
  non local Contribution for L=           0  read in
    real space projection operators read in
  non local Contribution for L=           1  read in
    real space projection operators read in
    PAW grid and wavefunctions read in

   number of l-projection  operators is LMAX  =           3
   number of lm-projection operators is LMMAX =           5

 POTCAR:    PAW_PBE Si 05Jan2001                  
   SHA256 =  79d9987ad8750f624c4d6acb2a16d13abf6a777132adc04dc6c8399be72b42bb Si/POTCAR             
   COPYR  = (c) Copyright 05Jan2001 Georg Kresse                                                    
   COPYR  = This file is part of the software VASP. Any use, copying, and all other rights are regul
   COPYR  = If you do not have a valid VASP license, you may not use, copy or distribute this file. 
   VRHFIN =Si: s2p2                                                                                 
   LEXCH  = PE                                                                                      
   EATOM  =   103.0669 eV,    7.5752 Ry                                                             
                                                                                                    
   TITEL  = PAW_PBE Si 05Jan2001                                                                    
   LULTRA =        F    use ultrasoft PP ?                                                          
   IUNSCR =        1    unscreen: 0-lin 1-nonlin 2-no                                               
   RPACOR =    1.500    partial core radius                                                         
   POMASS =   28.085; ZVAL   =    4.000    mass and valenz                                          
   RCORE  =    1.900    outmost cutoff radius                                                       
   RWIGS  =    2.480; RWIGS  =    1.312    wigner-seitz radius (au A)                               
   ENMAX  =  245.345; ENMIN  =  184.009 eV                                                          
   ICORE  =        2    local potential                                                             
   LCOR   =        T    correct aug charges                                                         
   LPAW   =        T    paw PP                                                                      
   EAUG   =  322.069                                                                                
   DEXC   =    0.000                                                                                
   RMAX   =    1.950    core radius for proj-oper                                                   
   RAUG   =    1.300    factor for augmentation sphere                                              
   RDEP   =    1.993    radius for radial grids                                                     
   RDEPT  =    1.837    core radius for aug-charge                                                  
                                                                                                    
   Atomic configuration                                                                             
    6 entries                                                                                       
     n  l   j            E        occ.                                                              
     1  0  0.50     -1785.8828   2.0000                                                             
     2  0  0.50      -139.4969   2.0000                                                             
     2  1  1.50       -95.5546   6.0000                                                             
     3  0  0.50       -10.8127   2.0000                                                             
     3  1  0.50        -4.0811   2.0000                                                             
     3  2  1.50        -4.0817   0.0000                                                             
   Description                                                                                      
     l       E           TYP  RCUT    TYP  RCUT                                                     
     0    -10.8127223     23  1.900                                                                 
     0     -7.6451159     23  1.900                                                                 
     1     -4.0811372     23  1.900                                                                 
     1      2.4879257     23  1.900                                                                 
     2     -4.0817478      7  1.900                                                                 
  local pseudopotential read in
  partial core-charges read in
  partial kinetic energy density read in
  atomic valenz-charges read in
  non local Contribution for L=           0  read in
    real space projection operators read in
  non local Contribution for L=           0  read in
    real space projection operators read in
  non local Contribution for L=           1  read in
    real space projection operators read in
  non local Contribution for L=           1  read in
    real space projection operators read in
    PAW grid and wavefunctions read in

   number of l-projection  operators is LMAX  =           4
   number of lm-projection operators is LMMAX =           8

 -----------------------------------------------------------------------------
|                                                                             |
|               ----> ADVICE to this user running VASP <----                  |
|                                                                             |
|     You have a (more or less) 'large supercell' and for larger cells it     |
|     might be more efficient to use real-space projection operators.         |
|     Therefore, try LREAL= Auto in the INCAR file.                           |
|     Mind: For very accurate calculation, you might also keep the            |
|     reciprocal projection scheme (i.e. LREAL=.FALSE.).                      |
|                                                                             |
 -----------------------------------------------------------------------------

 -----------------------------------------------------------------------------
|                                                                             |
|               ----> ADVICE to this user running VASP <----                  |
|                                                                             |
|     You enforced a specific xc type in the INCAR file but a different       |
|     type was found in the POTCAR file.                                      |
|     I HOPE YOU KNOW WHAT YOU ARE DOING!                                     |
|                                                                             |
 -----------------------------------------------------------------------------

  PAW_PBE H 15Jun2001                   :
 energy of atom  1       EATOM=  -12.4884
 kinetic energy error for atom=    0.0000 (will be added to EATOM!!)
  PAW_PBE Si 05Jan2001                  :
 energy of atom  2       EATOM= -103.0669
 kinetic energy error for atom=    0.0001 (will be added to EATOM!!)


 POSCAR:  H Si
  positions in cartesian coordinates
  No initial velocities read in


 exchange-correlation table for SCAN
   RHO(1)=    0.500       N(1)  =     2000
   RHO(2)=  100.500       N(2)  =     4000



--------------------------------------------------------------------------------------------------------


 ion  position               nearest neighbor table
   1  0.615  0.690  0.381-  13 1.48
   2  0.653  0.416  0.427-   5 1.49
   3  0.143  0.352  0.623-  28 1.50
   4  0.068  0.082  0.447-  44 2.34  36 2.40  20 2.40  17 2.47  18 3.15
   5  0.631  0.430  0.484-   2 1.49  12 2.30  29 2.32  43 2.34
   6  0.418  0.019  0.591-  19 2.34  55 2.43  49 2.44
   7  0.116  0.909  0.524-  36 2.26  21 2.30  39 2.31  17 2.41
   8  0.514  0.656  0.557-  46 2.36  12 2.38  41 2.38
   9  0.793  0.720  0.458-  13 2.38  50 2.39  33 2.50  16 2.52  54 3.07
  10  0.829  0.937  0.500-  33 2.35  16 2.35  51 2.36  15 2.37
  11  0.129  0.536  0.534-  59 2.33  32 2.34  57 2.40  40 2.54
  12  0.546  0.564  0.482-   5 2.30  52 2.33  13 2.37   8 2.38  46 3.07
  13  0.641  0.671  0.437-   1 1.48  46 2.35  12 2.37   9 2.38
  14  0.452  0.261  0.432-  37 2.33  29 2.35  34 2.41
  15  0.902  0.042  0.557-  22 2.32  36 2.33  10 2.37
  16  0.730  0.819  0.531-  50 2.31  46 2.33  10 2.35   9 2.52
  17  0.063  0.913  0.434-   7 2.41  33 2.41  56 2.44   4 2.47
  18  0.131  0.264  0.504-  32 2.36  20 2.37  28 2.37  44 2.44  27 2.58   4 3.15
  19  0.539  0.068  0.537-   6 2.34  31 2.34  47 2.35  37 2.49
  20  0.990  0.224  0.464-  23 2.31  22 2.33  18 2.37   4 2.40
  21  0.260  0.925  0.489-  49 2.29   7 2.30  24 2.32  56 2.33
  22  0.868  0.182  0.518-  35 2.32  15 2.32  26 2.32  20 2.33
  23  0.982  0.368  0.426-  45 2.29  20 2.31  48 2.33
  24  0.306  0.074  0.469-  21 2.32  44 2.32  55 2.33  37 2.35
  25  0.191  0.693  0.453-  42 2.31  40 2.31  56 2.33  57 2.35
  26  0.772  0.271  0.571-  22 2.32  43 2.36  31 2.39
  27  0.166  0.151  0.580-  28 2.27  36 2.34  55 2.35  18 2.58
  28  0.086  0.283  0.593-   3 1.50  27 2.27  18 2.37
  29  0.542  0.302  0.505-  31 2.29   5 2.32  34 2.32  14 2.35
  30  0.375  0.805  0.401-  42 2.35  58 2.41  56 2.48
  31  0.642  0.192  0.535-  29 2.29  35 2.33  19 2.34  26 2.39
  32  0.182  0.414  0.483-  38 2.28  11 2.34  48 2.35  18 2.36  40 2.94
  33  0.925  0.830  0.458-  54 2.35  10 2.35  17 2.41   9 2.50
  34  0.385  0.282  0.518-  38 2.30  29 2.32  14 2.41  55 2.47
  35  0.740  0.163  0.464-  51 2.30  22 2.32  31 2.33
  36  0.059  0.051  0.540-   7 2.26  15 2.33  27 2.34   4 2.40
  37  0.461  0.105  0.452-  47 2.32  14 2.33  24 2.35  19 2.49
  38  0.336  0.429  0.500-  32 2.28  34 2.30  52 2.34
  39  0.091  0.782  0.577-   7 2.31  54 2.33  57 2.34
  40  0.087  0.575  0.440-  25 2.31  48 2.32  59 2.46  11 2.54  32 2.94
  41  0.364  0.719  0.542-   8 2.38  57 2.39  49 2.40  42 2.41
  42  0.348  0.672  0.452-  25 2.31  52 2.33  30 2.35  41 2.41
  43  0.772  0.415  0.528-  45 2.33   5 2.34  53 2.34  26 2.36
  44  0.198  0.174  0.433-  24 2.32   4 2.34  18 2.44
  45  0.883  0.466  0.468-  23 2.29  43 2.33  59 2.36  53 2.86
  46  0.586  0.768  0.503-  58 2.31  16 2.33  13 2.35   8 2.36  12 3.07
  47  0.576  0.994  0.457-  58 2.30  37 2.32  51 2.32  19 2.35
  48  0.120  0.436  0.399-  40 2.32  23 2.33  32 2.35
  49  0.385  0.883  0.539-  21 2.29  58 2.35  41 2.40   6 2.44
  50  0.818  0.691  0.549-  16 2.31  54 2.31  53 2.34   9 2.39  59 3.03
  51  0.732  0.011  0.439-  35 2.30  47 2.32  10 2.36
  52  0.409  0.525  0.439-  42 2.33  12 2.33  38 2.34
  53  0.845  0.537  0.571-  50 2.34  43 2.34  59 2.48  45 2.86
  54  0.966  0.732  0.527-  50 2.31  39 2.33  33 2.35  59 2.35   9 3.07
  55  0.320  0.137  0.553-  24 2.33  27 2.35   6 2.43  34 2.47
  56  0.210  0.839  0.417-  21 2.33  25 2.33  17 2.44  30 2.48
  57  0.204  0.682  0.546-  39 2.34  25 2.35  41 2.39  11 2.40
  58  0.482  0.868  0.465-  47 2.30  46 2.31  49 2.35  30 2.41
  59  0.977  0.573  0.513-  11 2.33  54 2.35  45 2.36  40 2.46  53 2.48  50 3.03

  LATTYP: Found a simple tetragonal cell.
 ALAT       =    14.5318920738
 C/A-ratio  =     1.7430367478
  
  Lattice vectors:
  
 A1 = (  14.5318920738,   0.0000000000,   0.0000000000)
 A2 = (   0.0000000000,  14.5318920738,   0.0000000000)
 A3 = (   0.0000000000,   0.0000000000,  25.3296219000)


Analysis of symmetry for initial positions (statically):
=====================================================================
 Subroutine PRICEL returns:
 Original cell was already a primitive cell.
 

 Routine SETGRP: Setting up the symmetry group for a 
 simple tetragonal supercell.


 Subroutine GETGRP returns: Found  1 space group operations
 (whereof  1 operations were pure point group operations)
 out of a pool of 16 trial point group operations.


The static configuration has the point symmetry C_1 .


Analysis of symmetry for dynamics (positions and initial velocities):
=====================================================================
 Subroutine PRICEL returns:
 Original cell was already a primitive cell.
 

 Routine SETGRP: Setting up the symmetry group for a 
 simple tetragonal supercell.


 Subroutine GETGRP returns: Found  1 space group operations
 (whereof  1 operations were pure point group operations)
 out of a pool of 16 trial point group operations.


The dynamic configuration has the point symmetry C_1 .


 Subroutine INISYM returns: Found  1 space group operations
 (whereof  1 operations are pure point group operations),
 and found     1 'primitive' translations


----------------------------------------------------------------------------------------

                                     Primitive cell                                     

  volume of cell :    5349.0054

  direct lattice vectors                    reciprocal lattice vectors
    14.531892074  0.000000000  0.000000000     0.068814164  0.000000000  0.000000000
     0.000000000 14.531892074  0.000000000     0.000000000  0.068814164  0.000000000
     0.000000000  0.000000000 25.329621900     0.000000000  0.000000000  0.039479468

  length of vectors
    14.531892074 14.531892074 25.329621900     0.068814164  0.068814164  0.039479468

  position of ions in fractional coordinates (direct lattice)
     0.615165284  0.690066146  0.381408191
     0.653036693  0.415638759  0.426937442
     0.142514605  0.352357072  0.622855933
     0.068334795  0.081839226  0.447490596
     0.630639969  0.429629049  0.483798792
     0.418463686  0.019226904  0.591038385
     0.115652177  0.908665230  0.524490467
     0.513679507  0.656160053  0.557235950
     0.793188401  0.719870744  0.457569495
     0.828516405  0.936647348  0.500221243
     0.128670020  0.536487970  0.534439837
     0.546325407  0.563515375  0.481851109
     0.641043106  0.670609486  0.436635993
     0.451737559  0.260555893  0.431510674
     0.902225015  0.042373890  0.557357242
     0.730173484  0.819331984  0.530612303
     0.062764917  0.913403829  0.434414614
     0.131200669  0.264084187  0.504231676
     0.539210874  0.067610865  0.536660394
     0.989726342  0.224186995  0.463975264
     0.260332759  0.924937363  0.489057009
     0.867532652  0.182213963  0.518157238
     0.982330820  0.367910749  0.425687940
     0.305621880  0.073947044  0.469161058
     0.190976327  0.692558948  0.453343984
     0.771552287  0.270903571  0.570645986
     0.165552100  0.150869497  0.579971450
     0.085735540  0.283335508  0.593282875
     0.542303354  0.301918759  0.504751314
     0.375159438  0.804859449  0.401444279
     0.641507866  0.191926564  0.535201647
     0.182263637  0.413768270  0.483237272
     0.925071790  0.830381568  0.457604693
     0.385398561  0.281815109  0.518048602
     0.740021639  0.162518035  0.464436406
     0.059278475  0.051125808  0.540278866
     0.461477533  0.104651935  0.451614620
     0.335757424  0.429070584  0.500000440
     0.090651961  0.781777478  0.577194400
     0.087096019  0.574922883  0.439615604
     0.364351617  0.719196657  0.542486785
     0.348255495  0.671898949  0.451630521
     0.771619297  0.415226789  0.527635069
     0.197897956  0.173687470  0.432675753
     0.883173086  0.465545227  0.468436807
     0.585704055  0.767828659  0.503481269
     0.576135691  0.993932689  0.456844577
     0.119823324  0.435914095  0.398816181
     0.384844895  0.882586970  0.538590248
     0.817593731  0.690913065  0.549434553
     0.731855536  0.011249848  0.438713740
     0.409362383  0.525276718  0.439385089
     0.844572272  0.537096083  0.571434190
     0.966118712  0.731970736  0.527123270
     0.320065807  0.137340447  0.553412632
     0.209961692  0.838883948  0.417065372
     0.204269024  0.681773754  0.545694016
     0.481919359  0.867780091  0.464766571
     0.976810343  0.572508408  0.513076949

  ion indices of the primitive-cell ions
   primitive index   ion index
                 1           1
                 2           2
                 3           3
                 4           4
                 5           5
                 6           6
                 7           7
                 8           8
                 9           9
                10          10
                11          11
                12          12
                13          13
                14          14
                15          15
                16          16
                17          17
                18          18
                19          19
                20          20
                21          21
                22          22
                23          23
                24          24
                25          25
                26          26
                27          27
                28          28
                29          29
                30          30
                31          31
                32          32
                33          33
                34          34
                35          35
                36          36
                37          37
                38          38
                39          39
                40          40
                41          41
                42          42
                43          43
                44          44
                45          45
                46          46
                47          47
                48          48
                49          49
                50          50
                51          51
                52          52
                53          53
                54          54
                55          55
                56          56
                57          57
                58          58
                59          59

----------------------------------------------------------------------------------------


 -----------------------------------------------------------------------------
|                                                                             |
|           W    W    AA    RRRRR   N    N  II  N    N   GGGG   !!!           |
|           W    W   A  A   R    R  NN   N  II  NN   N  G    G  !!!           |
|           W    W  A    A  R    R  N N  N  II  N N  N  G       !!!           |
|           W WW W  AAAAAA  RRRRR   N  N N  II  N  N N  G  GGG   !            |
|           WW  WW  A    A  R   R   N   NN  II  N   NN  G    G                |
|           W    W  A    A  R    R  N    N  II  N    N   GGGG   !!!           |
|                                                                             |
|     The requested file  could not be found or opened for reading            |
|     k-point information. Automatic k-point generation is used as a          |
|     fallback, which may lead to unwanted results.                           |
|                                                                             |
 -----------------------------------------------------------------------------



Automatic generation of k-mesh.
 Grid dimensions derived from KSPACING:
 generate k-points for:    2    2    2

 Generating k-lattice:

  Cartesian coordinates                     Fractional coordinates (reciprocal lattice)
     0.034407082  0.000000000  0.000000000     0.500000000  0.000000000  0.000000000
     0.000000000  0.034407082  0.000000000     0.000000000  0.500000000  0.000000000
     0.000000000  0.000000000  0.019739734     0.000000000  0.000000000  0.500000000

  Length of vectors
     0.034407082  0.034407082  0.019739734

  Shift w.r.t. Gamma in fractional coordinates (k-lattice)
     0.000000000  0.000000000  0.000000000

 
 Subroutine IBZKPT returns following result:
 ===========================================
 
 Found      8 irreducible k-points:
 
 Following reciprocal coordinates:
            Coordinates               Weight
  0.000000  0.000000  0.000000      1.000000
  0.500000  0.000000  0.000000      1.000000
  0.000000  0.500000  0.000000      1.000000
  0.500000  0.500000  0.000000      1.000000
  0.000000  0.000000  0.500000      1.000000
  0.500000  0.000000  0.500000      1.000000
  0.000000  0.500000  0.500000      1.000000
  0.500000  0.500000  0.500000      1.000000
 
 Following cartesian coordinates:
            Coordinates               Weight
  0.000000  0.000000  0.000000      1.000000
  0.034407  0.000000  0.000000      1.000000
  0.000000  0.034407  0.000000      1.000000
  0.034407  0.034407  0.000000      1.000000
  0.000000  0.000000  0.019740      1.000000
  0.034407  0.000000  0.019740      1.000000
  0.000000  0.034407  0.019740      1.000000
  0.034407  0.034407  0.019740      1.000000
 


--------------------------------------------------------------------------------------------------------




 Dimension of arrays:
   k-points           NKPTS =      8   k-points in BZ     NKDIM =      8   number of bands    NBANDS=    144
   number of dos      NEDOS =   2000   number of ions     NIONS =     59
   non local maximal  LDIM  =      4   non local SUM 2l+1 LMDIM =      8
   total plane-waves  NPLWV = ******
   max r-space proj   IRMAX =      1   max aug-charges    IRDMAX= 406622
   dimension x,y,z NGX =   168 NGY =  168 NGZ =  288
   dimension x,y,z NGXF=   336 NGYF=  336 NGZF=  576
   support grid    NGXF=   672 NGYF=  672 NGZF= 1152
   ions per type =               3  56
   NGX,Y,Z   is equivalent  to a cutoff of  19.22, 19.22, 18.90 a.u.
   NGXF,Y,Z  is equivalent  to a cutoff of  38.44, 38.44, 37.80 a.u.

 SYSTEM =  a-Si SPC                                
 POSCAR =   H Si                                   

 Startparameter for this run:
   NWRITE =      2    write-flag & timer
   PREC   = accura    normal or accurate (medium, high low for compatibility)
   ISTART =      1    job   : 0-new  1-cont  2-samecut
   ICHARG =      1    charge: 1-file 2-atom 10-const
   ISPIN  =      1    spin polarized calculation?
   LNONCOLLINEAR =      F non collinear calculations
   LSORBIT =      F    spin-orbit coupling
   INIWAV =      1    electr: 0-lowe 1-rand  2-diag
   LASPH  =      T    aspherical Exc in radial PAW
 Electronic Relaxation 1
   ENCUT  = 1200.0 eV  88.20 Ry    9.39 a.u.  41.05 41.05 71.54*2*pi/ulx,y,z
   ENINI  = 1200.0     initial cutoff
   ENAUG  =  400.0 eV  augmentation charge cutoff
   NELM   =    150;   NELMIN=  2; NELMDL=  0     # of ELM steps 
   EDIFF  = 0.1E-05   stopping-criterion for ELM
   LREAL  =      F    real-space projection
   NLSPLINE    = F    spline interpolate recip. space projectors
   LCOMPAT=      F    compatible to vasp.4.4
   GGA_COMPAT  = T    GGA compatible to vasp.4.4-vasp.4.6
   LMAXPAW     = -100 max onsite density
   LMAXMIX     =    2 max onsite mixed and CHGCAR
   VOSKOWN=      0    Vosko Wilk Nusair interpolation
   ROPT   =    0.00000   0.00000
 Ionic relaxation
   EDIFFG = -.1E-01   stopping-criterion for IOM
   NSW    =      0    number of steps for IOM
   NBLOCK =      1;   KBLOCK =      1    inner block; outer block 
   IBRION =     -1    ionic relax: 0-MD 1-quasi-New 2-CG
   NFREE  =      0    steps in history (QN), initial steepest desc. (CG)
   ISIF   =      2    stress and relaxation
   IWAVPR =     10    prediction:  0-non 1-charg 2-wave 3-comb
   ISYM   =      1    0-nonsym 1-usesym 2-fastsym
   LCORR  =      T    Harris-Foulkes like correction to forces

   POTIM  = 0.5000    time-step for ionic-motion
   TEIN   =    0.0    initial temperature
   TEBEG  =    0.0;   TEEND  =   0.0 temperature during run
   SMASS  =  -3.00    Nose mass-parameter (am)
   estimated Nose-frequenzy (Omega)   =  0.10E-29 period in steps = 0.13E+47 mass=  -0.483E-26a.u.
   SCALEE = 1.0000    scale energy and forces
   NPACO  =    256;   APACO  = 10.0  distance and # of slots for P.C.
   PSTRESS=    0.0 pullay stress

  Mass of Ions in am
   POMASS =   1.00 28.09
  Ionic Valenz
   ZVAL   =   1.00  4.00
  Atomic Wigner-Seitz radii
   RWIGS  =  -1.00 -1.00
  virtual crystal weights 
   VCA    =   1.00  1.00
   NELECT =     227.0000    total number of electrons
   NUPDOWN=      -1.0000    fix difference up-down

 DOS related values:
   EMIN   =  10.00;   EMAX   =-10.00  energy-range for DOS
   EFERMI =   0.00;   METHOD = LEGACY      
   ISMEAR =     0;   SIGMA  =   0.10  broadening in eV -4-tet -1-fermi 0-gaus
   EFERMI_NEDOS =   21; number of points for ismear=-14 and -15

 Electronic relaxation 2 (details)
   IALGO  =     38    algorithm
   LDIAG  =      F    sub-space diagonalisation (order eigenvalues)
   LSUBROT=      F    optimize rotation matrix (better conditioning)
   TURBO    =      0    0=normal 1=particle mesh
   IRESTART =      0    0=no restart 2=restart with 2 vectors
   NREBOOT  =      0    no. of reboots
   NMIN     =      0    reboot dimension
   EREF     =   0.00    reference energy to select bands
   IMIX   =      4    mixing-type and parameters
     AMIX     =   0.40;   BMIX     =  1.00
     AMIX_MAG =   1.60;   BMIX_MAG =  1.00
     AMIN     =   0.10
     WC   =   100.;   INIMIX=   1;  MIXPRE=   1;  MAXMIX= -45

 Intra band minimization:
   WEIMIN = 0.0000     energy-eigenvalue tresh-hold
   EBREAK =  0.17E-08  absolut break condition
   DEPER  =   0.30     relativ break condition  

   TIME   =   0.40     timestep for ELM

  volume/ion in A,a.u.               =      90.66       611.81
  Fermi-wavevector in a.u.,A,eV,Ry     =   0.571030  1.079091  4.436527  0.326076
  Thomas-Fermi vector in A             =   1.611326

 Write flags
   LWAVE        =      F    write WAVECAR
   LDOWNSAMPLE  =      F    k-point downsampling of WAVECAR
   LCHARG       =      F    write CHGCAR
   LVTOT        =      F    write LOCPOT, total local potential
   LVHAR        =      F    write LOCPOT, Hartree potential only
   WRT_POTENTIAL= false  ! write potential to hdf5 file
   LELF         =      F    write electronic localiz. function (ELF)
   LORBIT       =     11    0 simple, 1 ext, 2 COOP (PROOUT), +10 PAW based schemes


 Python interface
   PLUGINS active      =      F    recompile with -DPLUGINS to activate

 Dipole corrections
   LMONO      =      F    monopole corrections only (constant potential shift)
   LDIPOL     =      F    correct potential (dipole corrections)
   IDIPOL     =      0    1-x, 2-y, 3-z, 4-all directions 
   EPSILON    =  1.0000000 bulk dielectric constant
   LVACPOTAV  =      F  vacuum potentials using an averaging scheme for the charge density
   VACPOTFLAT =  0.1000000 required flatness to determine vacuum potential

Coulomb truncation method
  LTRUNCATE          =      F  Coulomb kernel truncation to be used
  IDIMENSIONALITY    =      3  Dimensionality of cutoff (0 molecules / 2 surfaces)
  ISURFACE           =     -1  Direction of surface normal
  LCOARSEN           =      F  Coarsen the charge grid before padding, preferred


 Exchange correlation treatment:
   METAGGA = SCAN    functional components
   XC_C    = 1    coefficients multiplying the functional components
   LIBXC   =     F    Libxc                    
   VOSKOWN =     0    Vosko Wilk Nusair interpolation
   LHFCALC =     F    Hartree Fock is set to
   LHFONE  =     F    Hartree Fock one center treatment
   AEXX    =    0.0000 exact exchange contribution

 Parameters of functionals:
   SCAN:
     P1 =  0.000000E+00
     P2 =  0.000000E+00
     P3 =  0.000000E+00

 Accuracy and mixing parameters for tau-dependent meta-GGA functionals:
   LMAXTAU = 6
   LMIXTAU = T

 Van der Waals corrections
   IVDW    =     0    specifies the selected vdW correction

 Linear response parameters
   LEPSILON=     F    determine dielectric tensor
   LRPA    =     F    only Hartree local field effects (RPA)
   LNABLA  =     F    use nabla operator in PAW spheres
   LVEL    =     F    velocity operator in full k-point grid
   CSHIFT  =0.1000    complex shift for real part using Kramers Kronig
   OMEGAMAX=  -1.0    maximum frequency
   DEG_THRESHOLD= 0.2000000E-02 threshold for treating states as degnerate
   RTIME   =   -0.100 relaxation time in fs
  (WPLASMAI=    0.000 imaginary part of plasma frequency in eV, 0.658/RTIME)
   DFIELD  = 0.0000000 0.0000000 0.0000000 field for delta impulse in time

  Optional k-point grid parameters
   LKPOINTS_OPT  =     F    use optional k-point grid
   KPOINTS_OPT_MODE=     1    mode for optional k-point grid

 Orbital magnetization related:
   ORBITALMAG=     F  switch on orbital magnetization
   LCHIMAG   =     F  perturbation theory with respect to B field
   DQ        =  0.001000  dq finite difference perturbation B field
   LLRAUG    =     F  two centre corrections for induced B field
   LBONE     =     F  B-component reconstruction in AE one-centre
   LVGVCALC  =     T  calculate vGv susceptibility
   LVGVAPPL  =     F  apply vGv susceptibility instead of pGv for G=0

 Random number generation:
   RANDOM_GENERATOR = DEFAULT
   PCG_SEED         = not used


--------------------------------------------------------------------------------------------------------


 Static calculation
 charge density and potential will be updated during run
 non-spin polarized calculation
 Variant of blocked Davidson
 perform Loewdin sub-space diagonalisation
    ordering is kept fixed
    before iterative eigenvector-optimisation
 modified Broyden-mixing scheme, WC =      100.0
 initial mixing is a Kerker type mixing with AMIX =  0.4000 and BMIX =      1.0000
 Hartree-type preconditioning will be used
 using additional bands           30
 reciprocal scheme for non local part
 use partial core corrections
 calculate Harris-corrections to forces   (improved forces if not selfconsistent)
 use gradient corrections 
 use of overlap-Matrix (Vanderbilt PP)
 Gauss-broadening in eV      SIGMA  =   0.10


--------------------------------------------------------------------------------------------------------


  energy-cutoff  :     1200.00
  volume of cell :     5349.01
      direct lattice vectors                 reciprocal lattice vectors
    14.531892074  0.000000000  0.000000000     0.068814164  0.000000000  0.000000000
     0.000000000 14.531892074  0.000000000     0.000000000  0.068814164  0.000000000
     0.000000000  0.000000000 25.329621900     0.000000000  0.000000000  0.039479468

  length of vectors
    14.531892074 14.531892074 25.329621900     0.068814164  0.068814164  0.039479468



 old parameters found on file WAVECAR:
  energy-cutoff  :     1200.00
  volume of cell :     5349.01
      direct lattice vectors                 reciprocal lattice vectors
    14.531892074  0.000000000  0.000000000     0.068814164  0.000000000  0.000000000
     0.000000000 14.531892074  0.000000000     0.000000000  0.068814164  0.000000000
     0.000000000  0.000000000 25.329621900     0.000000000  0.000000000  0.039479468

  length of vectors


 k-points in units of 2pi/SCALE and weight: read from INCAR                         
   0.00000000  0.00000000  0.00000000       0.125
   0.03440708  0.00000000  0.00000000       0.125
   0.00000000  0.03440708  0.00000000       0.125
   0.03440708  0.03440708  0.00000000       0.125
   0.00000000  0.00000000  0.01973973       0.125
   0.03440708  0.00000000  0.01973973       0.125
   0.00000000  0.03440708  0.01973973       0.125
   0.03440708  0.03440708  0.01973973       0.125

 k-points in reciprocal lattice and weights: read from INCAR                         
   0.00000000  0.00000000  0.00000000       0.125
   0.50000000  0.00000000  0.00000000       0.125
   0.00000000  0.50000000  0.00000000       0.125
   0.50000000  0.50000000  0.00000000       0.125
   0.00000000  0.00000000  0.50000000       0.125
   0.50000000  0.00000000  0.50000000       0.125
   0.00000000  0.50000000  0.50000000       0.125
   0.50000000  0.50000000  0.50000000       0.125

 position of ions in fractional coordinates (direct lattice) 
   0.61516528  0.69006615  0.38140819
   0.65303669  0.41563876  0.42693744
   0.14251461  0.35235707  0.62285593
   0.06833480  0.08183923  0.44749060
   0.63063997  0.42962905  0.48379879
   0.41846369  0.01922690  0.59103839
   0.11565218  0.90866523  0.52449047
   0.51367951  0.65616005  0.55723595
   0.79318840  0.71987074  0.45756949
   0.82851641  0.93664735  0.50022124
   0.12867002  0.53648797  0.53443984
   0.54632541  0.56351537  0.48185111
   0.64104311  0.67060949  0.43663599
   0.45173756  0.26055589  0.43151067
   0.90222501  0.04237389  0.55735724
   0.73017348  0.81933198  0.53061230
   0.06276492  0.91340383  0.43441461
   0.13120067  0.26408419  0.50423168
   0.53921087  0.06761087  0.53666039
   0.98972634  0.22418699  0.46397526
   0.26033276  0.92493736  0.48905701
   0.86753265  0.18221396  0.51815724
   0.98233082  0.36791075  0.42568794
   0.30562188  0.07394704  0.46916106
   0.19097633  0.69255895  0.45334398
   0.77155229  0.27090357  0.57064599
   0.16555210  0.15086950  0.57997145
   0.08573554  0.28333551  0.59328287
   0.54230335  0.30191876  0.50475131
   0.37515944  0.80485945  0.40144428
   0.64150787  0.19192656  0.53520165
   0.18226364  0.41376827  0.48323727
   0.92507179  0.83038157  0.45760469
   0.38539856  0.28181511  0.51804860
   0.74002164  0.16251804  0.46443641
   0.05927847  0.05112581  0.54027887
   0.46147753  0.10465194  0.45161462
   0.33575742  0.42907058  0.50000044
   0.09065196  0.78177748  0.57719440
   0.08709602  0.57492288  0.43961560
   0.36435162  0.71919666  0.54248678
   0.34825550  0.67189895  0.45163052
   0.77161930  0.41522679  0.52763507
   0.19789796  0.17368747  0.43267575
   0.88317309  0.46554523  0.46843681
   0.58570405  0.76782866  0.50348127
   0.57613569  0.99393269  0.45684458
   0.11982332  0.43591409  0.39881618
   0.38484490  0.88258697  0.53859025
   0.81759373  0.69091307  0.54943455
   0.73185554  0.01124985  0.43871374
   0.40936238  0.52527672  0.43938509
   0.84457227  0.53709608  0.57143419
   0.96611871  0.73197074  0.52712327
   0.32006581  0.13734045  0.55341263
   0.20996169  0.83888395  0.41706537
   0.20426902  0.68177375  0.54569402
   0.48191936  0.86778009  0.46476657
   0.97681034  0.57250841  0.51307695

 position of ions in cartesian coordinates  (Angst):
   8.93951552 10.02796676  9.66092528
   9.48985875  6.04001759 10.81416398
   2.07100686  5.12041494 15.77670529
   0.99303387  1.18927880 11.33476761
   9.16439196  6.24332297 12.25444048
   6.08106912  0.27940330 14.97077883
   1.68064495 13.20462506 13.28514523
   7.46473516  9.53524707 14.11457591
  11.52652824 10.46108396 11.59006229
  12.03991098 13.61125817 12.67041494
   1.86981884  7.79618528 13.53715899
   7.93914185  8.18894461 12.20510641
   9.31556923  9.74522468 11.05982461
   6.56460146  3.78637012 10.93000223
  13.11103654  0.61577280 14.11764821
  10.61080227 11.90644396 13.44020900
   0.91209300 13.27348587 11.00355792
   1.90659396  3.83764290 12.77199771
   7.83575423  0.98251380 13.59340488
  14.38259639  3.25786121 11.75231801
   3.78312756 13.44108993 12.38762912
  12.60689087  2.64791365 13.12472693
  14.27512546  5.34643930 10.78251456
   4.44126418  1.07459046 11.88367222
   2.77524737 10.06419189 11.48303171
  11.21211457  3.93674146 14.45424707
   2.40578525  2.19241925 14.69045753
   1.24589962  4.11740102 15.02763090
   7.88069381  4.38745082 12.78515994
   5.45177647 11.69613065 10.16843180
   9.32232307  2.78905612 13.55645535
   2.64863550  6.01283585 12.24021738
  13.44304341 12.06701533 11.59095385
   5.60057029  4.09530675 13.12197521
  10.75391459  2.36169455 11.76399857
   0.86142840  0.74295473 13.68505940
   6.70614170  1.52079063 11.43922757
   4.87919065  6.23520742 12.66482209
   1.31734451 11.36070594 14.62011592
   1.26566995  8.35471729 11.13529704
   5.29471838 10.45128820 13.74098514
   5.06081127  9.76396301 11.43963033
  11.21308834  6.03403088 13.36479681
   2.87583174  2.52400757 10.95951324
  12.83417597  6.76525300 11.86532720
   8.51138811 11.15800321 12.75299017
   8.37234168 14.44372256 11.57170041
   1.74125961  6.33465658 10.10186307
   5.59252448 12.82565860 13.64228734
  11.88118386 10.04027410 13.91696948
  10.63524567  0.16348158 11.11245316
   5.94880997  7.63326457 11.12945817
  12.27323311  7.80502231 14.47421197
  14.03953285 10.63691973 13.35183312
   4.65116177  1.99581655 14.01773273
   3.05114065 12.19057100 10.56410817
   2.96841541  9.90746261 13.82222311
   7.00320011 12.61048662 11.77236152
  14.19490248  8.31963039 12.99604513



--------------------------------------------------------------------------------------------------------


 k-point     1 :   0.0000 0.0000 0.0000  plane waves:  504799
 k-point     2 :   0.5000 0.0000 0.0000  plane waves:  504982
 k-point     3 :   0.0000 0.5000 0.0000  plane waves:  504982
 k-point     4 :   0.5000 0.5000 0.0000  plane waves:  504756
 k-point     5 :   0.0000 0.0000 0.5000  plane waves:  504648
 k-point     6 :   0.5000 0.0000 0.5000  plane waves:  504860
 k-point     7 :   0.0000 0.5000 0.5000  plane waves:  504860
 k-point     8 :   0.5000 0.5000 0.5000  plane waves:  505168

 maximum and minimum number of plane-waves per node :     31680    31467

 maximum number of plane-waves:    505168
 maximum index in each direction: 
   IXMAX=   41   IYMAX=   41   IZMAX=   71
   IXMIN=  -41   IYMIN=  -41   IZMIN=  -72


 parallel 3D FFT for wavefunctions:
    minimum data exchange during FFTs selected (reduces bandwidth)
 parallel 3D FFT for charge:
    minimum data exchange during FFTs selected (reduces bandwidth)


 total amount of memory used by VASP MPI-rank0   338614. kBytes
=======================================================================

   base                                    :      30000. kBytes
   nonl-proj                               :      62157. kBytes
   fftplans                                :      97997. kBytes
   grid                                    :      75605. kBytes
   one-center                              :         12. kBytes
   wavefun                                 :      72843. kBytes

     INWAV:  cpu time     22.0842: real time     22.0967
 Broyden mixing: mesh for mixing (old mesh)
   NGX = 83   NGY = 83   NGZ =143
  (NGX  =336   NGY  =336   NGZ  =576)
  gives a total of 985127 points

 initial charge density was supplied:
 number of electron     226.9999999 magnetization 
 keeping initial charge density in first step


--------------------------------------------------------------------------------------------------------


 Maximum index for augmentation-charges        11346 (set IRDMAX)


--------------------------------------------------------------------------------------------------------


 First call to EWALD:  gamma=   0.101
 Maximum number of real-space cells   3x   3x   2
 Maximum number of reciprocal cells   2x   2x   4

    FEWALD:  cpu time      0.0111: real time      0.0113


--------------------------------------- Ionic step        1  -------------------------------------------




--------------------------------------- Iteration      1(   1)  ---------------------------------------


    POTLOK:  cpu time      1.9168: real time      1.9180
    SETDIJ:  cpu time      1.2810: real time      1.2817
    EDDIAG:  cpu time     42.9588: real time     42.9794
     EDDAV:  cpu time    186.4398: real time    186.5388
       DOS:  cpu time      0.0076: real time      0.0078
    CHARGE:  cpu time     24.5262: real time     24.5492
    MIXING:  cpu time      0.0441: real time      0.0453
    --------------------------------------------
      LOOP:  cpu time    257.1745: real time    257.3202

 eigenvalue-minimisations  :  2304
 total energy-change (2. order) :-0.5680207E+03  (-0.6463560E+00)
 number of electron     226.9999999 magnetization 
 augmentation part      -12.7942776 magnetization 

 Broyden mixing:
  rms(total) = 0.90275E+00    rms(broyden)= 0.23221E+02
  rms(prec ) = 0.93358E+00
  weight for this iteration     100.00
  WARNING: grid for Broyden might be to small

 Free energy of the ion-electron system (eV)
  ---------------------------------------------------
  alpha Z        PSCENC =        20.31040391
  Ewald energy   TEWEN  =     25148.18936138
  -Hartree energ DENC   =    -30078.82315170
  -exchange      EXHF   =         0.00000000
  -V(xc)+E(xc)   XCENC  =      -268.90439398
  PAW double counting   =     20789.75785171   -20231.44042012
  entropy T*S    EENTRO =        -0.11876000
  eigenvalues    EBANDS =     -1756.19946572
  atomic energy  EATOM  =      5809.20788974
  Solvation  Ediel_sol  =         0.00000000
  ---------------------------------------------------
  free energy    TOTEN  =      -568.02068478 eV

  energy without entropy =     -567.90192478  energy(sigma->0) =     -567.96130478


--------------------------------------------------------------------------------------------------------




--------------------------------------- Iteration      1(   2)  ---------------------------------------


    POTLOK:  cpu time      1.8905: real time      1.9147
    SETDIJ:  cpu time      1.2765: real time      1.2774
    EDDIAG:  cpu time     43.1464: real time     43.1707
     EDDAV:  cpu time    189.2629: real time    189.3630
       DOS:  cpu time      0.0026: real time      0.0026
    CHARGE:  cpu time     24.4690: real time     24.4907
    MIXING:  cpu time      0.0392: real time      0.0392
    --------------------------------------------
      LOOP:  cpu time    260.0870: real time    260.2582

 eigenvalue-minimisations  :  2352
 total energy-change (2. order) : 0.3941580E+02  (-0.6251564E+00)
 number of electron     226.9999999 magnetization 
 augmentation part      -12.7509296 magnetization 

 Broyden mixing:
  rms(total) = 0.61664E+00    rms(broyden)= 0.13414E+02
  rms(prec ) = 0.63190E+00
  weight for this iteration     100.00
  WARNING: grid for Broyden might be to small

 eigenvalues of (default mixing * dielectric matrix)
  average eigenvalue GAMMA=   0.6339
  0.6339

 Free energy of the ion-electron system (eV)
  ---------------------------------------------------
  alpha Z        PSCENC =        20.31040391
  Ewald energy   TEWEN  =     25148.18936138
  -Hartree energ DENC   =    -30069.53722413
  -exchange      EXHF   =         0.00000000
  -V(xc)+E(xc)   XCENC  =      -263.48771150
  PAW double counting   =     24758.74130653   -24200.29009396
  entropy T*S    EENTRO =        -0.11549946
  eigenvalues    EBANDS =     -1731.62332176
  atomic energy  EATOM  =      5809.20788974
  Solvation  Ediel_sol  =         0.00000000
  ---------------------------------------------------
  free energy    TOTEN  =      -528.60488925 eV

  energy without entropy =     -528.48938979  energy(sigma->0) =     -528.54713952


--------------------------------------------------------------------------------------------------------




--------------------------------------- Iteration      1(   3)  ---------------------------------------


    POTLOK:  cpu time      1.8827: real time      1.9107
    SETDIJ:  cpu time      1.2788: real time      1.2795
    EDDIAG:  cpu time     43.1690: real time     43.1929
     EDDAV:  cpu time    187.2922: real time    187.3925
       DOS:  cpu time      0.0024: real time      0.0024
    CHARGE:  cpu time     24.4579: real time     24.4809
    MIXING:  cpu time      0.0376: real time      0.0376
    --------------------------------------------
      LOOP:  cpu time    258.1206: real time    258.2965

 eigenvalue-minimisations  :  2304
 total energy-change (2. order) :-0.1749846E+01  (-0.5058545E+00)
 number of electron     226.9999999 magnetization 
 augmentation part      -12.7093799 magnetization 

 Broyden mixing:
  rms(total) = 0.26670E+00    rms(broyden)= 0.18568E+02
  rms(prec ) = 0.32639E+00
  weight for this iteration     100.00
  WARNING: grid for Broyden might be to small

 eigenvalues of (default mixing * dielectric matrix)
  average eigenvalue GAMMA=   0.7949
  0.9628  0.6271

 Free energy of the ion-electron system (eV)
  ---------------------------------------------------
  alpha Z        PSCENC =        20.31040391
  Ewald energy   TEWEN  =     25148.18936138
  -Hartree energ DENC   =    -30071.23938745
  -exchange      EXHF   =         0.00000000
  -V(xc)+E(xc)   XCENC  =      -264.80455512
  PAW double counting   =     29297.98538323   -28739.62122011
  entropy T*S    EENTRO =        -0.11386947
  eigenvalues    EBANDS =     -1730.26874094
  atomic energy  EATOM  =      5809.20788974
  Solvation  Ediel_sol  =         0.00000000
  ---------------------------------------------------
  free energy    TOTEN  =      -530.35473484 eV

  energy without entropy =     -530.24086537  energy(sigma->0) =     -530.29780011


--------------------------------------------------------------------------------------------------------




--------------------------------------- Iteration      1(   4)  ---------------------------------------


    POTLOK:  cpu time      1.8828: real time      1.9110
    SETDIJ:  cpu time      1.2767: real time      1.2776
    EDDIAG:  cpu time     43.2506: real time     43.2737
     EDDAV:  cpu time    190.8933: real time    190.9999
       DOS:  cpu time      0.0025: real time      0.0025
    CHARGE:  cpu time     24.4362: real time     24.4585
    MIXING:  cpu time      0.0373: real time      0.0373
    --------------------------------------------
      LOOP:  cpu time    261.7795: real time    261.9604

 eigenvalue-minimisations  :  2384
 total energy-change (2. order) : 0.2134699E+00  (-0.5279954E-01)
 number of electron     226.9999999 magnetization 
 augmentation part      -12.7042378 magnetization 

 Broyden mixing:
  rms(total) = 0.46267E-01    rms(broyden)= 0.17806E+01
  rms(prec ) = 0.55021E-01
  weight for this iteration     100.00
  WARNING: grid for Broyden might be to small

 eigenvalues of (default mixing * dielectric matrix)
  average eigenvalue GAMMA=   1.0890
  1.9584  0.6932  0.6155

 Free energy of the ion-electron system (eV)
  ---------------------------------------------------
  alpha Z        PSCENC =        20.31040391
  Ewald energy   TEWEN  =     25148.18936138
  -Hartree energ DENC   =    -30072.10224924
  -exchange      EXHF   =         0.00000000
  -V(xc)+E(xc)   XCENC  =      -265.23620273
  PAW double counting   =     33197.27958219   -32638.94954187
  entropy T*S    EENTRO =        -0.11426182
  eigenvalues    EBANDS =     -1728.72624654
  atomic energy  EATOM  =      5809.20788974
  Solvation  Ediel_sol  =         0.00000000
  ---------------------------------------------------
  free energy    TOTEN  =      -530.14126498 eV

  energy without entropy =     -530.02700316  energy(sigma->0) =     -530.08413407


--------------------------------------------------------------------------------------------------------




--------------------------------------- Iteration      1(   5)  ---------------------------------------


    POTLOK:  cpu time      1.9189: real time      1.9405
    SETDIJ:  cpu time      1.2734: real time      1.2742
    EDDIAG:  cpu time     43.2002: real time     43.2227
     EDDAV:  cpu time    210.8779: real time    210.9922
       DOS:  cpu time      0.0035: real time      0.0035
    CHARGE:  cpu time     24.4224: real time     24.4431
    MIXING:  cpu time      0.0373: real time      0.0374
    --------------------------------------------
      LOOP:  cpu time    281.7336: real time    281.9137

 eigenvalue-minimisations  :  2840
 total energy-change (2. order) :-0.2411408E-01  (-0.5920222E-02)
 number of electron     226.9999999 magnetization 
 augmentation part      -12.7063010 magnetization 

 Broyden mixing:
  rms(total) = 0.29723E-01    rms(broyden)= 0.29307E+00
  rms(prec ) = 0.34732E-01
  weight for this iteration     100.00
  WARNING: grid for Broyden might be to small

 eigenvalues of (default mixing * dielectric matrix)
  average eigenvalue GAMMA=   1.1248
  2.5203  0.8150  0.6249  0.5389

 Free energy of the ion-electron system (eV)
  ---------------------------------------------------
  alpha Z        PSCENC =        20.31040391
  Ewald energy   TEWEN  =     25148.18936138
  -Hartree energ DENC   =    -30072.04417294
  -exchange      EXHF   =         0.00000000
  -V(xc)+E(xc)   XCENC  =      -265.94874611
  PAW double counting   =     32778.29324900   -32219.94251312
  entropy T*S    EENTRO =        -0.11428934
  eigenvalues    EBANDS =     -1728.11656158
  atomic energy  EATOM  =      5809.20788974
  Solvation  Ediel_sol  =         0.00000000
  ---------------------------------------------------
  free energy    TOTEN  =      -530.16537906 eV

  energy without entropy =     -530.05108972  energy(sigma->0) =     -530.10823439


--------------------------------------------------------------------------------------------------------




--------------------------------------- Iteration      1(   6)  ---------------------------------------


    POTLOK:  cpu time      1.9023: real time      1.9325
    SETDIJ:  cpu time      1.2808: real time      1.2818
    EDDIAG:  cpu time     43.1669: real time     43.1889
     EDDAV:  cpu time    200.0249: real time    200.1311
       DOS:  cpu time      0.0042: real time      0.0042
    CHARGE:  cpu time     24.4451: real time     24.4664
    MIXING:  cpu time      0.0381: real time      0.0381
    --------------------------------------------
      LOOP:  cpu time    270.8623: real time    271.0430

 eigenvalue-minimisations  :  2600
 total energy-change (2. order) :-0.2168180E-02  (-0.1216365E-02)
 number of electron     226.9999999 magnetization 
 augmentation part      -12.7060342 magnetization 

 Broyden mixing:
  rms(total) = 0.19204E-01    rms(broyden)= 0.19746E+00
  rms(prec ) = 0.20415E-01
  weight for this iteration     100.00
  WARNING: grid for Broyden might be to small

 eigenvalues of (default mixing * dielectric matrix)
  average eigenvalue GAMMA=   1.0950
  2.5763  1.0453  0.6914  0.6240  0.5379

 Free energy of the ion-electron system (eV)
  ---------------------------------------------------
  alpha Z        PSCENC =        20.31040391
  Ewald energy   TEWEN  =     25148.18936138
  -Hartree energ DENC   =    -30072.11688111
  -exchange      EXHF   =         0.00000000
  -V(xc)+E(xc)   XCENC  =      -266.10130253
  PAW double counting   =     32691.69572768   -32133.33611179
  entropy T*S    EENTRO =        -0.11399151
  eigenvalues    EBANDS =     -1727.90264300
  atomic energy  EATOM  =      5809.20788974
  Solvation  Ediel_sol  =         0.00000000
  ---------------------------------------------------
  free energy    TOTEN  =      -530.16754724 eV

  energy without entropy =     -530.05355572  energy(sigma->0) =     -530.11055148


--------------------------------------------------------------------------------------------------------




--------------------------------------- Iteration      1(   7)  ---------------------------------------


    POTLOK:  cpu time      1.8829: real time      1.9117
    SETDIJ:  cpu time      1.2731: real time      1.2738
    EDDIAG:  cpu time     43.1645: real time     43.1891
     EDDAV:  cpu time    192.6867: real time    192.7908
       DOS:  cpu time      0.0024: real time      0.0024
    CHARGE:  cpu time     24.4737: real time     24.4953
    MIXING:  cpu time      0.0386: real time      0.0386
    --------------------------------------------
      LOOP:  cpu time    263.5218: real time    263.7017

 eigenvalue-minimisations  :  2432
 total energy-change (2. order) :-0.1386978E-02  (-0.7308557E-03)
 number of electron     226.9999999 magnetization 
 augmentation part      -12.7045294 magnetization 

 Broyden mixing:
  rms(total) = 0.63704E-02    rms(broyden)= 0.73965E-01
  rms(prec ) = 0.69591E-02
  weight for this iteration     100.00
  WARNING: grid for Broyden might be to small

 eigenvalues of (default mixing * dielectric matrix)
  average eigenvalue GAMMA=   1.0983
  2.5639  1.3457  0.8667  0.6378  0.6378  0.5380

 Free energy of the ion-electron system (eV)
  ---------------------------------------------------
  alpha Z        PSCENC =        20.31040391
  Ewald energy   TEWEN  =     25148.18936138
  -Hartree energ DENC   =    -30072.22939061
  -exchange      EXHF   =         0.00000000
  -V(xc)+E(xc)   XCENC  =      -265.99128031
  PAW double counting   =     32680.25009578   -32121.87837220
  entropy T*S    EENTRO =        -0.11460761
  eigenvalues    EBANDS =     -1727.91303429
  atomic energy  EATOM  =      5809.20788974
  Solvation  Ediel_sol  =         0.00000000
  ---------------------------------------------------
  free energy    TOTEN  =      -530.16893421 eV

  energy without entropy =     -530.05432660  energy(sigma->0) =     -530.11163041


--------------------------------------------------------------------------------------------------------




--------------------------------------- Iteration      1(   8)  ---------------------------------------


    POTLOK:  cpu time      1.8833: real time      1.9115
    SETDIJ:  cpu time      1.2810: real time      1.2817
    EDDIAG:  cpu time     43.2252: real time     43.2472
     EDDAV:  cpu time    206.1328: real time    206.2402
       DOS:  cpu time      0.0035: real time      0.0035
    CHARGE:  cpu time     24.4706: real time     24.4930
    MIXING:  cpu time      0.0398: real time      0.0398
    --------------------------------------------
      LOOP:  cpu time    277.0361: real time    277.2169

 eigenvalue-minimisations  :  2736
 total energy-change (2. order) :-0.2249162E-03  (-0.9024431E-04)
 number of electron     226.9999999 magnetization 
 augmentation part      -12.7045698 magnetization 

 Broyden mixing:
  rms(total) = 0.24326E-02    rms(broyden)= 0.51753E-01
  rms(prec ) = 0.28262E-02
  weight for this iteration     100.00
  WARNING: grid for Broyden might be to small

 eigenvalues of (default mixing * dielectric matrix)
  average eigenvalue GAMMA=   1.2284
  2.5214  2.5214  0.9743  0.7924  0.6332  0.6332  0.5226

 Free energy of the ion-electron system (eV)
  ---------------------------------------------------
  alpha Z        PSCENC =        20.31040391
  Ewald energy   TEWEN  =     25148.18936138
  -Hartree energ DENC   =    -30072.10606751
  -exchange      EXHF   =         0.00000000
  -V(xc)+E(xc)   XCENC  =      -265.99660900
  PAW double counting   =     32713.31501921   -32154.93977434
  entropy T*S    EENTRO =        -0.11425880
  eigenvalues    EBANDS =     -1728.03512371
  atomic energy  EATOM  =      5809.20788974
  Solvation  Ediel_sol  =         0.00000000
  ---------------------------------------------------
  free energy    TOTEN  =      -530.16915913 eV

  energy without entropy =     -530.05490033  energy(sigma->0) =     -530.11202973


--------------------------------------------------------------------------------------------------------




--------------------------------------- Iteration      1(   9)  ---------------------------------------


    POTLOK:  cpu time      1.8812: real time      1.9065
    SETDIJ:  cpu time      1.2779: real time      1.2787
    EDDIAG:  cpu time     43.2498: real time     43.2718
     EDDAV:  cpu time    195.6952: real time    195.7982
       DOS:  cpu time      0.0052: real time      0.0052
    CHARGE:  cpu time     24.5002: real time     24.5227
    MIXING:  cpu time      0.0397: real time      0.0397
    --------------------------------------------
      LOOP:  cpu time    266.6496: real time    266.8231

 eigenvalue-minimisations  :  2504
 total energy-change (2. order) :-0.3134676E-04  (-0.3258089E-04)
 number of electron     226.9999999 magnetization 
 augmentation part      -12.7046662 magnetization 

 Broyden mixing:
  rms(total) = 0.15154E-02    rms(broyden)= 0.31991E-01
  rms(prec ) = 0.17333E-02
  weight for this iteration     100.00
  WARNING: grid for Broyden might be to small

 eigenvalues of (default mixing * dielectric matrix)
  average eigenvalue GAMMA=   1.3219
  3.5123  2.5786  1.0963  0.8609  0.7647  0.5110  0.6255  0.6255

 Free energy of the ion-electron system (eV)
  ---------------------------------------------------
  alpha Z        PSCENC =        20.31040391
  Ewald energy   TEWEN  =     25148.18936138
  -Hartree energ DENC   =    -30071.97068684
  -exchange      EXHF   =         0.00000000
  -V(xc)+E(xc)   XCENC  =      -266.01369325
  PAW double counting   =     32716.20555524   -32157.82946478
  entropy T*S    EENTRO =        -0.11436366
  eigenvalues    EBANDS =     -1728.15419221
  atomic energy  EATOM  =      5809.20788974
  Solvation  Ediel_sol  =         0.00000000
  ---------------------------------------------------
  free energy    TOTEN  =      -530.16919048 eV

  energy without entropy =     -530.05482681  energy(sigma->0) =     -530.11200865


--------------------------------------------------------------------------------------------------------




--------------------------------------- Iteration      1(  10)  ---------------------------------------


    POTLOK:  cpu time      1.8838: real time      1.9130
    SETDIJ:  cpu time      1.2738: real time      1.2745
    EDDIAG:  cpu time     43.1665: real time     43.1898
     EDDAV:  cpu time    194.6836: real time    194.7922
       DOS:  cpu time      0.0040: real time      0.0041
    CHARGE:  cpu time     24.4837: real time     24.5058
    MIXING:  cpu time      0.0407: real time      0.0407
    --------------------------------------------
      LOOP:  cpu time    265.5358: real time    265.7197

 eigenvalue-minimisations  :  2480
 total energy-change (2. order) :-0.5778957E-04  (-0.1562728E-04)
 number of electron     226.9999999 magnetization 
 augmentation part      -12.7046952 magnetization 

 Broyden mixing:
  rms(total) = 0.78251E-03    rms(broyden)= 0.25958E-01
  rms(prec ) = 0.98201E-03
  weight for this iteration     100.00
  WARNING: grid for Broyden might be to small

 eigenvalues of (default mixing * dielectric matrix)
  average eigenvalue GAMMA=   1.4329
  4.7025  2.5682  1.4446  0.9257  0.7819  0.5079  0.7238  0.6207  0.6207

 Free energy of the ion-electron system (eV)
  ---------------------------------------------------
  alpha Z        PSCENC =        20.31040391
  Ewald energy   TEWEN  =     25148.18936138
  -Hartree energ DENC   =    -30071.84886690
  -exchange      EXHF   =         0.00000000
  -V(xc)+E(xc)   XCENC  =      -266.01889109
  PAW double counting   =     32713.28944068   -32154.91259211
  entropy T*S    EENTRO =        -0.11433293
  eigenvalues    EBANDS =     -1728.27166095
  atomic energy  EATOM  =      5809.20788974
  Solvation  Ediel_sol  =         0.00000000
  ---------------------------------------------------
  free energy    TOTEN  =      -530.16924827 eV

  energy without entropy =     -530.05491533  energy(sigma->0) =     -530.11208180


--------------------------------------------------------------------------------------------------------




--------------------------------------- Iteration      1(  11)  ---------------------------------------


    POTLOK:  cpu time      1.9043: real time      1.9092
    SETDIJ:  cpu time      1.2801: real time      1.2815
    EDDIAG:  cpu time     43.2210: real time     43.2459
     EDDAV:  cpu time    192.9341: real time    193.0381
       DOS:  cpu time      0.0024: real time      0.0024
    CHARGE:  cpu time     24.4720: real time     24.4954
    MIXING:  cpu time      0.0414: real time      0.0414
    --------------------------------------------
      LOOP:  cpu time    263.8553: real time    264.0139

 eigenvalue-minimisations  :  2440
 total energy-change (2. order) :-0.6593570E-04  (-0.1438800E-04)
 number of electron     226.9999999 magnetization 
 augmentation part      -12.7047140 magnetization 

 Broyden mixing:
  rms(total) = 0.36815E-03    rms(broyden)= 0.19164E-01
  rms(prec ) = 0.54302E-03
  weight for this iteration     100.00
  WARNING: grid for Broyden might be to small

 eigenvalues of (default mixing * dielectric matrix)
  average eigenvalue GAMMA=   1.7278
  7.1937  2.5117  2.4545  1.0526  0.9136  0.7442  0.5077  0.6589  0.6204  0.6204

 Free energy of the ion-electron system (eV)
  ---------------------------------------------------
  alpha Z        PSCENC =        20.31040391
  Ewald energy   TEWEN  =     25148.18936138
  -Hartree energ DENC   =    -30071.71799429
  -exchange      EXHF   =         0.00000000
  -V(xc)+E(xc)   XCENC  =      -266.02292443
  PAW double counting   =     32711.28951884   -32152.91224992
  entropy T*S    EENTRO =        -0.11433954
  eigenvalues    EBANDS =     -1728.39897989
  atomic energy  EATOM  =      5809.20788974
  Solvation  Ediel_sol  =         0.00000000
  ---------------------------------------------------
  free energy    TOTEN  =      -530.16931420 eV

  energy without entropy =     -530.05497467  energy(sigma->0) =     -530.11214443


--------------------------------------------------------------------------------------------------------




--------------------------------------- Iteration      1(  12)  ---------------------------------------


    POTLOK:  cpu time      1.8854: real time      1.9137
    SETDIJ:  cpu time      1.2764: real time      1.2775
    EDDIAG:  cpu time     43.1548: real time     43.1777
     EDDAV:  cpu time    192.6306: real time    192.7356
       DOS:  cpu time      0.0024: real time      0.0024
    CHARGE:  cpu time     24.4896: real time     24.5127
    MIXING:  cpu time      0.0417: real time      0.0417
    --------------------------------------------
      LOOP:  cpu time    263.4810: real time    263.6612

 eigenvalue-minimisations  :  2432
 total energy-change (2. order) :-0.7496431E-04  (-0.1082919E-04)
 number of electron     226.9999999 magnetization 
 augmentation part      -12.7047621 magnetization 

 Broyden mixing:
  rms(total) = 0.20973E-03    rms(broyden)= 0.15933E-01
  rms(prec ) = 0.37914E-03
  weight for this iteration     100.00
  WARNING: grid for Broyden might be to small

 eigenvalues of (default mixing * dielectric matrix)
  average eigenvalue GAMMA=   1.8978
  9.1394  2.6880  2.6880  1.2704  1.0700  0.8805  0.7535  0.5071  0.6375  0.6340
  0.6068

 Free energy of the ion-electron system (eV)
  ---------------------------------------------------
  alpha Z        PSCENC =        20.31040391
  Ewald energy   TEWEN  =     25148.18936138
  -Hartree energ DENC   =    -30071.62234379
  -exchange      EXHF   =         0.00000000
  -V(xc)+E(xc)   XCENC  =      -266.02904609
  PAW double counting   =     32713.10827159   -32154.73124998
  entropy T*S    EENTRO =        -0.11433680
  eigenvalues    EBANDS =     -1728.48833913
  atomic energy  EATOM  =      5809.20788974
  Solvation  Ediel_sol  =         0.00000000
  ---------------------------------------------------
  free energy    TOTEN  =      -530.16938917 eV

  energy without entropy =     -530.05505237  energy(sigma->0) =     -530.11222077


--------------------------------------------------------------------------------------------------------




--------------------------------------- Iteration      1(  13)  ---------------------------------------


    POTLOK:  cpu time      1.8732: real time      1.9029
    SETDIJ:  cpu time      1.2841: real time      1.2849
    EDDIAG:  cpu time     43.1798: real time     43.2032
     EDDAV:  cpu time    192.6800: real time    192.7859
       DOS:  cpu time      0.0040: real time      0.0040
    CHARGE:  cpu time     24.4348: real time     24.4571
    MIXING:  cpu time      0.0428: real time      0.0428
    --------------------------------------------
      LOOP:  cpu time    263.4987: real time    263.6807

 eigenvalue-minimisations  :  2432
 total energy-change (2. order) :-0.8894525E-04  (-0.1598031E-04)
 number of electron     226.9999999 magnetization 
 augmentation part      -12.7047863 magnetization 

 Broyden mixing:
  rms(total) = 0.13414E-03    rms(broyden)= 0.12677E-01
  rms(prec ) = 0.26908E-03
  weight for this iteration     100.00
  WARNING: grid for Broyden might be to small

 eigenvalues of (default mixing * dielectric matrix)
  average eigenvalue GAMMA=   1.8812
  9.7032  2.7638  2.7638  1.5026  1.0774  0.8967  0.7755  0.5069  0.6721  0.6497
  0.6497  0.6133

 Free energy of the ion-electron system (eV)
  ---------------------------------------------------
  alpha Z        PSCENC =        20.31040391
  Ewald energy   TEWEN  =     25148.18936138
  -Hartree energ DENC   =    -30071.51407507
  -exchange      EXHF   =         0.00000000
  -V(xc)+E(xc)   XCENC  =      -266.03253580
  PAW double counting   =     32712.92372260   -32154.54692090
  entropy T*S    EENTRO =        -0.11432744
  eigenvalues    EBANDS =     -1728.59299653
  atomic energy  EATOM  =      5809.20788974
  Solvation  Ediel_sol  =         0.00000000
  ---------------------------------------------------
  free energy    TOTEN  =      -530.16947811 eV

  energy without entropy =     -530.05515067  energy(sigma->0) =     -530.11231439


--------------------------------------------------------------------------------------------------------




--------------------------------------- Iteration      1(  14)  ---------------------------------------


    POTLOK:  cpu time      1.9139: real time      1.9154
    SETDIJ:  cpu time      1.2693: real time      1.2701
    EDDIAG:  cpu time     43.1842: real time     43.2079
     EDDAV:  cpu time    194.0188: real time    194.1229
       DOS:  cpu time      0.0037: real time      0.0037
    CHARGE:  cpu time     24.4692: real time     24.4913
    MIXING:  cpu time      0.0435: real time      0.0436
    --------------------------------------------
      LOOP:  cpu time    264.9027: real time    265.0549

 eigenvalue-minimisations  :  2464
 total energy-change (2. order) :-0.8643727E-04  (-0.1328368E-04)
 number of electron     226.9999999 magnetization 
 augmentation part      -12.7048027 magnetization 

 Broyden mixing:
  rms(total) = 0.10338E-03    rms(broyden)= 0.89319E-02
  rms(prec ) = 0.18509E-03
  weight for this iteration     100.00
  WARNING: grid for Broyden might be to small

 eigenvalues of (default mixing * dielectric matrix)
  average eigenvalue GAMMA=   1.8553
  9.8852  2.9710  2.7066  1.7184  1.1316  1.0722  0.8391  0.7966  0.5069  0.6446
  0.6302  0.6083  0.6083

 Free energy of the ion-electron system (eV)
  ---------------------------------------------------
  alpha Z        PSCENC =        20.31040391
  Ewald energy   TEWEN  =     25148.18936138
  -Hartree energ DENC   =    -30071.41897289
  -exchange      EXHF   =         0.00000000
  -V(xc)+E(xc)   XCENC  =      -266.03395197
  PAW double counting   =     32712.61605196   -32154.23936179
  entropy T*S    EENTRO =        -0.11433422
  eigenvalues    EBANDS =     -1728.68665068
  atomic energy  EATOM  =      5809.20788974
  Solvation  Ediel_sol  =         0.00000000
  ---------------------------------------------------
  free energy    TOTEN  =      -530.16956455 eV

  energy without entropy =     -530.05523033  energy(sigma->0) =     -530.11239744


--------------------------------------------------------------------------------------------------------




--------------------------------------- Iteration      1(  15)  ---------------------------------------


    POTLOK:  cpu time      1.8981: real time      1.9106
    SETDIJ:  cpu time      1.2756: real time      1.2762
    EDDIAG:  cpu time     43.2279: real time     43.2490
     EDDAV:  cpu time    192.6004: real time    192.7047
       DOS:  cpu time      0.0113: real time      0.0120
    CHARGE:  cpu time     24.4742: real time     24.5146
    MIXING:  cpu time      0.0586: real time      0.0602
    --------------------------------------------
      LOOP:  cpu time    263.5460: real time    263.7273

 eigenvalue-minimisations  :  2432
 total energy-change (2. order) :-0.5007800E-04  (-0.7811515E-05)
 number of electron     226.9999999 magnetization 
 augmentation part      -12.7048110 magnetization 

 Broyden mixing:
  rms(total) = 0.75471E-04    rms(broyden)= 0.60019E-02
  rms(prec ) = 0.12558E-03
  weight for this iteration     100.00
  WARNING: grid for Broyden might be to small

 eigenvalues of (default mixing * dielectric matrix)
  average eigenvalue GAMMA=   1.8525
  9.9740  3.2472  2.6310  2.2677  1.3375  1.0552  0.8757  0.8469  0.7190  0.5069
  0.6449  0.6103  0.6103  0.6087

 Free energy of the ion-electron system (eV)
  ---------------------------------------------------
  alpha Z        PSCENC =        20.31040391
  Ewald energy   TEWEN  =     25148.18936138
  -Hartree energ DENC   =    -30071.35535435
  -exchange      EXHF   =         0.00000000
  -V(xc)+E(xc)   XCENC  =      -266.03448956
  PAW double counting   =     32712.73410476   -32154.35748616
  entropy T*S    EENTRO =        -0.11433105
  eigenvalues    EBANDS =     -1728.74971331
  atomic energy  EATOM  =      5809.20788974
  Solvation  Ediel_sol  =         0.00000000
  ---------------------------------------------------
  free energy    TOTEN  =      -530.16961463 eV

  energy without entropy =     -530.05528358  energy(sigma->0) =     -530.11244910


--------------------------------------------------------------------------------------------------------




--------------------------------------- Iteration      1(  16)  ---------------------------------------


    POTLOK:  cpu time      1.8829: real time      1.9127
    SETDIJ:  cpu time      1.2803: real time      1.2822
    EDDIAG:  cpu time     43.1816: real time     43.2052
     EDDAV:  cpu time    192.5287: real time    192.6377
       DOS:  cpu time      0.0029: real time      0.0029
    CHARGE:  cpu time     24.4712: real time     24.4930
    MIXING:  cpu time      0.0457: real time      0.0457
    --------------------------------------------
      LOOP:  cpu time    263.3934: real time    263.5794

 eigenvalue-minimisations  :  2432
 total energy-change (2. order) :-0.3600903E-04  (-0.5854082E-05)
 number of electron     226.9999999 magnetization 
 augmentation part      -12.7048278 magnetization 

 Broyden mixing:
  rms(total) = 0.43421E-04    rms(broyden)= 0.34465E-02
  rms(prec ) = 0.70637E-04
  weight for this iteration     100.00
  WARNING: grid for Broyden might be to small

 eigenvalues of (default mixing * dielectric matrix)
  average eigenvalue GAMMA=   1.8426
  9.9922  3.4099  2.5738  2.5738  1.3417  1.3417  0.9780  0.9147  0.8379  0.5070
  0.6936  0.6375  0.6236  0.6236  0.5892

 Free energy of the ion-electron system (eV)
  ---------------------------------------------------
  alpha Z        PSCENC =        20.31040391
  Ewald energy   TEWEN  =     25148.18936138
  -Hartree energ DENC   =    -30071.29735742
  -exchange      EXHF   =         0.00000000
  -V(xc)+E(xc)   XCENC  =      -266.03549399
  PAW double counting   =     32712.91988749   -32154.54331910
  entropy T*S    EENTRO =        -0.11432775
  eigenvalues    EBANDS =     -1728.80669489
  atomic energy  EATOM  =      5809.20788974
  Solvation  Ediel_sol  =         0.00000000
  ---------------------------------------------------
  free energy    TOTEN  =      -530.16965064 eV

  energy without entropy =     -530.05532288  energy(sigma->0) =     -530.11248676


--------------------------------------------------------------------------------------------------------




--------------------------------------- Iteration      1(  17)  ---------------------------------------


    POTLOK:  cpu time      1.8902: real time      1.9179
    SETDIJ:  cpu time      1.2821: real time      1.2829
    EDDIAG:  cpu time     43.2610: real time     43.2830
     EDDAV:  cpu time    189.4388: real time    189.5404
       DOS:  cpu time      0.0048: real time      0.0048
    CHARGE:  cpu time     24.5006: real time     24.5223
    MIXING:  cpu time      0.0461: real time      0.0461
    --------------------------------------------
      LOOP:  cpu time    260.4237: real time    260.5974

 eigenvalue-minimisations  :  2352
 total energy-change (2. order) :-0.1180581E-04  (-0.1490210E-05)
 number of electron     226.9999999 magnetization 
 augmentation part      -12.7048325 magnetization 

 Broyden mixing:
  rms(total) = 0.29677E-04    rms(broyden)= 0.22601E-02
  rms(prec ) = 0.47999E-04
  weight for this iteration     100.00
  WARNING: grid for Broyden might be to small

 eigenvalues of (default mixing * dielectric matrix)
  average eigenvalue GAMMA=   1.8185
  9.9980  3.5695  2.6403  2.6403  1.6298  1.3915  0.9938  0.9453  0.8106  0.8106
  0.5070  0.6892  0.6295  0.6295  0.6231  0.5882

 Free energy of the ion-electron system (eV)
  ---------------------------------------------------
  alpha Z        PSCENC =        20.31040391
  Ewald energy   TEWEN  =     25148.18936138
  -Hartree energ DENC   =    -30071.27482146
  -exchange      EXHF   =         0.00000000
  -V(xc)+E(xc)   XCENC  =      -266.03563922
  PAW double counting   =     32712.75166099   -32154.37507520
  entropy T*S    EENTRO =        -0.11432864
  eigenvalues    EBANDS =     -1728.82911395
  atomic energy  EATOM  =      5809.20788974
  Solvation  Ediel_sol  =         0.00000000
  ---------------------------------------------------
  free energy    TOTEN  =      -530.16966244 eV

  energy without entropy =     -530.05533381  energy(sigma->0) =     -530.11249812


--------------------------------------------------------------------------------------------------------




--------------------------------------- Iteration      1(  18)  ---------------------------------------


    POTLOK:  cpu time      1.9107: real time      1.9123
    SETDIJ:  cpu time      1.3214: real time      1.3222
    EDDIAG:  cpu time     43.2883: real time     43.3120
     EDDAV:  cpu time    181.4562: real time    181.5531
       DOS:  cpu time      0.0026: real time      0.0026
    CHARGE:  cpu time     24.4813: real time     24.5029
    MIXING:  cpu time      0.0469: real time      0.0469
    --------------------------------------------
      LOOP:  cpu time    252.5075: real time    252.6520

 eigenvalue-minimisations  :  2176
 total energy-change (2. order) :-0.2677447E-05  (-0.5519649E-06)
 number of electron     226.9999999 magnetization 
 augmentation part      -12.7048351 magnetization 

 Broyden mixing:
  rms(total) = 0.20641E-04    rms(broyden)= 0.14667E-02
  rms(prec ) = 0.33054E-04
  weight for this iteration     100.00
  WARNING: grid for Broyden might be to small

 eigenvalues of (default mixing * dielectric matrix)
  average eigenvalue GAMMA=   1.8050
  9.9999  3.7593  2.7032  2.7032  1.9762  1.3016  1.1778  0.9722  0.9535  0.8252
  0.5070  0.6961  0.6472  0.6324  0.6324  0.6181  0.5799

 Free energy of the ion-electron system (eV)
  ---------------------------------------------------
  alpha Z        PSCENC =        20.31040391
  Ewald energy   TEWEN  =     25148.18936138
  -Hartree energ DENC   =    -30071.26703309
  -exchange      EXHF   =         0.00000000
  -V(xc)+E(xc)   XCENC  =      -266.03571947
  PAW double counting   =     32712.71796197   -32154.34135860
  entropy T*S    EENTRO =        -0.11432967
  eigenvalues    EBANDS =     -1728.83684129
  atomic energy  EATOM  =      5809.20788974
  Solvation  Ediel_sol  =         0.00000000
  ---------------------------------------------------
  free energy    TOTEN  =      -530.16966512 eV

  energy without entropy =     -530.05533545  energy(sigma->0) =     -530.11250028


--------------------------------------------------------------------------------------------------------



[...]
    OFIELD:  cpu time      0.0029: real time      0.0030

  FORCE on cell =-STRESS in cart. coord.  units (eV):
  Direction    XX          YY          ZZ          XY          YZ          ZX
  --------------------------------------------------------------------------------------
  Alpha Z    20.31040    20.31040    20.31040
  Ewald   29033.63841 29154.55344-33040.02290    89.97547    68.46356   -88.25962
  Hartree 29417.70150 29542.52094-28888.95677    22.40975    50.67662   -52.89398
  E(xc)    -683.94478  -684.00597  -682.08108    -0.83301     0.05202    -0.04942
  Local  -61188.69990-61435.75762 59219.79906  -122.42754  -116.02261   138.30375
  n-local  2146.42834  2145.91914  2070.49163    14.00584    -1.71866    -0.27472
  augment  -313.32807  -313.48719  -308.21936    -0.81049     0.16357    -0.19705
  Kinetic  1567.23533  1568.28422  1613.41217   -14.38894    -0.17845     5.34746
  Fock        0.00000     0.00000     0.00000     0.00000     0.00000     0.00000
  -------------------------------------------------------------------------------------
  Total      -0.65876    -1.66264     4.73316   -12.06892     1.43604     1.97642
  in kB      -0.19732    -0.49801     1.41771    -3.61498     0.43013     0.59199
  external pressure =        0.24 kB  Pullay stress =        0.00 kB


 VOLUME and BASIS-vectors are now :
 -----------------------------------------------------------------------------
  energy-cutoff  :     1200.00
  volume of cell :     5349.01
      direct lattice vectors                 reciprocal lattice vectors
    14.531892074  0.000000000  0.000000000     0.068814164  0.000000000  0.000000000
     0.000000000 14.531892074  0.000000000     0.000000000  0.068814164  0.000000000
     0.000000000  0.000000000 25.329621900     0.000000000  0.000000000  0.039479468

  length of vectors
    14.531892074 14.531892074 25.329621900     0.068814164  0.068814164  0.039479468


 FORCES acting on ions
    electron-ion (+dipol)            ewald-force                    non-local-force                 convergence-correction
 -----------------------------------------------------------------------------------------------
   0.602E+00 -.114E+01 0.795E+02   -.149E+01 0.183E+01 -.827E+02   0.823E+00 -.604E+00 0.304E+01   0.101E-04 0.803E-05 -.691E-05
   -.756E+01 0.406E+01 0.650E+02   0.821E+01 -.452E+01 -.680E+02   -.669E+00 0.438E+00 0.299E+01   0.941E-05 -.208E-04 -.116E-04
   -.114E+02 -.191E+02 -.726E+02   0.134E+02 0.212E+02 0.739E+02   -.158E+01 -.199E+01 -.156E+01   -.142E-04 -.992E-05 0.163E-06
   0.375E+02 0.709E+01 0.174E+03   -.345E+02 -.464E+01 -.171E+03   -.303E+01 -.240E+01 -.307E+01   -.554E-04 0.243E-04 -.929E-05
   -.687E+01 -.550E+01 0.268E+02   0.585E+01 0.504E+01 -.291E+02   0.954E+00 0.528E+00 0.226E+01   0.484E-04 -.901E-04 -.448E-04
   -.205E+02 0.857E+01 -.261E+03   0.209E+02 -.738E+01 0.263E+03   -.346E+00 -.106E+01 -.167E+01   0.236E-04 0.602E-04 0.482E-05
   0.142E+02 0.780E+01 -.106E+03   -.133E+02 -.693E+01 0.105E+03   -.783E+00 -.112E+01 0.292E+00   -.281E-04 0.749E-04 0.155E-05
   -.184E+02 0.363E+02 -.210E+03   0.197E+02 -.370E+02 0.210E+03   -.104E+01 0.388E+00 -.253E+00   0.208E-04 -.538E-05 -.921E-05
   -.113E+01 0.238E+02 0.152E+03   0.108E+00 -.233E+02 -.150E+03   0.877E+00 -.482E+00 -.157E+01   0.668E-05 0.250E-04 -.860E-05
   0.150E+02 -.143E+02 -.178E+02   -.147E+02 0.143E+02 0.167E+02   -.475E+00 0.157E+00 0.101E+01   -.399E-04 0.719E-04 -.365E-04
   -.150E+02 0.250E+02 -.156E+03   0.133E+02 -.261E+02 0.156E+03   0.169E+01 0.105E+01 0.806E+00   -.359E-04 -.551E-04 0.223E-04
   -.154E+02 0.273E+02 0.216E+02   0.146E+02 -.284E+02 -.217E+02   0.107E+01 0.102E+01 0.302E+00   0.825E-04 -.956E-04 -.102E-03
   -.246E+02 0.272E+02 0.168E+03   0.220E+02 -.260E+02 -.168E+03   0.269E+01 -.131E+01 -.663E+00   0.881E-04 0.299E-04 -.608E-04
   -.115E+02 -.312E+02 0.215E+03   0.125E+02 0.317E+02 -.216E+03   -.101E+01 -.385E+00 0.206E-01   0.354E-04 -.245E-04 -.362E-04
   0.345E+02 0.151E+02 -.191E+03   -.347E+02 -.134E+02 0.191E+03   0.362E+00 -.153E+01 0.392E+00   -.504E-04 0.145E-04 -.180E-04
   0.236E+02 -.287E+02 -.131E+03   -.231E+02 0.272E+02 0.131E+03   -.478E+00 0.138E+01 0.616E+00   0.576E-04 0.685E-04 -.519E-04
   0.386E+02 -.170E+01 0.204E+03   -.381E+02 0.173E+01 -.200E+03   -.555E+00 0.348E+00 -.371E+01   -.540E-04 0.490E-04 -.372E-04
   -.725E+01 -.249E+02 -.218E+02   0.633E+01 0.265E+02 0.209E+02   0.102E+01 -.144E+01 0.703E+00   -.284E-04 -.103E-04 0.169E-04
   -.402E+02 0.286E+01 -.144E+03   0.389E+02 -.358E+01 0.142E+03   0.118E+01 0.389E+00 0.186E+01   0.264E-04 0.240E-04 -.283E-04
   0.461E+02 -.622E+01 0.111E+03   -.455E+02 0.623E+01 -.109E+03   -.961E+00 -.271E+00 -.195E+01   -.378E-04 -.250E-04 -.903E-05
   -.767E+01 -.600E+01 0.134E+02   0.742E+01 0.633E+01 -.121E+02   0.396E+00 -.147E+00 -.122E+01   0.124E-04 0.690E-04 -.897E-05
   0.651E+01 -.152E+02 -.556E+02   -.835E+01 0.143E+02 0.552E+02   0.196E+01 0.119E+01 0.547E+00   -.460E-04 -.337E-04 -.337E-04
   0.471E+02 0.101E+02 0.198E+03   -.454E+02 -.864E+01 -.195E+03   -.124E+01 -.121E+01 -.176E+01   -.160E-04 -.348E-04 -.150E-04
   -.930E+01 -.398E+01 0.106E+03   0.846E+01 0.517E+01 -.104E+03   0.834E+00 -.120E+01 -.166E+01   0.421E-04 0.291E-04 0.842E-05
   0.228E+02 0.153E+02 0.131E+03   -.198E+02 -.152E+02 -.131E+03   -.308E+01 -.529E-01 -.922E+00   -.508E-04 -.455E-05 -.578E-04
   0.597E+01 -.155E+02 -.215E+03   -.482E+01 0.143E+02 0.215E+03   -.943E+00 0.885E+00 -.124E+00   -.211E-05 -.466E-04 0.182E-04
   -.120E+02 0.111E+02 -.233E+03   0.102E+02 -.783E+01 0.234E+03   0.148E+01 -.256E+01 -.847E-01   -.180E-04 0.261E-04 0.147E-04
   0.384E+02 -.346E+02 -.236E+03   -.410E+02 0.333E+02 0.236E+03   0.167E+01 0.110E+01 0.723E+00   -.211E-04 -.654E-05 0.205E-04
   -.160E+02 -.336E+02 -.422E+02   0.167E+02 0.324E+02 0.410E+02   -.561E+00 0.105E+01 0.111E+01   0.199E-04 -.844E-04 -.398E-04
   -.300E+02 -.808E+01 0.258E+03   0.310E+02 0.577E+01 -.260E+03   -.943E+00 0.217E+01 0.214E+01   0.132E-04 0.525E-04 -.100E-03
   -.388E+01 -.249E+01 -.131E+03   0.362E+01 0.442E+01 0.128E+03   -.281E-01 -.163E+01 0.320E+01   0.275E-04 -.385E-04 -.509E-04
   -.200E+02 0.501E+01 0.214E+02   0.217E+02 -.536E+01 -.221E+02   -.205E+01 0.303E+00 0.916E+00   -.319E-04 -.485E-04 -.218E-04
   0.146E+02 0.233E+00 0.149E+03   -.146E+02 -.142E+00 -.146E+03   -.260E-01 -.437E+00 -.401E+01   -.778E-04 0.517E-04 -.308E-04
   0.132E-01 -.283E+02 -.961E+02   0.228E+01 0.300E+02 0.931E+02   -.221E+01 -.199E+01 0.310E+01   0.388E-04 -.648E-04 -.242E-04
   0.176E+01 -.287E+02 0.134E+03   -.726E+00 0.281E+02 -.132E+03   -.794E+00 0.685E+00 -.184E+01   -.114E-04 -.311E-04 -.582E-04
   0.228E+02 0.585E+00 -.141E+03   -.232E+02 -.281E+01 0.140E+03   0.388E+00 0.219E+01 0.198E+01   -.469E-04 0.457E-04 0.699E-05
   -.188E+02 -.869E+01 0.157E+03   0.184E+02 0.106E+02 -.157E+03   0.452E+00 -.146E+01 -.335E+00   0.663E-04 0.354E-04 0.903E-05
   -.258E+02 -.139E+02 -.456E+02   0.249E+02 0.138E+02 0.444E+02   0.113E+01 0.286E+00 0.686E+00   -.252E-04 -.869E-04 -.217E-04
   0.959E+01 -.219E+00 -.245E+03   -.101E+02 0.652E+00 0.247E+03   0.450E+00 -.412E+00 -.692E+00   -.414E-04 0.226E-05 0.879E-04
   0.286E+02 -.153E+02 0.178E+03   -.277E+02 0.142E+02 -.179E+03   -.103E+01 0.124E+01 0.986E+00   -.372E-04 -.516E-04 -.454E-04
   -.138E+02 0.281E+02 -.172E+03   0.151E+02 -.282E+02 0.169E+03   -.107E+01 0.654E-02 0.255E+01   -.853E-04 0.630E-04 0.361E-04
   -.261E+02 0.376E+02 0.123E+03   0.244E+02 -.366E+02 -.123E+03   0.145E+01 -.113E+01 -.796E-01   -.103E-04 0.311E-05 -.104E-03
   0.205E+02 0.161E+01 -.841E+02   -.205E+02 -.162E+01 0.827E+02   -.241E+00 0.650E-01 0.129E+01   0.147E-04 -.439E-04 -.817E-05
   -.196E+02 -.276E+02 0.210E+03   0.188E+02 0.268E+02 -.211E+03   0.806E+00 0.679E+00 0.354E+00   -.862E-05 0.243E-04 -.128E-04
   0.401E+02 0.976E+00 0.104E+03   -.406E+02 -.241E+01 -.106E+03   0.329E+00 0.124E+01 0.782E+00   -.217E-04 -.164E-04 -.140E-04
   -.180E+02 -.788E+01 -.438E+02   0.162E+02 0.636E+01 0.430E+02   0.145E+01 0.154E+01 0.107E+01   0.122E-03 0.123E-03 -.832E-04
   -.358E+02 0.822E+01 0.130E+03   0.344E+02 -.801E+01 -.128E+03   0.114E+01 -.258E+00 -.200E+01   0.671E-04 0.799E-04 -.575E-05
   -.165E+02 0.976E+01 0.262E+03   0.182E+02 -.980E+01 -.263E+03   -.154E+01 -.164E+00 0.332E+00   0.196E-04 -.281E-04 -.832E-04
   -.218E+02 0.918E+01 -.159E+03   0.207E+02 -.866E+01 0.155E+03   0.121E+01 -.555E+00 0.399E+01   0.160E-04 0.128E-03 0.157E-04
   0.369E+02 0.114E+02 -.175E+03   -.349E+02 -.108E+02 0.174E+03   -.225E+01 -.270E+00 0.178E+01   0.164E-04 0.575E-05 -.315E-04
   -.126E+02 0.818E+01 0.184E+03   0.135E+02 -.582E+01 -.184E+03   -.692E+00 -.228E+01 -.545E+00   0.257E-04 0.655E-04 -.196E-04
   -.133E+02 0.325E+02 0.169E+03   0.137E+02 -.330E+02 -.169E+03   -.376E+00 0.250E-01 0.442E+00   -.351E-05 -.866E-04 -.960E-04
   0.235E+02 0.163E+02 -.216E+03   -.215E+02 -.168E+02 0.219E+03   -.165E+01 0.426E+00 -.237E+01   0.196E-04 -.193E-04 0.112E-04
   0.686E+01 -.549E+01 -.903E+02   -.735E+01 0.521E+01 0.906E+02   0.511E+00 0.185E+00 -.264E+00   -.734E-04 -.940E-05 0.267E-05
   -.197E+02 -.292E+02 -.177E+03   0.178E+02 0.265E+02 0.174E+03   0.194E+01 0.277E+01 0.274E+01   0.383E-04 -.124E-04 0.147E-04
   0.156E+02 -.771E+01 0.240E+03   -.155E+02 0.564E+01 -.236E+03   -.302E+00 0.197E+01 -.363E+01   -.625E-05 0.465E-04 -.646E-04
   -.191E+02 0.258E+02 -.176E+03   0.176E+02 -.240E+02 0.174E+03   0.168E+01 -.186E+01 0.210E+01   -.525E-04 -.297E-04 0.613E-04
   -.291E+02 -.184E+01 0.102E+03   0.299E+02 0.188E+01 -.996E+02   -.789E+00 0.137E+00 -.225E+01   0.523E-04 0.111E-03 -.403E-04
   0.199E+02 0.156E+02 -.509E+02   -.192E+02 -.146E+02 0.508E+02   -.387E+00 -.107E+01 0.581E-01   -.475E-04 -.239E-04 0.252E-05
 -----------------------------------------------------------------------------------------------
   0.318E+01 0.542E+01 -.893E+01   -.178E-13 -.853E-13 0.853E-13   -.318E+01 -.542E+01 0.894E+01   -.578E-04 0.274E-03 -.119E-02


 POSITION                                       TOTAL-FORCE (eV/Angst)
 -----------------------------------------------------------------------------------
      8.93952     10.02797      9.66093        -0.064922      0.095102     -0.216500
      9.48986      6.04002     10.81416        -0.018204     -0.024888     -0.007704
      2.07101      5.12041     15.77671         0.387171      0.086628     -0.220190
      0.99303      1.18928     11.33477        -0.170085     -0.047974     -0.319112
      9.16439      6.24332     12.25444        -0.006356      0.076135      0.063389
      6.08107      0.27940     14.97078         0.103238      0.109809     -0.372681
      1.68064     13.20463     13.28515         0.064807     -0.273304     -0.194962
      7.46474      9.53525     14.11458         0.116924     -0.133002     -0.040396
     11.52653     10.46108     11.59006        -0.160480      0.153141      0.024937
     12.03991     13.61126     12.67041        -0.169721      0.131666     -0.055579
      1.86982      7.79619     13.53716         0.123810      0.108996      0.109025
      7.93914      8.18894     12.20511         0.337506     -0.041438      0.158943
      9.31557      9.74522     11.05982         0.226905     -0.148617      0.029109
      6.56460      3.78637     10.93000         0.002228     -0.080616      0.120932
     13.11104      0.61577     14.11765         0.241633      0.135700     -0.062762
     10.61080     11.90644     13.44021         0.033482     -0.185869      0.164154
      0.91209     13.27349     11.00356         0.029166      0.393391     -0.124870
      1.90659      3.83764     12.77200         0.112261     -0.016754     -0.238745
      7.83575      0.98251     13.59340        -0.048910     -0.257795      0.144922
     14.38260      3.25786     11.75232        -0.383823     -0.254764     -0.081337
      3.78313     13.44109     12.38763         0.151055      0.164466      0.093255
     12.60689      2.64791     13.12473         0.188721      0.349631      0.076011
     14.27513      5.34644     10.78251         0.489226      0.241700      0.485077
      4.44126      1.07459     11.88367         0.044146     -0.057645     -0.208028
      2.77525     10.06419     11.48303        -0.306517      0.055152     -0.532399
     11.21211      3.93674     14.45425         0.142446     -0.243643     -0.040633
      2.40579      2.19242     14.69046        -0.216338      0.600486      0.090957
      1.24590      4.11740     15.02763        -0.529929     -0.153999      0.622754
      7.88069      4.38745     12.78516         0.174180     -0.100159     -0.061415
      5.45178     11.69613     10.16843        -0.055516     -0.071928     -0.062440
      9.32232      2.78906     13.55646        -0.302090      0.236362      0.007170
      2.64864      6.01284     12.24022        -0.492661     -0.000370      0.312813
     13.44304     12.06702     11.59095        -0.039118     -0.369333     -0.299431
      5.60057      4.09531     13.12198         0.034351     -0.399022      0.230516
     10.75391      2.36169     11.76400         0.211469     -0.041217     -0.185824
      0.86143      0.74295     13.68506        -0.023155      0.054566      0.244924
      6.70614      1.52079     11.43923         0.040788      0.336801      0.001195
      4.87919      6.23521     12.66482         0.207523      0.093562     -0.577249
      1.31734     11.36071     14.62012        -0.012270     -0.023646      0.436546
      1.26567      8.35472     11.13530        -0.000905      0.121265      0.266230
      5.29472     10.45129     13.74099         0.074505      0.005635      0.074705
      5.06081      9.76396     11.43963        -0.189791     -0.105084     -0.023738
     11.21309      6.03403     13.36480        -0.249857      0.101116     -0.069819
      2.87583      2.52401     10.95951        -0.041737     -0.242212      0.171119
     12.83418      6.76525     11.86533        -0.048515     -0.182795     -0.170842
      8.51139     11.15800     12.75299        -0.211394      0.074887      0.216498
      8.37234     14.44372     11.57170        -0.243686     -0.031869     -0.009900
      1.74126      6.33466     10.10186        -0.070896     -0.159619     -0.781513
      5.59252     12.82566     13.64229         0.128034     -0.057367      0.024079
     11.88118     10.04027     13.91697        -0.318964      0.312933      0.165360
     10.63525      0.16348     11.11245         0.043400      0.053749      0.067519
      5.94881      7.63326     11.12946         0.022792     -0.317726      0.231128
     12.27323      7.80502     14.47421         0.195672      0.013402      0.056738
     14.03953     10.63692     13.35183         0.001295     -0.117765     -0.015156
      4.65116      1.99582     14.01773         0.131202      0.203347      0.075451
      3.05114     12.19057     10.56411        -0.145597      0.018634     -0.052057
      2.96842      9.90746     13.82222         0.206127     -0.232652      0.399734
      7.00320     12.61049     11.77236        -0.089531      0.183630     -0.079625
     14.19490      8.31963     12.99605         0.344905     -0.138820     -0.060285
 -----------------------------------------------------------------------------------
    total drift:                               -0.004231     -0.001056      0.006135


--------------------------------------------------------------------------------------------------------



  FREE ENERGIE OF THE ION-ELECTRON SYSTEM (eV)
  ---------------------------------------------------
  free  energy   TOTEN  =      -530.16966536 eV

  energy  without entropy=     -530.05533733  energy(sigma->0) =     -530.11250135



--------------------------------------------------------------------------------------------------------


    POTLOK:  cpu time      3.1401: real time      3.1419


--------------------------------------------------------------------------------------------------------


     LOOP+:  cpu time   5422.9540: real time   5426.7188
    4ORBIT:  cpu time      0.0000: real time      0.0000



 total charge

# of ion       s       p       d       tot
------------------------------------------
    1        0.570   0.016   0.000   0.586
    2        0.566   0.015   0.000   0.581
    3        0.562   0.015   0.000   0.577
    4        0.771   0.877   0.000   1.648
    5        0.747   0.986   0.000   1.733
    6        0.815   0.805   0.000   1.620
    7        0.768   0.963   0.000   1.731
    8        0.813   0.834   0.000   1.646
    9        0.797   0.819   0.000   1.616
   10        0.761   0.902   0.000   1.662
   11        0.788   0.886   0.000   1.673
   12        0.759   0.934   0.000   1.693
   13        0.755   0.949   0.000   1.703
   14        0.841   0.802   0.000   1.643
   15        0.807   0.859   0.000   1.666
   16        0.785   0.891   0.000   1.676
   17        0.775   0.848   0.000   1.623
   18        0.762   0.917   0.000   1.678
   19        0.777   0.891   0.000   1.668
   20        0.769   0.913   0.000   1.682
   21        0.762   0.970   0.000   1.732
   22        0.763   0.949   0.000   1.712
   23        0.795   0.864   0.000   1.659
   24        0.768   0.942   0.000   1.710
   25        0.771   0.939   0.000   1.710
   26        0.817   0.827   0.000   1.644
   27        0.783   0.896   0.000   1.679
   28        0.818   0.855   0.000   1.673
   29        0.762   0.950   0.000   1.712
   30        0.830   0.777   0.000   1.607
   31        0.767   0.930   0.000   1.697
   32        0.761   0.920   0.000   1.681
   33        0.782   0.855   0.000   1.637
   34        0.758   0.898   0.000   1.657
   35        0.810   0.865   0.000   1.675
   36        0.765   0.946   0.000   1.711
   37        0.779   0.886   0.000   1.665
   38        0.797   0.866   0.000   1.663
   39        0.812   0.868   0.000   1.680
   40        0.799   0.854   0.000   1.653
   41        0.766   0.878   0.000   1.644
   42        0.770   0.923   0.000   1.693
   43        0.752   0.948   0.000   1.700
   44        0.819   0.822   0.000   1.641
   45        0.791   0.866   0.000   1.657
   46        0.763   0.934   0.000   1.698
   47        0.762   0.941   0.000   1.703
   48        0.830   0.837   0.000   1.668
   49        0.762   0.929   0.000   1.692
   50        0.776   0.919   0.000   1.694
   51        0.803   0.868   0.000   1.671
   52        0.809   0.854   0.000   1.662
   53        0.838   0.785   0.000   1.622
   54        0.767   0.937   0.000   1.705
   55        0.765   0.875   0.000   1.640
   56        0.777   0.886   0.000   1.663
   57        0.764   0.894   0.000   1.658
   58        0.762   0.941   0.000   1.704
   59        0.746   0.928   0.000   1.673
--------------------------------------------------
tot         45.508  49.942   0.000  95.450


 total amount of memory used by VASP MPI-rank0   338614. kBytes
=======================================================================

   base                                    :      30000. kBytes
   nonl-proj                               :      62157. kBytes
   fftplans                                :      97997. kBytes
   grid                                    :      75605. kBytes
   one-center                              :         12. kBytes
   wavefun                                 :      72843. kBytes

  
  
 General timing and accounting informations for this job:
 ========================================================
  
                  Total CPU time used (sec):     5558.280
                            User time (sec):     4892.397
                          System time (sec):      665.883
                         Elapsed time (sec):     5562.869
  
                   Maximum memory used (kb):      590224.
                   Average memory used (kb):          N/A
  
                          Minor page faults:      9688686
                          Major page faults:         1171
                 Voluntary context switches:         2936
