 vasp.6.5.0 16Dec24 (build Jan 20 2025 08:32:48) complex                         
 executed on        HPECrayEX_GCC date 2025.07.21  23:51:24
 running  128 mpi-ranks, with    1 threads/rank, on    1 nodes
 distrk:  each k-point on  128 cores,    1 groups
 distr:  one band on NCORE=  16 cores,    8 groups


--------------------------------------------------------------------------------------------------------


 INCAR:
   SYSTEM = a-Si SPC
   NCORE = 16
   ISTART = 1
   ICHARG = 1
   ISPIN = 1
   ISYM = 1
   EDIFF = 1E-6
   NELM = 150
   EDIFFG = -0.01
   NSW = 0
   ISIF = 2
   IBRION = -1
   PREC = Accurate
   ENCUT = 1200
   KSPACING = 0.23
   KGAMMA = .TRUE.
   METAGGA = SCAN
   LASPH = .TRUE.
   LDIAG = .FALSE.
   LMIXTAU = .TRUE.
   ADDGRID = .TRUE.
   ALGO = Normal
   ISMEAR = 0
   SIGMA = 0.1
   LORBIT = 11
   NEDOS = 2000
   LWAVE = .FALSE.
   LCHARG = .FALSE.

 POTCAR:    PAW_PBE H 15Jun2001                   
 POTCAR:    PAW_PBE Si 05Jan2001                  
 POTCAR:    PAW_PBE H 15Jun2001                   
   SHA256 =  030f79b5d3ab3cf0e668861823c8fb652ff669f3e15e46930bd03bfd63a607b6 H/POTCAR              
   COPYR  = (c) Copyright 15Jun2001 Georg Kresse                                                    
   COPYR  = This file is part of the software VASP. Any use, copying, and all other rights are regul
   COPYR  = If you do not have a valid VASP license, you may not use, copy or distribute this file. 
   VRHFIN =H: ultrasoft test                                                                        
   LEXCH  = PE                                                                                      
   EATOM  =    12.4884 eV,    0.9179 Ry                                                             
                                                                                                    
   TITEL  = PAW_PBE H 15Jun2001                                                                     
   LULTRA =        F    use ultrasoft PP ?                                                          
   IUNSCR =        0    unscreen: 0-lin 1-nonlin 2-no                                               
   RPACOR =    0.000    partial core radius                                                         
   POMASS =    1.000; ZVAL   =    1.000    mass and valenz                                          
   RCORE  =    1.100    outmost cutoff radius                                                       
   RWIGS  =    0.700; RWIGS  =    0.370    wigner-seitz radius (au A)                               
   ENMAX  =  250.000; ENMIN  =  200.000 eV                                                          
   RCLOC  =    0.701    cutoff for local pot                                                        
   LCOR   =        T    correct aug charges                                                         
   LPAW   =        T    paw PP                                                                      
   EAUG   =  400.000                                                                                
   RMAX   =    1.123    core radius for proj-oper                                                   
   RAUG   =    1.200    factor for augmentation sphere                                              
   RDEP   =    1.112    radius for radial grids                                                     
   RDEPT  =    0.926    core radius for aug-charge                                                  
                                                                                                    
   Atomic configuration                                                                             
    2 entries                                                                                       
     n  l   j            E        occ.                                                              
     1  0  0.50        -6.4927   1.0000                                                             
     2  1  0.50        -3.4015   0.0000                                                             
   Description                                                                                      
     l       E           TYP  RCUT    TYP  RCUT                                                     
     0     -6.4927494     23  1.100                                                                 
     0      6.8029130     23  1.100                                                                 
     1     -4.0817478     23  1.100                                                                 
  local pseudopotential read in
  atomic valenz-charges read in
  non local Contribution for L=           0  read in
    real space projection operators read in
  non local Contribution for L=           0  read in
    real space projection operators read in
  non local Contribution for L=           1  read in
    real space projection operators read in
    PAW grid and wavefunctions read in

   number of l-projection  operators is LMAX  =           3
   number of lm-projection operators is LMMAX =           5

 POTCAR:    PAW_PBE Si 05Jan2001                  
   SHA256 =  79d9987ad8750f624c4d6acb2a16d13abf6a777132adc04dc6c8399be72b42bb Si/POTCAR             
   COPYR  = (c) Copyright 05Jan2001 Georg Kresse                                                    
   COPYR  = This file is part of the software VASP. Any use, copying, and all other rights are regul
   COPYR  = If you do not have a valid VASP license, you may not use, copy or distribute this file. 
   VRHFIN =Si: s2p2                                                                                 
   LEXCH  = PE                                                                                      
   EATOM  =   103.0669 eV,    7.5752 Ry                                                             
                                                                                                    
   TITEL  = PAW_PBE Si 05Jan2001                                                                    
   LULTRA =        F    use ultrasoft PP ?                                                          
   IUNSCR =        1    unscreen: 0-lin 1-nonlin 2-no                                               
   RPACOR =    1.500    partial core radius                                                         
   POMASS =   28.085; ZVAL   =    4.000    mass and valenz                                          
   RCORE  =    1.900    outmost cutoff radius                                                       
   RWIGS  =    2.480; RWIGS  =    1.312    wigner-seitz radius (au A)                               
   ENMAX  =  245.345; ENMIN  =  184.009 eV                                                          
   ICORE  =        2    local potential                                                             
   LCOR   =        T    correct aug charges                                                         
   LPAW   =        T    paw PP                                                                      
   EAUG   =  322.069                                                                                
   DEXC   =    0.000                                                                                
   RMAX   =    1.950    core radius for proj-oper                                                   
   RAUG   =    1.300    factor for augmentation sphere                                              
   RDEP   =    1.993    radius for radial grids                                                     
   RDEPT  =    1.837    core radius for aug-charge                                                  
                                                                                                    
   Atomic configuration                                                                             
    6 entries                                                                                       
     n  l   j            E        occ.                                                              
     1  0  0.50     -1785.8828   2.0000                                                             
     2  0  0.50      -139.4969   2.0000                                                             
     2  1  1.50       -95.5546   6.0000                                                             
     3  0  0.50       -10.8127   2.0000                                                             
     3  1  0.50        -4.0811   2.0000                                                             
     3  2  1.50        -4.0817   0.0000                                                             
   Description                                                                                      
     l       E           TYP  RCUT    TYP  RCUT                                                     
     0    -10.8127223     23  1.900                                                                 
     0     -7.6451159     23  1.900                                                                 
     1     -4.0811372     23  1.900                                                                 
     1      2.4879257     23  1.900                                                                 
     2     -4.0817478      7  1.900                                                                 
  local pseudopotential read in
  partial core-charges read in
  partial kinetic energy density read in
  atomic valenz-charges read in
  non local Contribution for L=           0  read in
    real space projection operators read in
  non local Contribution for L=           0  read in
    real space projection operators read in
  non local Contribution for L=           1  read in
    real space projection operators read in
  non local Contribution for L=           1  read in
    real space projection operators read in
    PAW grid and wavefunctions read in

   number of l-projection  operators is LMAX  =           4
   number of lm-projection operators is LMMAX =           8

 -----------------------------------------------------------------------------
|                                                                             |
|               ----> ADVICE to this user running VASP <----                  |
|                                                                             |
|     You have a (more or less) 'large supercell' and for larger cells it     |
|     might be more efficient to use real-space projection operators.         |
|     Therefore, try LREAL= Auto in the INCAR file.                           |
|     Mind: For very accurate calculation, you might also keep the            |
|     reciprocal projection scheme (i.e. LREAL=.FALSE.).                      |
|                                                                             |
 -----------------------------------------------------------------------------

 -----------------------------------------------------------------------------
|                                                                             |
|               ----> ADVICE to this user running VASP <----                  |
|                                                                             |
|     You enforced a specific xc type in the INCAR file but a different       |
|     type was found in the POTCAR file.                                      |
|     I HOPE YOU KNOW WHAT YOU ARE DOING!                                     |
|                                                                             |
 -----------------------------------------------------------------------------

  PAW_PBE H 15Jun2001                   :
 energy of atom  1       EATOM=  -12.4884
 kinetic energy error for atom=    0.0000 (will be added to EATOM!!)
  PAW_PBE Si 05Jan2001                  :
 energy of atom  2       EATOM= -103.0669
 kinetic energy error for atom=    0.0001 (will be added to EATOM!!)


 POSCAR:  H Si
  positions in cartesian coordinates
  No initial velocities read in


 exchange-correlation table for SCAN
   RHO(1)=    0.500       N(1)  =     2000
   RHO(2)=  100.500       N(2)  =     4000



--------------------------------------------------------------------------------------------------------


 ion  position               nearest neighbor table
   1  0.452  0.695  0.965-  20 0.71
   2  0.205  0.619  0.553-  90 1.46
   3  0.508  0.470  0.512-  17 0.75
   4  0.424  0.574  0.168-   5 0.73
   5  0.393  0.551  0.126-   4 0.73
   6  0.603  0.578  0.923-  24 0.80
   7  0.601  0.777  0.760-  62 1.48
   8  0.412  0.336  0.874- 110 1.55
   9  0.326  0.435  0.477-  22 0.74
  10  0.599  0.596  0.647-  25 0.82
  11  0.614  0.399  0.298-  56 1.53
  12  0.491  0.517  0.314-  28 0.69
  13  0.430  0.591  0.571-  23 0.81
  14  0.424  0.485  0.981-  21 0.73
  15  0.503  0.358  0.030-  61 1.46
  16  0.443  0.334  0.456-  55 1.46
  17  0.533  0.425  0.517-   3 0.75
  18  0.395  0.397  0.198-  29 0.72
  19  0.423  0.730  0.726- 105 1.56
  20  0.449  0.652  0.934-   1 0.71
  21  0.410  0.439  0.961-  14 0.73
  22  0.300  0.474  0.454-   9 0.74
  23  0.407  0.590  0.636-  13 0.81
  24  0.605  0.561  0.856-   6 0.80
  25  0.624  0.644  0.627-  10 0.82
  26  0.723  0.571  0.552-  97 1.52
  27  0.613  0.413  0.802-  51 1.44
  28  0.453  0.523  0.349-  12 0.69
  29  0.395  0.357  0.237-  18 0.72
  30  0.416  0.702  0.393- 113 1.42
  31  0.883  0.223  0.129- 124 2.33  83 2.36  42 2.37  65 2.45
  32  0.307  0.940  0.695-  98 2.26 111 2.46  85 2.48 105 2.51
  33  0.730  0.555  0.181-  56 2.27 115 2.27 116 2.33  67 2.43
  34  0.632  0.202  0.715-  63 2.34  79 2.39  51 2.51 112 2.52
  35  0.363  0.112  0.217-  74 2.21 120 2.37  75 2.49  46 2.49
  36  0.610  0.096  0.247-  58 2.27  68 2.30 120 2.37 114 2.51
  37  0.911  0.473  0.732-  44 2.31 122 2.41  78 2.47  82 2.62
  38  0.033  0.256  0.369-  94 2.29 107 2.30  57 2.36 124 2.40 108 2.91
  39  0.845  0.002  0.072-  42 2.23  59 2.40  73 2.44  66 2.46
  40  0.739  0.925  0.755-  41 2.26  62 2.36  76 2.41  73 2.42
  41  0.868  0.862  0.677- 118 2.24  40 2.26  60 2.32 117 2.46
  42  0.848  0.088  0.236-  39 2.23 104 2.33  31 2.37  68 2.50
  43  0.877  0.194  0.615-  63 2.29  96 2.31  94 2.35 122 2.47
  44  0.911  0.627  0.781-  37 2.31  71 2.39 118 2.39  54 2.45
  45  0.034  0.713  0.539-  80 2.36  90 2.38 118 2.45  91 2.45
  46  0.420  0.154  0.016- 110 2.23 114 2.37  77 2.45  35 2.49
  47  0.198  0.961  0.362-  98 2.30  74 2.30  48 2.37  70 2.55
  48  0.049  0.919  0.294-  59 2.29 104 2.31  91 2.34  47 2.37
  49  0.163  0.082  0.918-  93 2.34 111 2.36  84 2.40  52 2.45
  50  0.163  0.378  0.892-  86 2.27  82 2.35  52 2.49
  51  0.670  0.339  0.842-  27 1.44  78 2.29  61 2.38  34 2.51
  52  0.224  0.225  0.834-  95 2.27 110 2.28  49 2.45  50 2.49
  53  0.661  0.742  0.377-  99 2.26 116 2.34  97 2.39 123 2.53
  54  0.076  0.629  0.826-  88 2.41  44 2.45 106 2.46  82 2.64  90 3.08
  55  0.421  0.239  0.486-  16 1.46 120 2.34 112 2.37 121 2.43
  56  0.681  0.408  0.196-  11 1.53  33 2.27  65 2.31  61 2.41
  57  0.911  0.362  0.381- 102 2.25 122 2.27  65 2.30  38 2.36
  58  0.576  0.945  0.225-  36 2.27 123 2.34  75 2.41  66 2.49
  59  0.002  0.962  0.108-  72 2.26  48 2.29  39 2.40  93 2.43
  60  0.004  0.897  0.775-  80 2.29  84 2.29  41 2.32  72 2.42
  61  0.601  0.337  0.032-  15 1.46 114 2.35  51 2.38  56 2.41
  62  0.627  0.840  0.858-   7 1.48  40 2.36 109 2.44  87 2.47
  63  0.731  0.152  0.565-  43 2.29  34 2.34  76 2.35  68 2.46
  64  0.247  0.745  0.141-  70 2.31 103 2.37  69 2.43
  65  0.789  0.308  0.272-  57 2.30  56 2.31  68 2.38  31 2.45
  66  0.728  0.895  0.148-  99 2.28  87 2.40  39 2.46  58 2.49
  67  0.853  0.592  0.318-  89 2.32  97 2.37 102 2.40  33 2.43
  68  0.725  0.170  0.348-  36 2.30  65 2.38  63 2.46  42 2.50
  69  0.185  0.823  0.968-  72 2.29 106 2.35 111 2.36  64 2.43
  70  0.311  0.849  0.270-  64 2.31 113 2.38  75 2.49  47 2.55
  71  0.822  0.673  0.948- 100 2.31 115 2.31  87 2.38  44 2.39
  72  0.030  0.849  0.977-  59 2.26  69 2.29 100 2.33  60 2.42
  73  0.785  0.051  0.881-  96 2.38  79 2.41  40 2.42  39 2.44
  74  0.221  0.105  0.284-  35 2.21  47 2.30 121 2.56  93 2.59
  75  0.418  0.955  0.165-  77 2.26  58 2.41  35 2.49  70 2.49
  76  0.699  0.994  0.568-  63 2.35  40 2.41 117 2.43  81 2.47
  77  0.410  0.990  0.971-  75 2.26 111 2.32 109 2.32  46 2.45
  78  0.814  0.394  0.881-  51 2.29  83 2.36  37 2.47 115 2.52
  79  0.631  0.112  0.892- 114 2.24  34 2.39  73 2.41 109 2.46
  80  0.108  0.827  0.652- 106 2.25  60 2.29  98 2.33  45 2.36
  81  0.538  0.001  0.500- 123 2.28  85 2.41  76 2.47 120 2.49
  82  0.090  0.461  0.740-  50 2.35 108 2.44  90 2.57  37 2.62  54 2.64
  83  0.914  0.274  0.936-  86 2.31  96 2.32  31 2.36  78 2.36
  84  0.030  0.051  0.798-  60 2.29  96 2.34  92 2.39  49 2.40
  85  0.452  0.029  0.679- 109 2.32 112 2.37  81 2.41  32 2.48
  86  0.039  0.353  0.010-  50 2.27  83 2.31 101 2.39 124 2.43
  87  0.700  0.762  0.028-  71 2.38  66 2.40 116 2.43  62 2.47
  88  0.059  0.613  0.038- 101 2.19 100 2.33 103 2.39  54 2.41
  89  0.901  0.735  0.253-  99 2.27  67 2.32  91 2.32 100 2.37
  90  0.116  0.573  0.568-   2 1.46  45 2.38 119 2.44  82 2.57  54 3.08
  91  0.045  0.761  0.333-  89 2.32  48 2.34 103 2.44  45 2.45
  92  0.111  0.083  0.619-  95 2.26  98 2.37  84 2.39  94 2.47
  93  0.106  0.093  0.111- 124 2.32  49 2.34  59 2.43  74 2.59
  94  0.988  0.135  0.485- 104 2.29  38 2.29  43 2.35  92 2.47
  95  0.185  0.218  0.640-  92 2.26  52 2.27 108 2.36 121 2.41
  96  0.903  0.149  0.809-  43 2.31  83 2.32  84 2.34  73 2.38
  97  0.768  0.648  0.482-  26 1.52 118 2.37  67 2.37  53 2.39
  98  0.190  0.947  0.564-  32 2.26  47 2.30  80 2.33  92 2.37
  99  0.783  0.825  0.314-  53 2.26  89 2.27  66 2.28 117 2.36
 100  0.947  0.726  0.052-  71 2.31  72 2.33  88 2.33  89 2.37
 101  0.979  0.493  0.091-  88 2.19 102 2.31  86 2.39 115 2.42
 102  0.976  0.484  0.295-  57 2.25 101 2.31 119 2.36  67 2.40
 103  0.133  0.648  0.221-  64 2.37  88 2.39  91 2.44 119 2.51
 104  0.938  0.013  0.376-  94 2.29  48 2.31  42 2.33 117 2.43
 105  0.336  0.772  0.666-  19 1.56  32 2.51 106 2.52 113 2.73
 106  0.191  0.748  0.784-  80 2.25  69 2.35  54 2.46 105 2.52
 107  0.158  0.349  0.402-  38 2.30 121 2.43 108 2.47 119 2.53
 108  0.081  0.337  0.596-  95 2.36 122 2.39  82 2.44 107 2.47  38 2.91
 109  0.534  0.979  0.843-  77 2.32  85 2.32  62 2.44  79 2.46
 110  0.378  0.236  0.858-   8 1.55  46 2.23  52 2.28 112 2.46
 111  0.263  0.956  0.904-  77 2.32  49 2.36  69 2.36  32 2.46
 112  0.462  0.191  0.679-  55 2.37  85 2.37 110 2.46  34 2.52
 113  0.392  0.790  0.437-  30 1.42  70 2.38 123 2.46 105 2.73
 114  0.578  0.179  0.056-  79 2.24  61 2.35  46 2.37  36 2.51
 115  0.824  0.526  0.025-  33 2.27  71 2.31 101 2.42  78 2.52
 116  0.630  0.679  0.191-  33 2.33  53 2.34  87 2.43
 117  0.828  0.916  0.477-  99 2.36  76 2.43 104 2.43  41 2.46
 118  0.876  0.717  0.611-  41 2.24  97 2.37  44 2.39  45 2.45
 119  0.125  0.517  0.365- 102 2.36  90 2.44 103 2.51 107 2.53
 120  0.478  0.122  0.365-  55 2.34  35 2.37  36 2.37  81 2.49
 121  0.258  0.220  0.449-  95 2.41  55 2.43 107 2.43  74 2.56
 122  0.918  0.356  0.582-  57 2.27 108 2.39  37 2.41  43 2.47
 123  0.540  0.865  0.399-  81 2.28  58 2.34 113 2.46  53 2.53
 124  0.041  0.233  0.159-  93 2.32  31 2.33  38 2.40  86 2.43

  LATTYP: Found a simple tetragonal cell.
 ALAT       =    14.5745485891
 C/A-ratio  =     0.7756002862
  
  Lattice vectors:
  
 A1 = (  14.5745485891,   0.0000000000,   0.0000000000)
 A2 = (   0.0000000000,  14.5745485891,   0.0000000000)
 A3 = (   0.0000000000,   0.0000000000,  11.3040240568)


Analysis of symmetry for initial positions (statically):
=====================================================================
 Subroutine PRICEL returns:
 Original cell was already a primitive cell.
 

 Routine SETGRP: Setting up the symmetry group for a 
 simple tetragonal supercell.


 Subroutine GETGRP returns: Found  1 space group operations
 (whereof  1 operations were pure point group operations)
 out of a pool of 16 trial point group operations.


The static configuration has the point symmetry C_1 .


Analysis of symmetry for dynamics (positions and initial velocities):
=====================================================================
 Subroutine PRICEL returns:
 Original cell was already a primitive cell.
 

 Routine SETGRP: Setting up the symmetry group for a 
 simple tetragonal supercell.


 Subroutine GETGRP returns: Found  1 space group operations
 (whereof  1 operations were pure point group operations)
 out of a pool of 16 trial point group operations.


The dynamic configuration has the point symmetry C_1 .


 Subroutine INISYM returns: Found  1 space group operations
 (whereof  1 operations are pure point group operations),
 and found     1 'primitive' translations


----------------------------------------------------------------------------------------

                                     Primitive cell                                     

  volume of cell :    2401.1722

  direct lattice vectors                    reciprocal lattice vectors
    14.574548589  0.000000000  0.000000000     0.068612760  0.000000000  0.000000000
     0.000000000 14.574548589  0.000000000     0.000000000  0.068612760  0.000000000
     0.000000000  0.000000000 11.304024057     0.000000000  0.000000000  0.088464072

  length of vectors
    14.574548589 14.574548589 11.304024057     0.068612760  0.068612760  0.088464072

  position of ions in fractional coordinates (direct lattice)
     0.452351574  0.694642440  0.965222645
     0.205126079  0.618511095  0.553156112
     0.508382126  0.470023477  0.512003511
     0.423917761  0.574162551  0.167702226
     0.393478396  0.551007117  0.125672061
     0.603381981  0.577604853  0.922857201
     0.601160986  0.777396290  0.759607371
     0.412406598  0.336283486  0.874315195
     0.326401190  0.435196326  0.477260131
     0.599055947  0.596259977  0.647314617
     0.613589501  0.398540645  0.298153116
     0.491285885  0.517132998  0.313690061
     0.430010574  0.591376120  0.570588842
     0.424336985  0.484707293  0.980686165
     0.503245089  0.357739382  0.029643161
     0.442811656  0.333792842  0.456037600
     0.533387360  0.425419008  0.517432551
     0.395488064  0.396753283  0.198136521
     0.422583242  0.729573196  0.726072411
     0.448656091  0.652470980  0.933525968
     0.410345471  0.438970714  0.960923291
     0.299675148  0.474493598  0.453527874
     0.407034905  0.589916727  0.636008908
     0.605058877  0.560704844  0.855975708
     0.623609709  0.643973290  0.626724604
     0.723350019  0.570822482  0.551621261
     0.613447473  0.412532845  0.801521649
     0.453172869  0.522504691  0.349325159
     0.394793703  0.357382595  0.237198717
     0.415913396  0.702169260  0.392661939
     0.882943298  0.223108797  0.129370744
     0.307042786  0.940433929  0.694706589
     0.730266185  0.554693681  0.180876296
     0.632278931  0.202169555  0.715469992
     0.363370431  0.111744113  0.216935136
     0.610372935  0.096443467  0.246620140
     0.910553073  0.472876395  0.732315320
     0.033363229  0.256201417  0.368521863
     0.844959274  0.002012378  0.072299563
     0.739096647  0.924934307  0.754941776
     0.867615208  0.862009545  0.677410094
     0.847635172  0.087888828  0.235964643
     0.877234717  0.194049235  0.615386164
     0.911115697  0.626984084  0.781470382
     0.033789245  0.712543509  0.539369871
     0.419689842  0.153694640  0.015750232
     0.197606806  0.960976590  0.361906519
     0.049228489  0.919205142  0.293892687
     0.162532650  0.082134962  0.918257069
     0.162509321  0.377961620  0.891956700
     0.670414589  0.338516145  0.841781648
     0.223579480  0.224951736  0.834292280
     0.661207443  0.742218528  0.376639326
     0.075704575  0.628781052  0.826078391
     0.420779413  0.238701733  0.486044613
     0.681043391  0.407666828  0.195586102
     0.911239200  0.361804002  0.381457079
     0.576352670  0.945120181  0.225198565
     0.002015122  0.962293955  0.108441914
     0.003500239  0.896748185  0.774820538
     0.601014841  0.337442355  0.032051595
     0.626744626  0.839689814  0.858190849
     0.730739613  0.152076751  0.564844870
     0.246542799  0.744880703  0.140813572
     0.789362355  0.308328589  0.272356993
     0.728338167  0.895183814  0.148321517
     0.852884048  0.592106846  0.317674483
     0.725147673  0.170265308  0.348419287
     0.185384129  0.822666989  0.967743871
     0.311466937  0.848712392  0.270035696
     0.821685826  0.673004034  0.947927919
     0.030439365  0.848938814  0.977067984
     0.784614352  0.051292017  0.881324204
     0.221232924  0.104893129  0.283904208
     0.417975210  0.955082754  0.165317235
     0.699184605  0.993677431  0.568314431
     0.409697080  0.989862562  0.970627800
     0.814159007  0.394212552  0.881310049
     0.631054879  0.111523180  0.891549766
     0.107527859  0.827463021  0.652129716
     0.538223874  0.000751407  0.499684004
     0.089761957  0.461237613  0.740161199
     0.914127797  0.273957713  0.935613720
     0.030057603  0.050671689  0.798187438
     0.452247283  0.028907997  0.678569858
     0.038883194  0.353490880  0.009643557
     0.700261825  0.762287760  0.028140864
     0.059472785  0.612536295  0.037523363
     0.900926702  0.734986743  0.252805548
     0.116030352  0.573499752  0.568305585
     0.045125034  0.761189956  0.332559448
     0.111332436  0.083284226  0.619035307
     0.105773430  0.092937355  0.110936600
     0.988147243  0.135434726  0.485010468
     0.185297677  0.218307962  0.640200336
     0.903012530  0.149039950  0.808562504
     0.768030648  0.648037910  0.481721374
     0.189518734  0.947096228  0.564418473
     0.783180346  0.824800846  0.314081073
     0.947034477  0.726005333  0.052356046
     0.978630653  0.492833103  0.090696021
     0.975968478  0.484296303  0.294532282
     0.132539954  0.647558306  0.221168142
     0.938128541  0.012910314  0.376187274
     0.336053633  0.771811211  0.666452049
     0.190811399  0.747542878  0.783761602
     0.158422059  0.349292465  0.401760468
     0.080993246  0.337477348  0.595656906
     0.533731796  0.978520872  0.842821986
     0.378498858  0.236484168  0.858257197
     0.263245889  0.956125668  0.904138203
     0.462404030  0.191400096  0.678871521
     0.391645063  0.790041622  0.436766586
     0.577632298  0.178691641  0.056173801
     0.823812822  0.526046481  0.024878574
     0.630214373  0.679331503  0.190723232
     0.828204038  0.915630417  0.477444136
     0.875512536  0.717202316  0.611119542
     0.124785340  0.517034195  0.365238961
     0.478198687  0.121770495  0.364590519
     0.257786372  0.220165309  0.448656158
     0.918361205  0.356203828  0.582144904
     0.540096316  0.865007923  0.398871232
     0.040580948  0.233077545  0.158760278

  ion indices of the primitive-cell ions
   primitive index   ion index
                 1           1
                 2           2
                 3           3
                 4           4
                 5           5
                 6           6
                 7           7
                 8           8
                 9           9
                10          10
                11          11
                12          12
                13          13
                14          14
                15          15
                16          16
                17          17
                18          18
                19          19
                20          20
                21          21
                22          22
                23          23
                24          24
                25          25
                26          26
                27          27
                28          28
                29          29
                30          30
                31          31
                32          32
                33          33
                34          34
                35          35
                36          36
                37          37
                38          38
                39          39
                40          40
                41          41
                42          42
                43          43
                44          44
                45          45
                46          46
                47          47
                48          48
                49          49
                50          50
                51          51
                52          52
                53          53
                54          54
                55          55
                56          56
                57          57
                58          58
                59          59
                60          60
                61          61
                62          62
                63          63
                64          64
                65          65
                66          66
                67          67
                68          68
                69          69
                70          70
                71          71
                72          72
                73          73
                74          74
                75          75
                76          76
                77          77
                78          78
                79          79
                80          80
                81          81
                82          82
                83          83
                84          84
                85          85
                86          86
                87          87
                88          88
                89          89
                90          90
                91          91
                92          92
                93          93
                94          94
                95          95
                96          96
                97          97
                98          98
                99          99
               100         100
               101         101
               102         102
               103         103
               104         104
               105         105
               106         106
               107         107
               108         108
               109         109
               110         110
               111         111
               112         112
               113         113
               114         114
               115         115
               116         116
               117         117
               118         118
               119         119
               120         120
               121         121
               122         122
               123         123
               124         124

----------------------------------------------------------------------------------------


 -----------------------------------------------------------------------------
|                                                                             |
|           W    W    AA    RRRRR   N    N  II  N    N   GGGG   !!!           |
|           W    W   A  A   R    R  NN   N  II  NN   N  G    G  !!!           |
|           W    W  A    A  R    R  N N  N  II  N N  N  G       !!!           |
|           W WW W  AAAAAA  RRRRR   N  N N  II  N  N N  G  GGG   !            |
|           WW  WW  A    A  R   R   N   NN  II  N   NN  G    G                |
|           W    W  A    A  R    R  N    N  II  N    N   GGGG   !!!           |
|                                                                             |
|     The requested file  could not be found or opened for reading            |
|     k-point information. Automatic k-point generation is used as a          |
|     fallback, which may lead to unwanted results.                           |
|                                                                             |
 -----------------------------------------------------------------------------



Automatic generation of k-mesh.
 Grid dimensions derived from KSPACING:
 generate k-points for:    2    2    3

 Generating k-lattice:

  Cartesian coordinates                     Fractional coordinates (reciprocal lattice)
     0.034306380  0.000000000  0.000000000     0.500000000  0.000000000  0.000000000
     0.000000000  0.034306380  0.000000000     0.000000000  0.500000000  0.000000000
     0.000000000  0.000000000  0.029488024     0.000000000  0.000000000  0.333333333

  Length of vectors
     0.034306380  0.034306380  0.029488024

  Shift w.r.t. Gamma in fractional coordinates (k-lattice)
     0.000000000  0.000000000  0.000000000

 
 Subroutine IBZKPT returns following result:
 ===========================================
 
 Found      8 irreducible k-points:
 
 Following reciprocal coordinates:
            Coordinates               Weight
  0.000000  0.000000  0.000000      1.000000
  0.500000  0.000000  0.000000      1.000000
  0.000000  0.500000  0.000000      1.000000
  0.500000  0.500000  0.000000      1.000000
  0.000000  0.000000  0.333333      2.000000
  0.500000  0.000000  0.333333      2.000000
  0.000000  0.500000  0.333333      2.000000
  0.500000  0.500000  0.333333      2.000000
 
 Following cartesian coordinates:
            Coordinates               Weight
  0.000000  0.000000  0.000000      1.000000
  0.034306  0.000000  0.000000      1.000000
  0.000000  0.034306  0.000000      1.000000
  0.034306  0.034306  0.000000      1.000000
  0.000000  0.000000  0.029488      2.000000
  0.034306  0.000000  0.029488      2.000000
  0.000000  0.034306  0.029488      2.000000
  0.034306  0.034306  0.029488      2.000000
 


--------------------------------------------------------------------------------------------------------




 Dimension of arrays:
   k-points           NKPTS =      8   k-points in BZ     NKDIM =      8   number of bands    NBANDS=    272
   number of dos      NEDOS =   2000   number of ions     NIONS =    124
   non local maximal  LDIM  =      4   non local SUM 2l+1 LMDIM =      8
   total plane-waves  NPLWV = ******
   max r-space proj   IRMAX =      1   max aug-charges    IRDMAX= 402587
   dimension x,y,z NGX =   168 NGY =  168 NGZ =  128
   dimension x,y,z NGXF=   336 NGYF=  336 NGZF=  256
   support grid    NGXF=   672 NGYF=  672 NGZF=  512
   ions per type =              30  94
   NGX,Y,Z   is equivalent  to a cutoff of  19.16, 19.16, 18.82 a.u.
   NGXF,Y,Z  is equivalent  to a cutoff of  38.33, 38.33, 37.65 a.u.

 SYSTEM =  a-Si SPC                                
 POSCAR =   H Si                                   

 Startparameter for this run:
   NWRITE =      2    write-flag & timer
   PREC   = accura    normal or accurate (medium, high low for compatibility)
   ISTART =      1    job   : 0-new  1-cont  2-samecut
   ICHARG =      1    charge: 1-file 2-atom 10-const
   ISPIN  =      1    spin polarized calculation?
   LNONCOLLINEAR =      F non collinear calculations
   LSORBIT =      F    spin-orbit coupling
   INIWAV =      1    electr: 0-lowe 1-rand  2-diag
   LASPH  =      T    aspherical Exc in radial PAW
 Electronic Relaxation 1
   ENCUT  = 1200.0 eV  88.20 Ry    9.39 a.u.  41.17 41.17 31.93*2*pi/ulx,y,z
   ENINI  = 1200.0     initial cutoff
   ENAUG  =  400.0 eV  augmentation charge cutoff
   NELM   =    150;   NELMIN=  2; NELMDL=  0     # of ELM steps 
   EDIFF  = 0.1E-05   stopping-criterion for ELM
   LREAL  =      F    real-space projection
   NLSPLINE    = F    spline interpolate recip. space projectors
   LCOMPAT=      F    compatible to vasp.4.4
   GGA_COMPAT  = T    GGA compatible to vasp.4.4-vasp.4.6
   LMAXPAW     = -100 max onsite density
   LMAXMIX     =    2 max onsite mixed and CHGCAR
   VOSKOWN=      0    Vosko Wilk Nusair interpolation
   ROPT   =    0.00000   0.00000
 Ionic relaxation
   EDIFFG = -.1E-01   stopping-criterion for IOM
   NSW    =      0    number of steps for IOM
   NBLOCK =      1;   KBLOCK =      1    inner block; outer block 
   IBRION =     -1    ionic relax: 0-MD 1-quasi-New 2-CG
   NFREE  =      0    steps in history (QN), initial steepest desc. (CG)
   ISIF   =      2    stress and relaxation
   IWAVPR =     10    prediction:  0-non 1-charg 2-wave 3-comb
   ISYM   =      1    0-nonsym 1-usesym 2-fastsym
   LCORR  =      T    Harris-Foulkes like correction to forces

   POTIM  = 0.5000    time-step for ionic-motion
   TEIN   =    0.0    initial temperature
   TEBEG  =    0.0;   TEEND  =   0.0 temperature during run
   SMASS  =  -3.00    Nose mass-parameter (am)
   estimated Nose-frequenzy (Omega)   =  0.10E-29 period in steps = 0.13E+47 mass=  -0.485E-26a.u.
   SCALEE = 1.0000    scale energy and forces
   NPACO  =    256;   APACO  = 10.0  distance and # of slots for P.C.
   PSTRESS=    0.0 pullay stress

  Mass of Ions in am
   POMASS =   1.00 28.09
  Ionic Valenz
   ZVAL   =   1.00  4.00
  Atomic Wigner-Seitz radii
   RWIGS  =  -1.00 -1.00
  virtual crystal weights 
   VCA    =   1.00  1.00
   NELECT =     406.0000    total number of electrons
   NUPDOWN=      -1.0000    fix difference up-down

 DOS related values:
   EMIN   =  10.00;   EMAX   =-10.00  energy-range for DOS
   EFERMI =   0.00;   METHOD = LEGACY      
   ISMEAR =     0;   SIGMA  =   0.10  broadening in eV -4-tet -1-fermi 0-gaus
   EFERMI_NEDOS =   21; number of points for ismear=-14 and -15

 Electronic relaxation 2 (details)
   IALGO  =     38    algorithm
   LDIAG  =      F    sub-space diagonalisation (order eigenvalues)
   LSUBROT=      F    optimize rotation matrix (better conditioning)
   TURBO    =      0    0=normal 1=particle mesh
   IRESTART =      0    0=no restart 2=restart with 2 vectors
   NREBOOT  =      0    no. of reboots
   NMIN     =      0    reboot dimension
   EREF     =   0.00    reference energy to select bands
   IMIX   =      4    mixing-type and parameters
     AMIX     =   0.40;   BMIX     =  1.00
     AMIX_MAG =   1.60;   BMIX_MAG =  1.00
     AMIN     =   0.10
     WC   =   100.;   INIMIX=   1;  MIXPRE=   1;  MAXMIX= -45

 Intra band minimization:
   WEIMIN = 0.0000     energy-eigenvalue tresh-hold
   EBREAK =  0.92E-09  absolut break condition
   DEPER  =   0.30     relativ break condition  

   TIME   =   0.40     timestep for ELM

  volume/ion in A,a.u.               =      19.36       130.68
  Fermi-wavevector in a.u.,A,eV,Ry     =   0.905265  1.710703 11.150039  0.819505
  Thomas-Fermi vector in A             =   2.028812

 Write flags
   LWAVE        =      F    write WAVECAR
   LDOWNSAMPLE  =      F    k-point downsampling of WAVECAR
   LCHARG       =      F    write CHGCAR
   LVTOT        =      F    write LOCPOT, total local potential
   LVHAR        =      F    write LOCPOT, Hartree potential only
   WRT_POTENTIAL= false  ! write potential to hdf5 file
   LELF         =      F    write electronic localiz. function (ELF)
   LORBIT       =     11    0 simple, 1 ext, 2 COOP (PROOUT), +10 PAW based schemes


 Python interface
   PLUGINS active      =      F    recompile with -DPLUGINS to activate

 Dipole corrections
   LMONO      =      F    monopole corrections only (constant potential shift)
   LDIPOL     =      F    correct potential (dipole corrections)
   IDIPOL     =      0    1-x, 2-y, 3-z, 4-all directions 
   EPSILON    =  1.0000000 bulk dielectric constant
   LVACPOTAV  =      F  vacuum potentials using an averaging scheme for the charge density
   VACPOTFLAT =  0.1000000 required flatness to determine vacuum potential

Coulomb truncation method
  LTRUNCATE          =      F  Coulomb kernel truncation to be used
  IDIMENSIONALITY    =      3  Dimensionality of cutoff (0 molecules / 2 surfaces)
  ISURFACE           =     -1  Direction of surface normal
  LCOARSEN           =      F  Coarsen the charge grid before padding, preferred


 Exchange correlation treatment:
   METAGGA = SCAN    functional components
   XC_C    = 1    coefficients multiplying the functional components
   LIBXC   =     F    Libxc                    
   VOSKOWN =     0    Vosko Wilk Nusair interpolation
   LHFCALC =     F    Hartree Fock is set to
   LHFONE  =     F    Hartree Fock one center treatment
   AEXX    =    0.0000 exact exchange contribution

 Parameters of functionals:
   SCAN:
     P1 =  0.000000E+00
     P2 =  0.000000E+00
     P3 =  0.000000E+00

 Accuracy and mixing parameters for tau-dependent meta-GGA functionals:
   LMAXTAU = 6
   LMIXTAU = T

 Van der Waals corrections
   IVDW    =     0    specifies the selected vdW correction

 Linear response parameters
   LEPSILON=     F    determine dielectric tensor
   LRPA    =     F    only Hartree local field effects (RPA)
   LNABLA  =     F    use nabla operator in PAW spheres
   LVEL    =     F    velocity operator in full k-point grid
   CSHIFT  =0.1000    complex shift for real part using Kramers Kronig
   OMEGAMAX=  -1.0    maximum frequency
   DEG_THRESHOLD= 0.2000000E-02 threshold for treating states as degnerate
   RTIME   =   -0.100 relaxation time in fs
  (WPLASMAI=    0.000 imaginary part of plasma frequency in eV, 0.658/RTIME)
   DFIELD  = 0.0000000 0.0000000 0.0000000 field for delta impulse in time

  Optional k-point grid parameters
   LKPOINTS_OPT  =     F    use optional k-point grid
   KPOINTS_OPT_MODE=     1    mode for optional k-point grid

 Orbital magnetization related:
   ORBITALMAG=     F  switch on orbital magnetization
   LCHIMAG   =     F  perturbation theory with respect to B field
   DQ        =  0.001000  dq finite difference perturbation B field
   LLRAUG    =     F  two centre corrections for induced B field
   LBONE     =     F  B-component reconstruction in AE one-centre
   LVGVCALC  =     T  calculate vGv susceptibility
   LVGVAPPL  =     F  apply vGv susceptibility instead of pGv for G=0

 Random number generation:
   RANDOM_GENERATOR = DEFAULT
   PCG_SEED         = not used


--------------------------------------------------------------------------------------------------------


 Static calculation
 charge density and potential will be updated during run
 non-spin polarized calculation
 Variant of blocked Davidson
 perform Loewdin sub-space diagonalisation
    ordering is kept fixed
    before iterative eigenvector-optimisation
 modified Broyden-mixing scheme, WC =      100.0
 initial mixing is a Kerker type mixing with AMIX =  0.4000 and BMIX =      1.0000
 Hartree-type preconditioning will be used
 using additional bands           69
 reciprocal scheme for non local part
 use partial core corrections
 calculate Harris-corrections to forces   (improved forces if not selfconsistent)
 use gradient corrections 
 use of overlap-Matrix (Vanderbilt PP)
 Gauss-broadening in eV      SIGMA  =   0.10


--------------------------------------------------------------------------------------------------------


  energy-cutoff  :     1200.00
  volume of cell :     2401.17
      direct lattice vectors                 reciprocal lattice vectors
    14.574548589  0.000000000  0.000000000     0.068612760  0.000000000  0.000000000
     0.000000000 14.574548589  0.000000000     0.000000000  0.068612760  0.000000000
     0.000000000  0.000000000 11.304024057     0.000000000  0.000000000  0.088464072

  length of vectors
    14.574548589 14.574548589 11.304024057     0.068612760  0.068612760  0.088464072



 old parameters found on file WAVECAR:
  energy-cutoff  :     1200.00
  volume of cell :     2401.17
      direct lattice vectors                 reciprocal lattice vectors
    14.574548589  0.000000000  0.000000000     0.068612760  0.000000000  0.000000000
     0.000000000 14.574548589  0.000000000     0.000000000  0.068612760  0.000000000
     0.000000000  0.000000000 11.304024057     0.000000000  0.000000000  0.088464072

  length of vectors


 k-points in units of 2pi/SCALE and weight: read from INCAR                         
   0.00000000  0.00000000  0.00000000       0.083
   0.03430638  0.00000000  0.00000000       0.083
   0.00000000  0.03430638  0.00000000       0.083
   0.03430638  0.03430638  0.00000000       0.083
   0.00000000  0.00000000  0.02948802       0.167
   0.03430638  0.00000000  0.02948802       0.167
   0.00000000  0.03430638  0.02948802       0.167
   0.03430638  0.03430638  0.02948802       0.167

 k-points in reciprocal lattice and weights: read from INCAR                         
   0.00000000  0.00000000  0.00000000       0.083
   0.50000000  0.00000000  0.00000000       0.083
   0.00000000  0.50000000  0.00000000       0.083
   0.50000000  0.50000000  0.00000000       0.083
   0.00000000  0.00000000  0.33333333       0.167
   0.50000000  0.00000000  0.33333333       0.167
   0.00000000  0.50000000  0.33333333       0.167
   0.50000000  0.50000000  0.33333333       0.167

 position of ions in fractional coordinates (direct lattice) 
   0.45235157  0.69464244  0.96522265
   0.20512608  0.61851109  0.55315611
   0.50838213  0.47002348  0.51200351
   0.42391776  0.57416255  0.16770223
   0.39347840  0.55100712  0.12567206
   0.60338198  0.57760485  0.92285720
   0.60116099  0.77739629  0.75960737
   0.41240660  0.33628349  0.87431520
   0.32640119  0.43519633  0.47726013
   0.59905595  0.59625998  0.64731462
   0.61358950  0.39854065  0.29815312
   0.49128588  0.51713300  0.31369006
   0.43001057  0.59137612  0.57058884
   0.42433698  0.48470729  0.98068616
   0.50324509  0.35773938  0.02964316
   0.44281166  0.33379284  0.45603760
   0.53338736  0.42541901  0.51743255
   0.39548806  0.39675328  0.19813652
   0.42258324  0.72957320  0.72607241
   0.44865609  0.65247098  0.93352597
   0.41034547  0.43897071  0.96092329
   0.29967515  0.47449360  0.45352787
   0.40703490  0.58991673  0.63600891
   0.60505888  0.56070484  0.85597571
   0.62360971  0.64397329  0.62672460
   0.72335002  0.57082248  0.55162126
   0.61344747  0.41253285  0.80152165
   0.45317287  0.52250469  0.34932516
   0.39479370  0.35738260  0.23719872
   0.41591340  0.70216926  0.39266194
   0.88294330  0.22310880  0.12937074
   0.30704279  0.94043393  0.69470659
   0.73026619  0.55469368  0.18087630
   0.63227893  0.20216955  0.71546999
   0.36337043  0.11174411  0.21693514
   0.61037294  0.09644347  0.24662014
   0.91055307  0.47287640  0.73231532
   0.03336323  0.25620142  0.36852186
   0.84495927  0.00201238  0.07229956
   0.73909665  0.92493431  0.75494178
   0.86761521  0.86200955  0.67741009
   0.84763517  0.08788883  0.23596464
   0.87723472  0.19404923  0.61538616
   0.91111570  0.62698408  0.78147038
   0.03378925  0.71254351  0.53936987
   0.41968984  0.15369464  0.01575023
   0.19760681  0.96097659  0.36190652
   0.04922849  0.91920514  0.29389269
   0.16253265  0.08213496  0.91825707
   0.16250932  0.37796162  0.89195670
   0.67041459  0.33851614  0.84178165
   0.22357948  0.22495174  0.83429228
   0.66120744  0.74221853  0.37663933
   0.07570457  0.62878105  0.82607839
   0.42077941  0.23870173  0.48604461
   0.68104339  0.40766683  0.19558610
   0.91123920  0.36180400  0.38145708
   0.57635267  0.94512018  0.22519857
   0.00201512  0.96229395  0.10844191
   0.00350024  0.89674819  0.77482054
   0.60101484  0.33744236  0.03205159
   0.62674463  0.83968981  0.85819085
   0.73073961  0.15207675  0.56484487
   0.24654280  0.74488070  0.14081357
   0.78936236  0.30832859  0.27235699
   0.72833817  0.89518381  0.14832152
   0.85288405  0.59210685  0.31767448
   0.72514767  0.17026531  0.34841929
   0.18538413  0.82266699  0.96774387
   0.31146694  0.84871239  0.27003570
   0.82168583  0.67300403  0.94792792
   0.03043936  0.84893881  0.97706798
   0.78461435  0.05129202  0.88132420
   0.22123292  0.10489313  0.28390421
   0.41797521  0.95508275  0.16531723
   0.69918461  0.99367743  0.56831443
   0.40969708  0.98986256  0.97062780
   0.81415901  0.39421255  0.88131005
   0.63105488  0.11152318  0.89154977
   0.10752786  0.82746302  0.65212972
   0.53822387  0.00075141  0.49968400
   0.08976196  0.46123761  0.74016120
   0.91412780  0.27395771  0.93561372
   0.03005760  0.05067169  0.79818744
   0.45224728  0.02890800  0.67856986
   0.03888319  0.35349088  0.00964356
   0.70026183  0.76228776  0.02814086
   0.05947279  0.61253630  0.03752336
   0.90092670  0.73498674  0.25280555
   0.11603035  0.57349975  0.56830558
   0.04512503  0.76118996  0.33255945
   0.11133244  0.08328423  0.61903531
   0.10577343  0.09293736  0.11093660
   0.98814724  0.13543473  0.48501047
   0.18529768  0.21830796  0.64020034
   0.90301253  0.14903995  0.80856250
   0.76803065  0.64803791  0.48172137
   0.18951873  0.94709623  0.56441847
   0.78318035  0.82480085  0.31408107
   0.94703448  0.72600533  0.05235605
   0.97863065  0.49283310  0.09069602
   0.97596848  0.48429630  0.29453228
   0.13253995  0.64755831  0.22116814
   0.93812854  0.01291031  0.37618727
   0.33605363  0.77181121  0.66645205
   0.19081140  0.74754288  0.78376160
   0.15842206  0.34929246  0.40176047
   0.08099325  0.33747735  0.59565691
   0.53373180  0.97852087  0.84282199
   0.37849886  0.23648417  0.85825720
   0.26324589  0.95612567  0.90413820
   0.46240403  0.19140010  0.67887152
   0.39164506  0.79004162  0.43676659
   0.57763230  0.17869164  0.05617380
   0.82381282  0.52604648  0.02487857
   0.63021437  0.67933150  0.19072323
   0.82820404  0.91563042  0.47744414
   0.87551254  0.71720232  0.61111954
   0.12478534  0.51703420  0.36523896
   0.47819869  0.12177050  0.36459052
   0.25778637  0.22016531  0.44865616
   0.91836120  0.35620383  0.58214490
   0.54009632  0.86500792  0.39887123
   0.04058095  0.23307754  0.15876028

 position of ions in cartesian coordinates  (Angst):
   6.59282000 10.12410000 10.91090000
   2.98962000  9.01452000  6.25289000
   7.40944000  6.85038000  5.78770000
   6.17841000  8.36816000  1.89571000
   5.73477000  8.03068000  1.42060000
   8.79402000  8.41833000 10.43200000
   8.76165000 11.33020000  8.58662000
   6.01064000  4.90118000  9.88328000
   4.75715000  6.34279000  5.39496000
   8.73097000  8.69022000  7.31726000
   8.94279000  5.80855000  3.37033000
   7.16027000  7.53698000  3.54596000
   6.26721000  8.61904000  6.44995000
   6.18452000  7.06439000 11.08570000
   7.33457000  5.21389000  0.33508700
   6.45378000  4.86488000  5.15506000
   7.77388000  6.20029000  5.84907000
   5.76406000  5.78250000  2.23974000
   6.15896000 10.63320000  8.20754000
   6.53896000  9.50947000 10.55260000
   5.98060000  6.39780000 10.86230000
   4.36763000  6.91553000  5.12669000
   5.93235000  8.59777000  7.18946000
   8.81846000  8.17202000  9.67597000
   9.08883000  9.38562000  7.08451000
  10.54250000  8.31948000  6.23554000
   8.94072000  6.01248000  9.06042000
   6.60479000  7.61527000  3.94878000
   5.75394000  5.20869000  2.68130000
   6.06175000 10.23380000  4.43866000
  12.86850000  3.25171000  1.46241000
   4.47501000 13.70640000  7.85298000
  10.64330000  8.08441000  2.04463000
   9.21518000  2.94653000  8.08769000
   5.29596000  1.62862000  2.45224000
   8.89591000  1.40562000  2.78780000
  13.27090000  6.89196000  8.27811000
   0.48625400  3.73402000  4.16578000
  12.31490000  0.02932950  0.81727600
  10.77200000 13.48050000  8.53388000
  12.64510000 12.56340000  7.65746000
  12.35390000  1.28094000  2.66735000
  12.78530000  2.82818000  6.95634000
  13.27910000  9.13801000  8.83376000
   0.49246300 10.38500000  6.09705000
   6.11679000  2.24003000  0.17804100
   2.88003000 14.00580000  4.09100000
   0.71748300 13.39700000  3.32217000
   2.36884000  1.19708000 10.38000000
   2.36850000  5.50862000 10.08270000
   9.77099000  4.93372000  9.51552000
   3.25857000  3.27857000  9.43086000
   9.63680000 10.81750000  4.25754000
   1.10336000  9.16420000  9.33801000
   6.13267000  3.47897000  5.49426000
   9.92590000  5.94156000  2.21091000
  13.28090000  5.27313000  4.31200000
   8.40008000 13.77470000  2.54565000
   0.02936950 14.02500000  1.22583000
   0.05101440 13.06970000  8.75859000
   8.75952000  4.91807000  0.36231200
   9.13452000 12.23810000  9.70101000
  10.65020000  2.21645000  6.38502000
   3.59325000 10.85630000  1.59176000
  11.50460000  4.49375000  3.07873000
  10.61520000 13.04690000  1.67663000
  12.43040000  8.62969000  3.59100000
  10.56870000  2.48154000  3.93854000
   2.70189000 11.99000000 10.93940000
   4.53949000 12.36960000  3.05249000
  11.97570000  9.80873000 10.71540000
   0.44364000 12.37290000 11.04480000
  11.43540000  0.74755800  9.96251000
   3.22437000  1.52877000  3.20926000
   6.09180000 13.91990000  1.86875000
  10.19030000 14.48240000  6.42424000
   5.97115000 14.42680000 10.97200000
  11.86600000  5.74547000  9.96235000
   9.19734000  1.62540000 10.07810000
   1.56717000 12.05990000  7.37169000
   7.84437000  0.01095141  5.64844000
   1.30824000  6.72233000  8.36680000
  13.32300000  3.99281000 10.57620000
   0.43807600  0.73851700  9.02273000
   6.59130000  0.42132100  7.67057000
   0.56670500  5.15197000  0.10901100
  10.20600000 11.11000000  0.31810500
   0.86678900  8.92744000  0.42416500
  13.13060000 10.71210000  2.85772000
   1.69109000  8.35850000  6.42414000
   0.65767700 11.09400000  3.75926000
   1.62262000  1.21383000  6.99759000
   1.54160000  1.35452000  1.25403000
  14.40180000  1.97390000  5.48257000
   2.70063000  3.18174000  7.23684000
  13.16100000  2.17219000  9.14001000
  11.19370000  9.44486000  5.44539000
   2.76215000 13.80350000  6.38020000
  11.41450000 12.02110000  3.55038000
  13.80260000 10.58120000  0.59183400
  14.26310000  7.18282000  1.02523000
  14.22430000  7.05840000  3.32940000
   1.93171000  9.43787000  2.50009000
  13.67280000  0.18816200  4.25243000
   4.89783000 11.24880000  7.53359000
   2.78099000 10.89510000  8.85966000
   2.30893000  5.09078000  4.54151000
   1.18044000  4.91858000  6.73332000
   7.77890000 14.26150000  9.52728000
   5.51645000  3.44665000  9.70176000
   3.83669000 13.93510000 10.22040000
   6.73933000  2.78957000  7.67398000
   5.70805000 11.51450000  4.93722000
   8.41873000  2.60435000  0.63499000
  12.00670000  7.66689000  0.28122800
   9.18509000  9.90095000  2.15594000
  12.07070000 13.34490000  5.39704000
  12.76020000 10.45290000  6.90811000
   1.81869000  7.53554000  4.12867000
   6.96953000  1.77475000  4.12134000
   3.75712000  3.20881000  5.07162000
  13.38470000  5.19151000  6.58058000
   7.87166000 12.60710000  4.50885000
   0.59144900  3.39700000  1.79463000



--------------------------------------------------------------------------------------------------------


 k-point     1 :   0.0000 0.0000 0.0000  plane waves:  226551
 k-point     2 :   0.5000 0.0000 0.0000  plane waves:  226578
 k-point     3 :   0.0000 0.5000 0.0000  plane waves:  226578
 k-point     4 :   0.5000 0.5000 0.0000  plane waves:  226732
 k-point     5 :   0.0000 0.0000 0.3333  plane waves:  226664
 k-point     6 :   0.5000 0.0000 0.3333  plane waves:  226700
 k-point     7 :   0.0000 0.5000 0.3333  plane waves:  226700
 k-point     8 :   0.5000 0.5000 0.3333  plane waves:  226716

 maximum and minimum number of plane-waves per node :     14231    14093

 maximum number of plane-waves:    226732
 maximum index in each direction: 
   IXMAX=   41   IYMAX=   41   IZMAX=   31
   IXMIN=  -41   IYMIN=  -41   IZMIN=  -32


 parallel 3D FFT for wavefunctions:
    minimum data exchange during FFTs selected (reduces bandwidth)
 parallel 3D FFT for charge:
    minimum data exchange during FFTs selected (reduces bandwidth)


 total amount of memory used by VASP MPI-rank0   212331. kBytes
=======================================================================

   base                                    :      30000. kBytes
   nonl-proj                               :      42785. kBytes
   fftplans                                :      43670. kBytes
   grid                                    :      33671. kBytes
   one-center                              :         24. kBytes
   wavefun                                 :      62181. kBytes

     INWAV:  cpu time     12.7794: real time     12.7868
 Broyden mixing: mesh for mixing (old mesh)
   NGX = 83   NGY = 83   NGZ = 63
  (NGX  =336   NGY  =336   NGZ  =256)
  gives a total of 434007 points

 initial charge density was supplied:
 number of electron     405.9999999 magnetization 
 keeping initial charge density in first step


--------------------------------------------------------------------------------------------------------


 Maximum index for augmentation-charges        11267 (set IRDMAX)


--------------------------------------------------------------------------------------------------------


 First call to EWALD:  gamma=   0.132
 Maximum number of real-space cells   3x   3x   3
 Maximum number of reciprocal cells   3x   3x   2

    FEWALD:  cpu time      0.0223: real time      0.0223


--------------------------------------- Ionic step        1  -------------------------------------------




--------------------------------------- Iteration      1(   1)  ---------------------------------------


    POTLOK:  cpu time      0.7711: real time      0.7716
    SETDIJ:  cpu time      1.5490: real time      1.5500
    EDDIAG:  cpu time     26.6954: real time     26.7197
     EDDAV:  cpu time    131.4295: real time    131.5473
       DOS:  cpu time      0.0073: real time      0.0073
    CHARGE:  cpu time     12.7301: real time     12.7407
    MIXING:  cpu time      0.0262: real time      0.0270
    --------------------------------------------
      LOOP:  cpu time    173.2088: real time    173.3636

 eigenvalue-minimisations  :  4592
 total energy-change (2. order) :-0.1081064E+04  (-0.1161644E+01)
 number of electron     405.9999999 magnetization 
 augmentation part      -20.3875999 magnetization 

 Broyden mixing:
  rms(total) = 0.12532E+01    rms(broyden)= 0.48728E+02
  rms(prec ) = 0.13505E+01
  weight for this iteration     100.00
  WARNING: grid for Broyden might be to small

 Free energy of the ion-electron system (eV)
  ---------------------------------------------------
  alpha Z        PSCENC =       146.11715815
  Ewald energy   TEWEN  =     -7878.05979239
  -Hartree energ DENC   =     -3290.41590287
  -exchange      EXHF   =         0.00000000
  -V(xc)+E(xc)   XCENC  =      -360.69344818
  PAW double counting   =     37224.85574855   -36288.64279329
  entropy T*S    EENTRO =        -0.11191719
  eigenvalues    EBANDS =      -697.04680989
  atomic energy  EATOM  =     10062.93342562
  Solvation  Ediel_sol  =         0.00000000
  ---------------------------------------------------
  free energy    TOTEN  =     -1081.06433149 eV

  energy without entropy =    -1080.95241430  energy(sigma->0) =    -1081.00837289


--------------------------------------------------------------------------------------------------------




--------------------------------------- Iteration      1(   2)  ---------------------------------------


    POTLOK:  cpu time      0.7596: real time      0.7791
    SETDIJ:  cpu time      1.5341: real time      1.5352
    EDDIAG:  cpu time     26.8087: real time     26.8301
     EDDAV:  cpu time    128.2545: real time    128.3707
       DOS:  cpu time      0.0041: real time      0.0041
    CHARGE:  cpu time     12.8362: real time     12.8485
    MIXING:  cpu time      0.0183: real time      0.0183
    --------------------------------------------
      LOOP:  cpu time    170.2154: real time    170.3859

 eigenvalue-minimisations  :  4400
 total energy-change (2. order) : 0.7248855E+02  (-0.1129394E+01)
 number of electron     405.9999999 magnetization 
 augmentation part      -20.2988416 magnetization 

 Broyden mixing:
  rms(total) = 0.83743E+00    rms(broyden)= 0.28072E+02
  rms(prec ) = 0.88678E+00
  weight for this iteration     100.00
  WARNING: grid for Broyden might be to small

 eigenvalues of (default mixing * dielectric matrix)
  average eigenvalue GAMMA=   0.6345
  0.6345

 Free energy of the ion-electron system (eV)
  ---------------------------------------------------
  alpha Z        PSCENC =       146.11715815
  Ewald energy   TEWEN  =     -7878.05979239
  -Hartree energ DENC   =     -3279.18054835
  -exchange      EXHF   =         0.00000000
  -V(xc)+E(xc)   XCENC  =      -352.25351247
  PAW double counting   =     44581.77983506   -43645.28701735
  entropy T*S    EENTRO =        -0.11010938
  eigenvalues    EBANDS =      -644.51522479
  atomic energy  EATOM  =     10062.93342562
  Solvation  Ediel_sol  =         0.00000000
  ---------------------------------------------------
  free energy    TOTEN  =     -1008.57578590 eV

  energy without entropy =    -1008.46567652  energy(sigma->0) =    -1008.52073121


--------------------------------------------------------------------------------------------------------




--------------------------------------- Iteration      1(   3)  ---------------------------------------


    POTLOK:  cpu time      0.7489: real time      0.7752
    SETDIJ:  cpu time      1.5345: real time      1.5350
    EDDIAG:  cpu time     26.8358: real time     26.8593
     EDDAV:  cpu time    127.2736: real time    127.3825
       DOS:  cpu time      0.0040: real time      0.0040
    CHARGE:  cpu time     12.5345: real time     12.5446
    MIXING:  cpu time      0.0155: real time      0.0155
    --------------------------------------------
      LOOP:  cpu time    168.9467: real time    169.1161

 eigenvalue-minimisations  :  4352
 total energy-change (2. order) :-0.3138841E+01  (-0.8118904E+00)
 number of electron     405.9999999 magnetization 
 augmentation part      -20.2412863 magnetization 

 Broyden mixing:
  rms(total) = 0.48009E+00    rms(broyden)= 0.22442E+02
  rms(prec ) = 0.53495E+00
  weight for this iteration     100.00
  WARNING: grid for Broyden might be to small

 eigenvalues of (default mixing * dielectric matrix)
  average eigenvalue GAMMA=   0.7117
  0.7995  0.6240

 Free energy of the ion-electron system (eV)
  ---------------------------------------------------
  alpha Z        PSCENC =       146.11715815
  Ewald energy   TEWEN  =     -7878.05979239
  -Hartree energ DENC   =     -3283.61694188
  -exchange      EXHF   =         0.00000000
  -V(xc)+E(xc)   XCENC  =      -357.05964955
  PAW double counting   =     50749.37007922   -49812.97163201
  entropy T*S    EENTRO =        -0.11647106
  eigenvalues    EBANDS =      -638.31080321
  atomic energy  EATOM  =     10062.93342562
  Solvation  Ediel_sol  =         0.00000000
  ---------------------------------------------------
  free energy    TOTEN  =     -1011.71462710 eV

  energy without entropy =    -1011.59815604  energy(sigma->0) =    -1011.65639157


--------------------------------------------------------------------------------------------------------




--------------------------------------- Iteration      1(   4)  ---------------------------------------


    POTLOK:  cpu time      0.7489: real time      0.7737
    SETDIJ:  cpu time      1.5276: real time      1.5286
    EDDIAG:  cpu time     26.8474: real time     26.8713
     EDDAV:  cpu time    132.2743: real time    132.3969
       DOS:  cpu time      0.0052: real time      0.0052
    CHARGE:  cpu time     12.4879: real time     12.4991
    MIXING:  cpu time      0.0155: real time      0.0155
    --------------------------------------------
      LOOP:  cpu time    173.9069: real time    174.0902

 eigenvalue-minimisations  :  4656
 total energy-change (2. order) :-0.3262295E+00  (-0.8620346E-01)
 number of electron     405.9999999 magnetization 
 augmentation part      -20.2288552 magnetization 

 Broyden mixing:
  rms(total) = 0.51660E-01    rms(broyden)= 0.23292E+01
  rms(prec ) = 0.86823E-01
  weight for this iteration     100.00
  WARNING: grid for Broyden might be to small

 eigenvalues of (default mixing * dielectric matrix)
  average eigenvalue GAMMA=   1.0324
  1.7721  0.7030  0.6220

 Free energy of the ion-electron system (eV)
  ---------------------------------------------------
  alpha Z        PSCENC =       146.11715815
  Ewald energy   TEWEN  =     -7878.05979239
  -Hartree energ DENC   =     -3290.66794591
  -exchange      EXHF   =         0.00000000
  -V(xc)+E(xc)   XCENC  =      -357.14693116
  PAW double counting   =     59456.24664208   -58519.91801816
  entropy T*S    EENTRO =        -0.10553835
  eigenvalues    EBANDS =      -631.43985645
  atomic energy  EATOM  =     10062.93342562
  Solvation  Ediel_sol  =         0.00000000
  ---------------------------------------------------
  free energy    TOTEN  =     -1012.04085657 eV

  energy without entropy =    -1011.93531822  energy(sigma->0) =    -1011.98808739


--------------------------------------------------------------------------------------------------------




--------------------------------------- Iteration      1(   5)  ---------------------------------------


    POTLOK:  cpu time      0.7515: real time      0.7782
    SETDIJ:  cpu time      1.5322: real time      1.5330
    EDDIAG:  cpu time     26.8577: real time     26.8812
     EDDAV:  cpu time    143.2040: real time    143.3283
       DOS:  cpu time      0.0068: real time      0.0068
    CHARGE:  cpu time     12.4165: real time     12.4268
    MIXING:  cpu time      0.0159: real time      0.0159
    --------------------------------------------
      LOOP:  cpu time    184.7846: real time    184.9702

 eigenvalue-minimisations  :  5296
 total energy-change (2. order) :-0.3727320E-01  (-0.1127150E-01)
 number of electron     405.9999999 magnetization 
 augmentation part      -20.2301857 magnetization 

 Broyden mixing:
  rms(total) = 0.54402E-01    rms(broyden)= 0.67045E+00
  rms(prec ) = 0.94686E-01
  weight for this iteration     100.00
  WARNING: grid for Broyden might be to small

 eigenvalues of (default mixing * dielectric matrix)
  average eigenvalue GAMMA=   1.1673
  2.4886  0.9205  0.6301  0.6301

 Free energy of the ion-electron system (eV)
  ---------------------------------------------------
  alpha Z        PSCENC =       146.11715815
  Ewald energy   TEWEN  =     -7878.05979239
  -Hartree energ DENC   =     -3291.10603486
  -exchange      EXHF   =         0.00000000
  -V(xc)+E(xc)   XCENC  =      -358.28964717
  PAW double counting   =     59261.42798783   -58325.07298060
  entropy T*S    EENTRO =        -0.11953130
  eigenvalues    EBANDS =      -629.90871506
  atomic energy  EATOM  =     10062.93342562
  Solvation  Ediel_sol  =         0.00000000
  ---------------------------------------------------
  free energy    TOTEN  =     -1012.07812976 eV

  energy without entropy =    -1011.95859846  energy(sigma->0) =    -1012.01836411


--------------------------------------------------------------------------------------------------------




--------------------------------------- Iteration      1(   6)  ---------------------------------------


    POTLOK:  cpu time      0.7517: real time      0.7760
    SETDIJ:  cpu time      1.5327: real time      1.5335
    EDDIAG:  cpu time     26.8658: real time     26.8903
     EDDAV:  cpu time    136.2112: real time    136.3338
       DOS:  cpu time      0.0047: real time      0.0047
    CHARGE:  cpu time     12.4561: real time     12.4674
    MIXING:  cpu time      0.0163: real time      0.0163
    --------------------------------------------
      LOOP:  cpu time    177.8386: real time    178.0220

 eigenvalue-minimisations  :  4896
 total energy-change (2. order) : 0.1128300E-02  (-0.3548584E-02)
 number of electron     405.9999999 magnetization 
 augmentation part      -20.2312190 magnetization 

 Broyden mixing:
  rms(total) = 0.27635E-01    rms(broyden)= 0.23811E+00
  rms(prec ) = 0.39881E-01
  weight for this iteration     100.00
  WARNING: grid for Broyden might be to small

 eigenvalues of (default mixing * dielectric matrix)
  average eigenvalue GAMMA=   1.0366
  2.5558  0.9491  0.6451  0.6283  0.4050

 Free energy of the ion-electron system (eV)
  ---------------------------------------------------
  alpha Z        PSCENC =       146.11715815
  Ewald energy   TEWEN  =     -7878.05979239
  -Hartree energ DENC   =     -3291.22100335
  -exchange      EXHF   =         0.00000000
  -V(xc)+E(xc)   XCENC  =      -358.61155710
  PAW double counting   =     59131.83200873   -58195.46418066
  entropy T*S    EENTRO =        -0.11131054
  eigenvalues    EBANDS =      -629.49174993
  atomic energy  EATOM  =     10062.93342562
  Solvation  Ediel_sol  =         0.00000000
  ---------------------------------------------------
  free energy    TOTEN  =     -1012.07700146 eV

  energy without entropy =    -1011.96569092  energy(sigma->0) =    -1012.02134619


--------------------------------------------------------------------------------------------------------




--------------------------------------- Iteration      1(   7)  ---------------------------------------


    POTLOK:  cpu time      0.7513: real time      0.7763
    SETDIJ:  cpu time      1.5377: real time      1.5386
    EDDIAG:  cpu time     26.8417: real time     26.8639
     EDDAV:  cpu time    134.4002: real time    134.5172
       DOS:  cpu time      0.0049: real time      0.0049
    CHARGE:  cpu time     12.6585: real time     12.6699
    MIXING:  cpu time      0.0161: real time      0.0161
    --------------------------------------------
      LOOP:  cpu time    176.2103: real time    176.3868

 eigenvalue-minimisations  :  4784
 total energy-change (2. order) :-0.5735528E-03  (-0.9467411E-03)
 number of electron     405.9999999 magnetization 
 augmentation part      -20.2304733 magnetization 

 Broyden mixing:
  rms(total) = 0.18135E-01    rms(broyden)= 0.18440E+00
  rms(prec ) = 0.23029E-01
  weight for this iteration     100.00
  WARNING: grid for Broyden might be to small

 eigenvalues of (default mixing * dielectric matrix)
  average eigenvalue GAMMA=   1.0126
  2.5561  1.1153  0.7883  0.6333  0.6333  0.3494

 Free energy of the ion-electron system (eV)
  ---------------------------------------------------
  alpha Z        PSCENC =       146.11715815
  Ewald energy   TEWEN  =     -7878.05979239
  -Hartree energ DENC   =     -3291.49626942
  -exchange      EXHF   =         0.00000000
  -V(xc)+E(xc)   XCENC  =      -358.62918551
  PAW double counting   =     59100.62871466   -58164.25193204
  entropy T*S    EENTRO =        -0.11322220
  eigenvalues    EBANDS =      -629.20647190
  atomic energy  EATOM  =     10062.93342562
  Solvation  Ediel_sol  =         0.00000000
  ---------------------------------------------------
  free energy    TOTEN  =     -1012.07757502 eV

  energy without entropy =    -1011.96435282  energy(sigma->0) =    -1012.02096392


--------------------------------------------------------------------------------------------------------




--------------------------------------- Iteration      1(   8)  ---------------------------------------


    POTLOK:  cpu time      0.7442: real time      0.7704
    SETDIJ:  cpu time      1.5351: real time      1.5367
    EDDIAG:  cpu time     26.8194: real time     26.8444
     EDDAV:  cpu time    132.3707: real time    132.4897
       DOS:  cpu time      0.0037: real time      0.0037
    CHARGE:  cpu time     12.5951: real time     12.6062
    MIXING:  cpu time      0.0163: real time      0.0163
    --------------------------------------------
      LOOP:  cpu time    174.0846: real time    174.2675

 eigenvalue-minimisations  :  4664
 total energy-change (2. order) :-0.8808426E-03  (-0.4448111E-03)
 number of electron     405.9999999 magnetization 
 augmentation part      -20.2279829 magnetization 

 Broyden mixing:
  rms(total) = 0.46865E-02    rms(broyden)= 0.15785E+00
  rms(prec ) = 0.58763E-02
  weight for this iteration     100.00
  WARNING: grid for Broyden might be to small

 eigenvalues of (default mixing * dielectric matrix)
  average eigenvalue GAMMA=   0.9795
  2.5548  1.3551  0.8765  0.6422  0.6288  0.4837  0.3151

 Free energy of the ion-electron system (eV)
  ---------------------------------------------------
  alpha Z        PSCENC =       146.11715815
  Ewald energy   TEWEN  =     -7878.05979239
  -Hartree energ DENC   =     -3292.23398713
  -exchange      EXHF   =         0.00000000
  -V(xc)+E(xc)   XCENC  =      -358.40115674
  PAW double counting   =     59079.97599953   -58143.57831258
  entropy T*S    EENTRO =        -0.11343364
  eigenvalues    EBANDS =      -628.71835668
  atomic energy  EATOM  =     10062.93342562
  Solvation  Ediel_sol  =         0.00000000
  ---------------------------------------------------
  free energy    TOTEN  =     -1012.07845586 eV

  energy without entropy =    -1011.96502222  energy(sigma->0) =    -1012.02173904


--------------------------------------------------------------------------------------------------------




--------------------------------------- Iteration      1(   9)  ---------------------------------------


    POTLOK:  cpu time      0.7505: real time      0.7772
    SETDIJ:  cpu time      1.5348: real time      1.5354
    EDDIAG:  cpu time     26.8222: real time     26.8467
     EDDAV:  cpu time    142.7154: real time    142.8485
       DOS:  cpu time      0.0051: real time      0.0051
    CHARGE:  cpu time     12.5713: real time     12.5827
    MIXING:  cpu time      0.0163: real time      0.0163
    --------------------------------------------
      LOOP:  cpu time    184.4156: real time    184.6121

 eigenvalue-minimisations  :  5264
 total energy-change (2. order) :-0.9740898E-04  (-0.3674956E-04)
 number of electron     405.9999999 magnetization 
 augmentation part      -20.2280158 magnetization 

 Broyden mixing:
  rms(total) = 0.17231E-02    rms(broyden)= 0.11105E+00
  rms(prec ) = 0.23390E-02
  weight for this iteration     100.00
  WARNING: grid for Broyden might be to small

 eigenvalues of (default mixing * dielectric matrix)
  average eigenvalue GAMMA=   1.0597
  2.6015  2.0211  1.0280  0.8090  0.6365  0.6317  0.4434  0.3060

 Free energy of the ion-electron system (eV)
  ---------------------------------------------------
  alpha Z        PSCENC =       146.11715815
  Ewald energy   TEWEN  =     -7878.05979239
  -Hartree energ DENC   =     -3292.34261968
  -exchange      EXHF   =         0.00000000
  -V(xc)+E(xc)   XCENC  =      -358.41001361
  PAW double counting   =     59124.87365047   -58188.47093023
  entropy T*S    EENTRO =        -0.11342367
  eigenvalues    EBANDS =      -628.60600793
  atomic energy  EATOM  =     10062.93342562
  Solvation  Ediel_sol  =         0.00000000
  ---------------------------------------------------
  free energy    TOTEN  =     -1012.07855327 eV

  energy without entropy =    -1011.96512960  energy(sigma->0) =    -1012.02184143


--------------------------------------------------------------------------------------------------------




--------------------------------------- Iteration      1(  10)  ---------------------------------------


    POTLOK:  cpu time      0.7515: real time      0.7745
    SETDIJ:  cpu time      1.5323: real time      1.5340
    EDDIAG:  cpu time     26.7997: real time     26.8241
     EDDAV:  cpu time    135.0930: real time    135.2066
       DOS:  cpu time      0.0050: real time      0.0050
    CHARGE:  cpu time     12.5887: real time     12.5993
    MIXING:  cpu time      0.0167: real time      0.0167
    --------------------------------------------
      LOOP:  cpu time    176.7867: real time    176.9600

 eigenvalue-minimisations  :  4816
 total energy-change (2. order) :-0.2363881E-04  (-0.8384169E-05)
 number of electron     405.9999999 magnetization 
 augmentation part      -20.2281355 magnetization 

 Broyden mixing:
  rms(total) = 0.10848E-02    rms(broyden)= 0.36146E-01
  rms(prec ) = 0.13083E-02
  weight for this iteration     100.00
  WARNING: grid for Broyden might be to small

 eigenvalues of (default mixing * dielectric matrix)
  average eigenvalue GAMMA=   1.1044
  2.7294  2.4811  1.1109  0.9214  0.3080  0.4306  0.7024  0.6332  0.6227

 Free energy of the ion-electron system (eV)
  ---------------------------------------------------
  alpha Z        PSCENC =       146.11715815
  Ewald energy   TEWEN  =     -7878.05979239
  -Hartree energ DENC   =     -3292.32458921
  -exchange      EXHF   =         0.00000000
  -V(xc)+E(xc)   XCENC  =      -358.42836404
  PAW double counting   =     59122.90170431   -58186.49699894
  entropy T*S    EENTRO =        -0.11342397
  eigenvalues    EBANDS =      -628.60769643
  atomic energy  EATOM  =     10062.93342562
  Solvation  Ediel_sol  =         0.00000000
  ---------------------------------------------------
  free energy    TOTEN  =     -1012.07857691 eV

  energy without entropy =    -1011.96515293  energy(sigma->0) =    -1012.02186492


--------------------------------------------------------------------------------------------------------




--------------------------------------- Iteration      1(  11)  ---------------------------------------


    POTLOK:  cpu time      0.7520: real time      0.7741
    SETDIJ:  cpu time      1.5317: real time      1.5332
    EDDIAG:  cpu time     26.7705: real time     26.7942
     EDDAV:  cpu time    134.7469: real time    134.8651
       DOS:  cpu time      0.0054: real time      0.0054
    CHARGE:  cpu time     12.5183: real time     12.5297
    MIXING:  cpu time      0.0172: real time      0.0172
    --------------------------------------------
      LOOP:  cpu time    176.3419: real time    176.5189

 eigenvalue-minimisations  :  4808
 total energy-change (2. order) :-0.1685450E-04  (-0.3346379E-05)
 number of electron     405.9999999 magnetization 
 augmentation part      -20.2281759 magnetization 

 Broyden mixing:
  rms(total) = 0.41981E-03    rms(broyden)= 0.12753E-01
  rms(prec ) = 0.55722E-03
  weight for this iteration     100.00
  WARNING: grid for Broyden might be to small

 eigenvalues of (default mixing * dielectric matrix)
  average eigenvalue GAMMA=   1.1658
  3.0993  2.5926  1.4172  1.0442  0.8656  0.3081  0.4300  0.6658  0.6318  0.6037

 Free energy of the ion-electron system (eV)
  ---------------------------------------------------
  alpha Z        PSCENC =       146.11715815
  Ewald energy   TEWEN  =     -7878.05979239
  -Hartree energ DENC   =     -3292.31258844
  -exchange      EXHF   =         0.00000000
  -V(xc)+E(xc)   XCENC  =      -358.43299849
  PAW double counting   =     59114.71809766   -58178.31139818
  entropy T*S    EENTRO =        -0.11342862
  eigenvalues    EBANDS =      -628.61706908
  atomic energy  EATOM  =     10062.93342562
  Solvation  Ediel_sol  =         0.00000000
  ---------------------------------------------------
  free energy    TOTEN  =     -1012.07859376 eV

  energy without entropy =    -1011.96516514  energy(sigma->0) =    -1012.02187945


--------------------------------------------------------------------------------------------------------




--------------------------------------- Iteration      1(  12)  ---------------------------------------


    POTLOK:  cpu time      0.7553: real time      0.7734
    SETDIJ:  cpu time      1.5354: real time      1.5361
    EDDIAG:  cpu time     26.8128: real time     26.8363
     EDDAV:  cpu time    137.8417: real time    137.9610
       DOS:  cpu time      0.0042: real time      0.0042
    CHARGE:  cpu time     12.6005: real time     12.6112
    MIXING:  cpu time      0.0185: real time      0.0185
    --------------------------------------------
      LOOP:  cpu time    179.5685: real time    179.7406

 eigenvalue-minimisations  :  4984
 total energy-change (2. order) :-0.3666049E-05  (-0.8123528E-06)
 number of electron     405.9999999 magnetization 
 augmentation part      -20.2282266 magnetization 

 Broyden mixing:
  rms(total) = 0.19893E-03    rms(broyden)= 0.81761E-02
  rms(prec ) = 0.28572E-03
  weight for this iteration     100.00
  WARNING: grid for Broyden might be to small

 eigenvalues of (default mixing * dielectric matrix)
  average eigenvalue GAMMA=   1.1880
  3.3430  2.6121  1.6981  1.0300  1.0039  0.3080  0.4307  0.7587  0.6477  0.6256
  0.6102

 Free energy of the ion-electron system (eV)
  ---------------------------------------------------
  alpha Z        PSCENC =       146.11715815
[...]
   0.143E+02 -.436E+02 -.246E+02   -.153E+02 0.445E+02 0.219E+02   0.714E+00 -.110E+01 0.401E+01   0.171E-03 0.272E-04 -.756E-04
   0.553E+02 0.218E+02 0.284E+02   -.556E+02 -.195E+02 -.262E+02   0.772E+00 -.326E+01 -.278E+01   -.159E-03 -.114E-03 -.118E-03
   0.113E+03 0.462E+02 0.130E+02   -.114E+03 -.474E+02 -.134E+02   0.127E+01 0.831E+00 -.528E+00   0.308E-03 0.317E-04 0.112E-03
   0.181E+02 0.144E+02 -.117E+02   -.187E+02 -.141E+02 0.112E+02   0.803E+00 0.730E+00 0.413E+00   0.409E-04 0.607E-05 0.343E-04
   0.470E+02 0.417E+02 -.253E+01   -.461E+02 -.410E+02 0.465E+01   0.455E-02 -.186E+01 -.204E+01   -.121E-03 -.145E-03 0.555E-04
   -.997E+02 0.108E+00 0.135E+02   0.972E+02 0.303E+00 -.114E+02   0.201E+01 -.749E+00 -.193E+01   -.239E-03 0.133E-03 0.634E-03
   0.110E+02 -.476E+02 -.131E+02   -.103E+02 0.490E+02 0.111E+02   -.327E+00 -.119E+01 0.177E+01   0.511E-04 0.299E-04 0.263E-03
   -.547E+02 -.428E+02 0.159E+02   0.550E+02 0.441E+02 -.142E+02   -.324E+00 -.737E+00 -.182E+01   0.106E-03 -.691E-04 0.338E-03
   0.576E+02 -.423E+02 -.175E+02   -.560E+02 0.416E+02 0.157E+02   -.154E+01 0.437E+00 0.242E+01   -.122E-03 0.893E-04 0.114E-03
   0.280E+02 0.730E+02 -.239E+02   -.288E+02 -.700E+02 0.235E+02   0.843E+00 -.412E+01 0.833E+00   0.236E-04 0.178E-04 0.258E-03
   -.654E+02 -.369E+02 0.698E+01   0.620E+02 0.357E+02 -.732E+01   0.301E+01 0.167E+01 0.400E+00   -.233E-03 -.204E-03 -.242E-05
 -----------------------------------------------------------------------------------------------
   -.702E+01 0.312E+01 0.149E+01   0.426E-12 0.355E-13 -.151E-13   0.701E+01 -.312E+01 -.149E+01   -.119E-02 0.224E-03 0.133E-02


 POSITION                                       TOTAL-FORCE (eV/Angst)
 -----------------------------------------------------------------------------------
      6.59282     10.12410     10.91090         0.071282      1.012954      0.608228
      2.98962      9.01452      6.25289         0.750110      0.103701      0.580246
      7.40944      6.85038      5.78770         0.260433     -0.196943      0.141582
      6.17841      8.36816      1.89571         0.164892      0.228428      0.165278
      5.73477      8.03068      1.42060        -0.279540     -0.080518     -0.206135
      8.79402      8.41833     10.43200         0.043952     -0.444432     -1.436037
      8.76165     11.33020      8.58662        -0.175050     -0.232586      0.090084
      6.01064      4.90118      9.88328        -0.524685     -0.830308     -0.154626
      4.75715      6.34279      5.39496         0.137007      0.013298      0.066707
      8.73097      8.69022      7.31726         0.710601      1.890862     -0.460578
      8.94279      5.80855      3.37033         0.038762     -0.020287     -0.389138
      7.16027      7.53698      3.54596         1.794088     -0.224248     -1.196202
      6.26721      8.61904      6.44995        -0.871282     -0.110859      1.832150
      6.18452      7.06439     11.08570         0.038128      0.483599      0.043910
      7.33457      5.21389      0.33509        -0.174786      0.510706     -0.039206
      6.45378      4.86488      5.15506         0.164293      0.181003     -0.065023
      7.77388      6.20029      5.84907        -0.006082      0.290092      0.087448
      5.76406      5.78250      2.23974        -0.016446      0.550131     -0.451587
      6.15896     10.63320      8.20754        -0.786192      0.584686     -0.453022
      6.53896      9.50947     10.55260        -0.105713     -0.968000     -0.610177
      5.98060      6.39780     10.86230        -0.231650     -0.154960     -0.200524
      4.36763      6.91553      5.12669         0.085948      0.123661      0.040083
      5.93235      8.59777      7.18946         0.839213     -0.048256     -1.871129
      8.81846      8.17202      9.67597        -0.030810      0.486328      1.510180
      9.08883      9.38562      7.08451        -1.229431     -1.784742      0.801627
     10.54250      8.31948      6.23554         0.554097      0.324530     -0.466601
      8.94072      6.01248      9.06042        -0.451099      0.907347     -0.729749
      6.60479      7.61527      3.94878        -1.736859      0.283928      1.282957
      5.75394      5.20869      2.68130        -0.038425     -0.617081      0.441679
      6.06175     10.23380      4.43866         0.237770     -1.530160     -0.268023
     12.86850      3.25171      1.46241        -0.335093      0.409506      0.819506
      4.47501     13.70640      7.85298         1.521767     -0.587224      0.856527
     10.64330      8.08441      2.04463         0.364295      0.150472      0.914007
      9.21518      2.94653      8.08769        -1.074713      0.834420      1.078601
      5.29596      1.62862      2.45224         1.911729     -1.060302     -0.977651
      8.89591      1.40562      2.78780        -0.994922      1.950433     -0.465882
     13.27090      6.89196      8.27811         0.497270     -1.335264      0.462571
      0.48625      3.73402      4.16578        -0.314986      0.438660     -1.166808
     12.31490      0.02933      0.81728        -1.442012     -1.057362     -0.552207
     10.77200     13.48050      8.53388        -0.280333      0.580762      0.656897
     12.64510     12.56340      7.65746         0.031049      0.516733     -0.749356
     12.35390      1.28094      2.66735        -0.397336      1.145517      0.968565
     12.78530      2.82818      6.95634         0.290408      1.039062     -0.250227
     13.27910      9.13801      8.83376        -0.291401      1.027646     -0.959902
      0.49246     10.38500      6.09705        -0.604722      0.451726     -0.353948
      6.11679      2.24003      0.17804         0.546377     -1.583983      1.610899
      2.88003     14.00580      4.09100         0.413191     -0.973593     -0.979543
      0.71748     13.39700      3.32217         0.744431     -0.455981      0.689825
      2.36884      1.19708     10.38000        -0.080726      0.464726     -0.176497
      2.36850      5.50862     10.08270         1.153274     -0.516108     -0.288610
      9.77099      4.93372      9.51552        -0.517665     -0.642721     -0.320349
      3.25857      3.27857      9.43086        -0.624894      0.513598      0.792736
      9.63680     10.81750      4.25754        -0.479280      0.124072      0.544532
      1.10336      9.16420      9.33801         0.399920     -0.721913      0.175438
      6.13267      3.47897      5.49426        -0.574174     -0.647248      0.036198
      9.92590      5.94156      2.21091        -1.273359     -0.642931      0.740242
     13.28090      5.27313      4.31200         0.019317     -0.788758     -0.122008
      8.40008     13.77470      2.54565         0.278416     -0.862082     -0.681904
      0.02937     14.02500      1.22583         0.238183      0.779696     -0.161406
      0.05101     13.06970      8.75859        -0.464575     -0.146731      0.653848
      8.75952      4.91807      0.36231         0.975320     -0.734318      0.540779
      9.13452     12.23810      9.70101         0.157585      0.437584     -0.246623
     10.65020      2.21645      6.38502        -0.094356     -0.411854     -0.774218
      3.59325     10.85630      1.59176        -0.127164      0.102927     -0.119638
     11.50460      4.49375      3.07873         0.148483     -0.789858     -1.004298
     10.61520     13.04690      1.67663         0.050728      0.088843     -1.021232
     12.43040      8.62969      3.59100        -0.352301     -0.179075     -0.228622
     10.56870      2.48154      3.93854         0.968302     -0.261277      0.226330
      2.70189     11.99000     10.93940         1.193296     -0.367458      0.348586
      4.53949     12.36960      3.05249        -0.085365      1.305440      0.267462
     11.97570      9.80873     10.71540         0.588489     -0.158124     -0.516662
      0.44364     12.37290     11.04480        -0.468643     -0.053999     -1.048294
     11.43540      0.74756      9.96251        -0.010474     -0.104422      0.304845
      3.22437      1.52877      3.20926        -1.137957      0.304495      0.355080
      6.09180     13.91990      1.86875        -0.448946     -0.013486      0.932288
     10.19030     14.48240      6.42424        -0.061511      0.340830     -0.186735
      5.97115     14.42680     10.97200         0.106299      0.853720     -0.130489
     11.86600      5.74547      9.96235         1.051762      1.088060      0.104604
      9.19734      1.62540     10.07810         0.795995     -1.645650     -1.213658
      1.56717     12.05990      7.37169        -0.466716      0.188313     -0.625199
      7.84437      0.01095      5.64844        -0.129033      0.323543      0.895213
      1.30824      6.72233      8.36680        -1.346016      1.391509     -0.245758
     13.32300      3.99281     10.57620        -0.992399     -0.003952      0.243578
      0.43808      0.73852      9.02273         0.968510      0.652334     -0.375106
      6.59130      0.42132      7.67057        -0.171386     -0.829767     -0.910807
      0.56670      5.15197      0.10901         0.039808     -0.193919      0.702166
     10.20600     11.11000      0.31811        -0.770859      0.710273     -0.118789
      0.86679      8.92744      0.42416         0.721243      1.103738      0.017299
     13.13060     10.71210      2.85772         0.686161     -0.609062     -0.526109
      1.69109      8.35850      6.42414        -0.431290     -0.343672     -0.632997
      0.65768     11.09400      3.75926        -0.372915     -0.703403      0.502977
      1.62262      1.21383      6.99759        -1.644139     -0.493895     -0.328982
      1.54160      1.35452      1.25403         0.450816      0.295646      0.482666
     14.40180      1.97390      5.48257         0.959971     -0.814862      1.098115
      2.70063      3.18174      7.23684        -0.269648      0.124394     -1.205360
     13.16100      2.17219      9.14001        -0.040688     -0.422570      0.165176
     11.19370      9.44486      5.44539        -0.127862     -0.776911      0.304812
      2.76215     13.80350      6.38020        -0.674096      0.701181     -0.020954
     11.41450     12.02110      3.55038         0.344284      0.871014      0.616704
     13.80260     10.58120      0.59183        -0.201391      0.023069      0.369536
     14.26310      7.18282      1.02523        -1.373480     -1.832204     -0.315503
     14.22430      7.05840      3.32940        -0.302326      1.176782      0.308136
      1.93171      9.43787      2.50009         0.478294      0.311772     -0.102806
     13.67280      0.18816      4.25243        -0.858569     -0.205668      0.504011
      4.89783     11.24880      7.53359         0.744286      0.931086      0.049673
      2.78099     10.89510      8.85966         0.755956     -0.926501     -0.099374
      2.30893      5.09078      4.54151         0.101530      0.585309      1.167633
      1.18044      4.91858      6.73332         0.674223      0.191240     -0.730982
      7.77890     14.26150      9.52728         0.501333     -0.236689      0.799722
      5.51645      3.44665      9.70176         0.879785      1.586630     -1.112547
      3.83669     13.93510     10.22040        -0.131493      0.288268     -1.012240
      6.73933      2.78957      7.67398         0.414166     -0.105529      0.814701
      5.70805     11.51450      4.93722        -0.109248      0.813809      0.502430
      8.41873      2.60435      0.63499        -0.262061     -0.249842      1.439492
     12.00670      7.66689      0.28123         0.462669     -1.100816     -0.728860
      9.18509      9.90095      2.15594        -0.197559     -0.371753     -1.010127
     12.07070     13.34490      5.39704         0.158017      1.125567     -0.027207
     12.76020     10.45290      6.90811         0.970497     -1.214315      0.008409
      1.81869      7.53554      4.12867        -0.576915     -0.405280      0.029533
      6.96953      1.77475      4.12134         0.423268      0.071687     -0.100792
      3.75712      3.20881      5.07162        -0.154993      0.502440     -0.194410
     13.38470      5.19151      6.58058        -0.027363     -0.320028      0.724133
      7.87166     12.60710      4.50885         0.070298     -1.260506      0.516160
      0.59145      3.39700      1.79463        -0.314171      0.512463      0.084637
 -----------------------------------------------------------------------------------
    total drift:                               -0.006578      0.006148     -0.001602


--------------------------------------------------------------------------------------------------------



  FREE ENERGIE OF THE ION-ELECTRON SYSTEM (eV)
  ---------------------------------------------------
  free  energy   TOTEN  =     -1012.07859775 eV

  energy  without entropy=    -1011.96516724  energy(sigma->0) =    -1012.02188250



--------------------------------------------------------------------------------------------------------


    POTLOK:  cpu time      2.2741: real time      2.2753


--------------------------------------------------------------------------------------------------------


     LOOP+:  cpu time   2556.0011: real time   2558.5352
    4ORBIT:  cpu time      0.0000: real time      0.0000



 total charge

# of ion       s       p       d       tot
------------------------------------------
    1        0.634   0.038   0.000   0.672
    2        0.578   0.017   0.000   0.595
    3        0.611   0.032   0.000   0.643
    4        0.620   0.035   0.000   0.655
    5        0.626   0.034   0.000   0.660
    6        0.577   0.025   0.000   0.603
    7        0.567   0.016   0.000   0.583
    8        0.547   0.014   0.000   0.561
    9        0.612   0.033   0.000   0.645
   10        0.567   0.023   0.000   0.590
   11        0.557   0.014   0.000   0.571
   12        0.654   0.043   0.000   0.697
   13        0.567   0.024   0.000   0.591
   14        0.627   0.034   0.000   0.661
   15        0.580   0.019   0.000   0.599
   16        0.574   0.018   0.000   0.592
   17        0.613   0.032   0.000   0.645
   18        0.623   0.036   0.000   0.659
   19        0.537   0.013   0.000   0.551
   20        0.635   0.037   0.000   0.672
   21        0.622   0.036   0.000   0.658
   22        0.614   0.033   0.000   0.647
   23        0.567   0.024   0.000   0.591
   24        0.574   0.026   0.000   0.600
   25        0.566   0.024   0.000   0.590
   26        0.556   0.015   0.000   0.571
   27        0.594   0.018   0.000   0.613
   28        0.658   0.042   0.000   0.700
   29        0.629   0.035   0.000   0.664
   30        0.602   0.019   0.000   0.621
   31        0.765   0.932   0.000   1.697
   32        0.753   0.898   0.000   1.651
   33        0.749   0.980   0.000   1.729
   34        0.749   0.885   0.000   1.634
   35        0.762   0.921   0.000   1.683
   36        0.752   0.936   0.000   1.688
   37        0.759   0.879   0.000   1.638
   38        0.757   0.961   0.000   1.718
   39        0.755   0.921   0.000   1.676
   40        0.754   0.940   0.000   1.694
   41        0.755   0.980   0.000   1.735
   42        0.763   0.937   0.000   1.700
   43        0.752   0.950   0.000   1.702
   44        0.760   0.901   0.000   1.661
   45        0.754   0.900   0.000   1.654
   46        0.754   0.931   0.000   1.686
   47        0.759   0.925   0.000   1.683
   48        0.751   0.965   0.000   1.716
   49        0.751   0.915   0.000   1.667
   50        0.808   0.845   0.000   1.653
   51        0.743   0.978   0.000   1.721
   52        0.754   0.938   0.000   1.692
   53        0.755   0.932   0.000   1.687
   54        0.782   0.819   0.000   1.600
   55        0.741   0.968   0.000   1.709
   56        0.741   0.979   0.000   1.719
   57        0.754   1.000   0.000   1.754
   58        0.751   0.924   0.000   1.675
   59        0.753   0.946   0.000   1.698
   60        0.750   0.971   0.000   1.722
   61        0.742   0.976   0.000   1.718
   62        0.741   0.931   0.000   1.673
   63        0.744   0.941   0.000   1.686
   64        0.788   0.852   0.000   1.640
   65        0.752   0.939   0.000   1.691
   66        0.762   0.897   0.000   1.658
   67        0.756   0.931   0.000   1.686
   68        0.752   0.904   0.000   1.656
   69        0.750   0.936   0.000   1.686
   70        0.750   0.893   0.000   1.643
   71        0.751   0.958   0.000   1.709
   72        0.758   0.971   0.000   1.729
   73        0.749   0.901   0.000   1.650
   74        0.754   0.919   0.000   1.673
   75        0.758   0.906   0.000   1.665
   76        0.758   0.892   0.000   1.651
   77        0.755   0.966   0.000   1.721
   78        0.750   0.909   0.000   1.659
   79        0.754   0.936   0.000   1.690
   80        0.753   1.000   0.000   1.753
   81        0.751   0.902   0.000   1.654
   82        0.754   0.850   0.000   1.604
   83        0.756   0.947   0.000   1.703
   84        0.750   0.955   0.000   1.705
   85        0.749   0.916   0.000   1.665
   86        0.758   0.935   0.000   1.693
   87        0.754   0.871   0.000   1.625
   88        0.756   0.978   0.000   1.734
   89        0.753   0.990   0.000   1.743
   90        0.756   0.907   0.000   1.663
   91        0.756   0.918   0.000   1.674
   92        0.761   0.940   0.000   1.700
   93        0.755   0.900   0.000   1.655
   94        0.751   0.954   0.000   1.705
   95        0.759   0.969   0.000   1.728
   96        0.744   0.960   0.000   1.704
   97        0.741   0.936   0.000   1.677
   98        0.747   0.984   0.000   1.731
   99        0.758   0.997   0.000   1.755
  100        0.757   0.959   0.000   1.717
  101        0.754   0.978   0.000   1.732
  102        0.752   0.973   0.000   1.725
  103        0.754   0.869   0.000   1.624
  104        0.754   0.960   0.000   1.713
  105        0.748   0.827   0.000   1.574
  106        0.762   0.906   0.000   1.668
  107        0.777   0.860   0.000   1.637
  108        0.780   0.869   0.000   1.649
  109        0.748   0.928   0.000   1.676
  110        0.742   0.983   0.000   1.724
  111        0.748   0.933   0.000   1.680
  112        0.750   0.895   0.000   1.644
  113        0.749   0.919   0.000   1.667
  114        0.751   0.949   0.000   1.700
  115        0.754   0.936   0.000   1.689
  116        0.794   0.857   0.000   1.651
  117        0.761   0.888   0.000   1.649
  118        0.749   0.949   0.000   1.699
  119        0.767   0.850   0.000   1.617
  120        0.753   0.917   0.000   1.670
  121        0.762   0.853   0.000   1.616
  122        0.762   0.904   0.000   1.666
  123        0.752   0.903   0.000   1.656
  124        0.766   0.920   0.000   1.686
--------------------------------------------------
tot         88.902  87.923   0.000 176.825


 total amount of memory used by VASP MPI-rank0   212331. kBytes
=======================================================================

   base                                    :      30000. kBytes
   nonl-proj                               :      42785. kBytes
   fftplans                                :      43670. kBytes
   grid                                    :      33671. kBytes
   one-center                              :         24. kBytes
   wavefun                                 :      62181. kBytes

  
  
 General timing and accounting informations for this job:
 ========================================================
  
                  Total CPU time used (sec):     2634.145
                            User time (sec):     2624.929
                          System time (sec):        9.216
                         Elapsed time (sec):     2636.692
  
                   Maximum memory used (kb):      404704.
                   Average memory used (kb):          N/A
  
                          Minor page faults:       309730
                          Major page faults:         1135
                 Voluntary context switches:         2381
