LAMMPS data file via write_data, version 2 Apr 2025, timestep = 1000793, units = metal

1000 atoms
2 atom types

0 25.81560722471288 xlo xhi
0 25.81560722471288 ylo yhi
0 25.81560722471288 zlo zhi

Atom Type Labels

1 H
2 Si

Masses

1 1.00784
2 28.0855

Atoms # atomic

674 2 0.596184424175501 1.3676685734036467 4.156363910531846 -1 -1 1
458 2 2.686612361558578 1.8793698448063116 2.1117165337035275 1 -1 0
688 2 3.51043376891867 0.4936479752390209 0.282076371991129 1 0 0
795 2 8.637201400357071 4.154879137980644 12.118091815002856 0 0 0
744 2 4.970701651044482 2.362074729653548 1.9217437703475466 -1 2 2
930 2 8.00867642641009 2.1205011297790715 1.0882035705521427 2 0 -1
780 2 5.977592515040906 4.632295331215076 3.1462847785175048 1 0 0
290 2 6.072459919212739 0.18406741773103258 1.204918779753284 -1 0 0
750 2 7.712336531412983 4.376523450680621 0.26325370693348665 0 0 0
644 2 8.107449307263632 1.643088980927086 3.610098491989748 0 0 -2
892 2 9.086624642473122 3.6460074033774936 4.061394850973837 1 1 1
960 2 9.794975510716153 0.6993709744933962 1.460660200930002 -1 0 0
64 2 10.643438983089125 1.4778390077148633 3.724424625140487 0 0 0
347 2 11.629389886863759 2.520522504998126 1.4870398986022724 -3 0 0
211 2 2.514416819949042 7.674935018636849 1.2376692150158606 0 0 0
265 2 1.324442160460995 5.79415559844893 2.0254196348915183 1 -2 0
686 2 6.40969773462063 8.052623493016682 0.8808123901871301 1 0 -2
586 2 3.8734946830158665 6.347514117778866 3.6965252913718105 -1 1 2
479 2 5.985851506446777 8.769796384784572 4.123002578158249 1 -1 -1
383 2 4.63546296346015 6.742744765213815 1.4757382994607748 1 1 0
945 2 7.645514308738523 6.304550462499978 1.6470749506739049 1 -1 1
410 2 7.874123402731274 5.558529648935271 3.7280784540116287 -1 0 -1
81 2 10.943204884453296 4.872721792071653 1.4518921329836723 0 0 1
655 2 10.826821386341807 5.468571405272433 4.063195436158104 1 -1 0
611 2 10.231754184249967 7.782368769780749 4.0510462082420995 1 1 0
660 2 9.174373682979047 8.011299091798179 1.2733764851967713 1 -1 0
295 2 12.587015429811192 7.232025264570175 2.359693904152025 2 1 0
374 2 12.398072991360426 6.135274259848174 0.2734158562394666 0 1 1
438 2 1.0984342176296644 8.642450065143477 2.9025893162221705 1 0 0
74 2 3.662341065117847 9.650946977630953 1.712709535646093 1 0 0
590 2 2.1956349126128734 11.306629817467538 1.051060344476389 -1 -3 -1
418 2 7.9268601263689 9.458441059261222 4.672118074091801 0 1 2
287 2 5.868458252451006 10.363048143342482 1.5580007001277856 1 0 1
934 2 7.7347822320921935 11.46269457145214 3.3072179097280494 1 0 0
948 2 11.04909357960611 10.345288071987127 0.3108218468371657 0 0 1
894 2 10.197504383512934 10.659310641952843 3.002377707698531 -1 1 0
125 2 1.2574493627194185 3.6314863696771713 4.103777985803595 0 2 0
113 2 4.1203756505376825 2.9496745696231494 5.570005010500989 0 0 1
307 2 1.3895150692114346 1.7485321682692228 7.8875961890874455 1 0 0
386 2 2.6834379084925155 0.37264261894863177 5.9235089025703545 0 2 1
503 2 3.470605665565394 2.9997126616550487 7.701996491185738 0 0 0
642 2 1.5308540004762377 4.567019419935344 8.405852807627221 1 1 1
641 2 6.306334961869838 2.710364419495029 6.011721960479606 0 0 3
867 2 7.315995381443694 0.7268161735436947 5.632609825916741 0 0 -1
893 2 7.064161520929882 1.684219428766316 8.597017932814477 2 0 0
513 2 0.2236063782871584 9.373700974454643 5.548883676625326 1 -1 1
309 2 12.50462070951544 3.5226504439700825 4.07314783241538 1 0 2
105 2 10.763807943598174 3.256725829723364 5.654025176010889 0 2 -1
899 2 12.279197769583861 1.034359395538717 5.660554581870791 0 1 0
252 2 9.64803665330457 0.42258600728231066 5.783338379215847 -1 1 1
102 2 8.544790343788838 4.103569944151608 6.2435463158989455 1 -1 0
264 2 9.80304418876245 1.4769409332201233 7.742860489929006 1 -2 1
691 2 1.7002526075211524 5.71020130876803 4.635068017532386 0 0 0
246 2 0.7690544564825472 5.9777005448668 6.769179688047054 1 1 -1
932 2 2.074338181952713 7.84439886146278 6.582698821299777 0 1 -1
737 2 3.2934869750926663 5.429950707044294 6.868567488881477 1 0 0
378 2 4.204230861387818 7.5318444605749395 7.183419009523889 0 0 0
330 2 6.88263115248366 6.717919170067444 5.440590266189218 0 0 0
512 2 5.089250184748259 5.345867172695395 5.511691212498594 -1 0 0
409 2 5.389662996062484 4.9593937483876624 8.252609986805155 3 2 0
792 2 8.661038351020627 6.9972991086381455 7.09815227641847 -1 1 1
653 2 10.708396778581303 5.704488460369303 7.2548685673532 1 0 2
968 2 12.81938186490652 7.719422113301834 4.5436410311455315 2 1 1
109 2 12.540058890130888 8.759950749407249 8.21441158884253 -3 -1 0
250 2 0.04339863469174728 12.369691128949125 7.819557430565707 1 0 -1
71 2 3.2202593625641875 8.57930061612308 3.970211104001813 -1 -1 0
31 1 0.2739283421504002 10.571256181759436 8.32150470146655 -1 -1 -1
168 2 3.585679245619105 11.93020685387017 5.0651550758084625 -1 0 -1
692 2 1.1943905323036257 11.521893647657755 4.29805853576772 1 2 -1
345 2 2.795572561154575 12.344089958425029 7.291464896120048 1 1 0
848 2 4.054073031505495 9.692472738140106 6.070936044887406 0 -1 0
7 1 3.508311401609182 8.818205110236676 9.821194103226723 -4 3 -1
147 2 6.045436006586688 12.062792060602819 7.973915058896644 1 1 -1
996 2 6.301818859497387 10.351234023484706 6.309694675471481 0 -2 1
415 2 5.7364384368291 12.717999788366338 4.798637300798433 -1 -2 -1
761 2 7.402287485051579 9.851575867629512 8.464240071020543 0 0 0
96 2 9.354454193545154 12.590552928614533 8.520937277252022 -1 0 -1
35 1 3.342862496523035 2.0970814793051447 4.067322628932627 -1 -3 1
714 2 11.271382034724201 11.187239214987539 8.356724244185552 0 -2 0
593 2 11.239898738981818 9.8203930400617 4.974646339186864 -1 0 0
209 2 9.079528152541492 9.429397962422728 6.777555089750028 1 -1 -1
962 2 2.056658685282271 0.5153104898631413 9.915288524734 0 0 0
922 2 3.8751257084774533 0.6257355984858847 11.362251370764444 2 1 0
718 2 3.317852394756509 3.2218063361772975 11.83888802451108 1 1 -2
47 1 1.9838402557041317 2.989914246214908 11.227729751546233 -1 0 1
173 2 0.5553894554848877 2.2204030836377893 11.598336917685343 1 -1 -1
778 2 11.604551720489813 8.102393847990143 0.6289861425179677 1 1 1
912 2 4.778913483793817 3.0201116543599573 9.906700848197204 2 0 -1
456 2 7.248082299846481 2.4654451413981175 11.054839791831991 -2 2 -3
914 2 8.045949346771819 3.970528832604121 8.885106470172708 1 -1 1
121 2 9.957914382380517 1.3563608855856866 10.633580510133982 0 1 0
592 2 10.02663848999338 3.927150089571665 10.45586577787855 0 0 0
638 2 12.33984194226768 1.0532174270664845 9.118165251764339 0 0 0
158 2 11.867522756057902 0.676959653937992 12.078947239168658 -1 0 -3
251 2 0.4828234606340892 4.467238689152576 10.454099848301672 0 0 -1
37 1 0.35670083626157617 9.411701725544853 12.515757529040087 3 3 4
103 2 3.1046937751543155 8.773287200961505 12.610612205641482 1 0 0
197 2 2.7676574625986157 7.438924003067399 9.046509872635571 -1 3 -1
971 2 0.8287243300277426 6.356908005970699 11.906236620447041 1 -1 0
92 2 5.336442492376776 6.411972620342184 12.47422041371574 1 0 2
915 2 3.592373134902418 5.800872216875469 10.87459441032125 1 -1 1
661 2 6.895547600394593 4.968795777286118 11.000520317493663 -1 1 1
359 2 6.835157988432948 6.516860608420525 9.110611992225948 0 -2 1
683 2 6.331681074128815 8.497575861742837 10.441493229133041 0 1 -1
950 2 11.851853363109212 8.420249281861386 10.475684641713224 -1 2 0
294 2 11.395604941504 5.980263206525718 9.230781541192796 1 -1 -1
333 2 9.526683167030711 6.260954702589898 10.879769189067458 0 -1 0
44 1 1.759748314759788 10.70897668366987 11.705671347027815 2 1 -2
839 2 4.328620009469739 9.947083239179957 10.53241388978691 1 1 1
72 2 1.6615866559059314 12.423645665737187 12.892964887698078 -1 -1 1
889 2 10.558292589406653 7.222998869661988 12.849094981858638 0 1 -1
139 2 0.5480551683191888 8.964491860225868 8.447896167105661 0 0 1
302 2 1.1369747274347115 9.362571377791737 11.076105116666888 -1 0 2
85 2 4.01663471830837 11.006579401691637 8.288417079123292 1 1 0
101 2 12.865597723365052 11.386426506587966 3.2454581953787693 2 1 2
482 2 5.24836999803518 11.994422815787368 11.265211188132827 0 -1 1
920 2 8.282630287583945 8.367654528908801 11.851791199368801 1 -2 0
25 1 8.080773212841489 12.61965121055004 8.968004187850353 3 -1 -1
17 1 10.27140470386954 8.7942680771078 9.2951703726352 -1 1 -2
538 2 11.2833387237061 10.89172962989174 11.0052031467476 -1 0 0
669 2 9.372275159982161 12.421377954351168 11.14636613614981 0 0 -1
565 2 12.823578689467178 7.508112951146898 12.528214043020718 1 1 1
722 2 8.99949866639433 7.96879282862224 9.445271815675392 -1 0 1
188 2 4.496333848448489 0.8514075201044703 8.876402443175031 1 1 1
728 2 8.666771941275275 10.653411341106429 12.780470408440694 -1 0 -1
997 2 0.20019077834836257 10.715328569644871 2.2286018179605365 -1 0 0
799 2 1.85725519575548 1.292348477604261 15.65775656411566 2 1 -1
126 2 1.6899227734335471 1.3215638169340438 13.369894464607746 0 1 0
634 2 4.277969709187035 0.9150954669844273 16.047931824956436 -2 0 0
225 2 1.6564490705753065 3.842949778537058 14.364979597603844 0 1 0
742 2 1.2194492102297068 2.9971799302332647 16.936428658763088 1 0 0
131 2 2.9315642537035314 4.274407830078692 16.133964809894987 -1 0 -1
952 2 5.5652495306989325 4.099407194905125 13.188194120651422 0 -1 -1
100 2 6.711852550772497 1.5247797377336691 13.213455820784075 1 2 0
496 2 4.75997783317593 3.281481170508936 15.294120003086146 0 2 1
569 2 6.836362315650532 2.3251341663475715 16.134305174377115 -2 1 -1
711 2 9.936789153152597 4.113027489675814 14.724720623998195 1 -1 0
612 2 8.868151015645457 2.220570638374579 14.622282728449333 0 2 -1
14 1 8.36014634055676 12.0868236666394 15.44546319292294 1 1 -1
651 2 12.59093803324896 1.2138300885624764 14.559765841559003 -1 2 1
79 2 6.3418582281343925 0.47009426116960806 17.328792324824068 1 0 0
306 2 3.913039037139484 8.345808036430608 14.695479006660364 -1 4 0
829 2 2.338135933364946 6.601036027132589 15.694794479906331 2 0 0
543 2 0.022537298185552168 7.681839412057792 15.033162212283697 -1 -1 0
762 2 1.3622950667016396 12.147339108064319 19.284826430706808 2 1 0
120 2 5.7602372420454655 8.55196648474767 15.677124067940733 0 0 -1
218 2 5.368603111892011 5.534066797335981 16.00211043149114 1 -1 -1
818 2 7.20573440067133 7.475317119654522 13.662565638081105 2 1 1
247 2 7.497363271939082 5.1478629376019205 14.719723682284979 2 0 -1
746 2 6.941262626683601 7.19590079129198 16.713334897535567 2 0 -1
837 2 9.325299570148937 12.780075265753007 21.083972092847237 0 1 -1
471 2 0.2516569533274904 6.820551249287099 23.638488781687396 -2 0 -1
227 2 9.090779876840806 7.23081522546339 15.186958128701868 0 -2 0
883 2 0.044862372238803315 12.783834840821036 25.057940572668286 -1 1 -2
424 2 11.475734251473206 7.91883458107608 15.629892697573691 1 0 -1
376 2 11.146888835426909 4.655499932239429 17.20534993314658 0 0 1
689 2 12.526646139475783 3.6469329785345432 13.896552704095628 0 0 -1
336 2 2.756337180907019 11.874882904545183 17.183988952941398 0 -1 1
580 2 2.038874786519323 10.980642796769336 15.019660138857578 2 1 0
741 2 4.083271786249939 10.882214068586713 13.366367786070885 1 0 0
840 2 5.708373937904015 11.192807381914136 15.033418352167098 0 0 1
740 2 7.822161763443262 9.812732198126103 14.847272390058759 1 1 1
497 2 10.351778109331617 9.188440425155196 14.049951342128141 -1 -1 0
927 2 9.018363579959853 9.265975994331273 17.00478101830044 0 0 0
420 2 11.421868684981012 10.733498194265131 15.813548830301007 0 1 -2
310 2 10.415975367752495 12.180430299233175 13.670997261656163 0 0 0
678 2 9.23068790202126 12.308063501448522 16.754270349494938 0 1 -1
441 2 9.238758220611519 0.7676043849084092 13.102760020893264 1 -1 -1
444 2 2.662184850016795 2.3907974674506187 18.526041167387724 2 1 -1
99 2 11.855720269819127 12.740603165449226 25.664439556137346 0 1 -1
95 2 2.960904456209774 2.176287665134629 21.145547951553585 1 1 0
572 2 4.407803437623087 0.6437785227090232 21.67321190985964 0 0 -1
115 2 5.091144728670703 1.766707964634378 18.90746539416664 0 2 1
699 2 6.0329105052807295 0.23446533263747943 20.177737779791286 -1 2 1
117 2 9.055092207655383 1.0237825673824252 20.83317467010465 -1 1 -2
317 2 5.95652948293525 3.8321517522060047 17.64313327242068 -1 1 1
190 2 11.821202160726392 0.7961695216522676 20.200249389184336 1 2 0
809 2 9.277356436401465 2.1734877497490466 18.55778924670676 0 1 1
704 2 12.393123506791582 3.1090933357916706 18.14632828518909 1 -1 1
966 2 9.678971486287116 0.8657362562842641 16.548594531709846 0 0 0
943 2 9.834619874542705 4.404167007321881 18.93809530969184 0 0 -1
12 1 10.685263542337843 3.225630314497095 20.903734305296815 1 1 1
668 2 0.7889814230693099 8.202065113442261 20.37309080357024 0 1 -2
957 2 1.5018868549227742 6.324307894277589 18.364737141510865 0 1 1
298 2 3.189267588616084 7.6636725842913025 19.146402503569355 0 1 1
323 2 1.1728802170094867 6.193473097557761 21.498291203319244 1 -1 -1
938 2 2.8741746620365074 8.815953649196956 21.226960259026068 1 1 -3
849 2 4.562917654080128 5.483467193629207 18.986155618573488 1 0 -1
710 2 7.520128002448179 4.9489534521068785 18.278463424533474 1 0 -1
373 2 7.087597459527299 5.139157590601481 20.66293685320933 1 0 0
734 2 7.568784351337605 7.59960800884462 19.08990511843035 2 1 -1
385 2 8.350400722698973 6.923698172906084 22.10093067851965 0 1 -1
249 2 6.018951675368481 8.040950172403495 20.475170763912125 0 -1 -1
645 2 9.62353041518492 5.142575749405903 21.071056274041386 1 -1 -1
583 2 10.761429230451057 6.967830786385032 19.353086509694894 -1 -1 -2
272 2 3.0181776406128056 0.09646377902798332 18.969149641067865 1 0 -1
357 2 12.11796455744338 5.2806278743026525 21.348796265561948 0 1 -1
233 2 10.992289010792792 10.617970542879664 22.511984610971197 -1 -1 2
163 2 2.6051871516858283 9.268146564885638 17.427928564516787 1 -1 -1
695 2 3.290094201356176 11.337555621037371 20.967841102778063 0 1 0
544 2 5.220983864283426 9.27347885050896 17.943849003571913 -2 0 0
486 2 6.812873501621528 11.044003095720383 18.01358741121742 0 0 -1
665 2 4.652052719127679 12.001767658692458 19.16904789758904 -1 0 0
581 2 7.49676158755017 12.655116733498978 19.44960154936494 1 2 -1
153 2 11.11390251107483 9.16864524031764 17.71787871634346 -1 1 -1
662 2 9.224252479775181 8.98719537843402 19.975197097297738 1 0 -2
598 2 9.644475571577328 10.974313824177147 19.116506576493393 1 0 -1
235 2 12.213636059524331 11.047031575042032 20.461273084029056 0 0 -1
292 2 1.204455754291525 1.0873868342065582 22.314102146502037 1 0 1
579 2 1.6414322105966406 0.6780702125088428 24.64842196487845 0 0 -1
106 2 2.9816196887954485 4.500786421374081 21.675451334345002 1 2 -1
891 2 2.122160404542438 2.6333993896940724 25.800398990471272 1 1 -1
918 2 5.359532597961833 0.291346423958163 24.527633231616946 2 1 -1
324 2 5.856395461456644 1.8956750483912685 22.75088331113996 1 0 0
501 2 4.417071101340393 2.670340069792077 25.50970264496695 0 0 0
694 2 8.537079789158565 2.214635747967257 22.695703501902965 1 0 -2
802 2 7.126135940470619 1.7826286936497449 24.54310671455042 1 2 0
36 1 4.8090452518744895 2.7819585680963645 22.613804524004284 1 1 -2
78 2 11.944480988698242 1.5161879926928723 25.25026018419636 1 2 -1
476 2 11.72708170740813 2.664508413568547 21.90725590291261 3 2 -1
274 2 11.531057246096795 3.4270285333505726 24.208489917589326 1 0 -2
652 2 0.9505720743641369 4.994210624652841 25.492202393616832 1 0 -1
916 2 2.8410971479403893 5.666683708070739 24.283164845576753 0 0 -1
635 2 10.065451900744478 12.269070907197435 23.797311075770185 -1 -1 -1
449 2 3.0033003670099414 7.653430356485177 23.082852294771897 0 1 -1
6 1 4.554907162915445 8.487532291781216 23.610332121794603 2 -2 0
536 2 0.7008971366722616 8.001900849444846 25.44038820761806 0 0 0
650 2 4.800840321515856 5.067770382858737 25.602803602165697 -1 1 1
738 2 4.925720338439317 6.039175187969611 21.068702361027537 1 1 1
876 2 5.965981662679011 8.566214557318203 23.88714817305907 0 -1 1
606 2 6.312417945798499 6.131061243763955 23.3134006038785 -1 -2 -2
698 2 8.239376988864278 4.54815365397047 23.067572250225673 0 0 -1
533 2 9.693136764799583 6.893437137835021 24.27170737381453 0 -1 0
530 2 9.739261333249697 4.5808503060906505 24.897160850552517 1 1 0
770 2 11.045949417691368 7.0294026063825745 22.344839602190813 0 -1 0
524 2 1.7472080219403507 10.034878178990496 22.952418993127985 1 0 -1
926 2 0.6905341380065425 10.13506068197761 24.90028395815876 0 0 0
767 2 8.949563454464299 9.06524740985157 23.132359039428064 0 0 -1
57 2 3.4880158536500017 11.076525547952782 24.626572927406755 1 -1 0
278 2 6.957303712863233 12.747553879970697 23.97114014941745 0 1 1
659 2 5.814210643696592 10.903014820936944 25.15191951556821 1 0 0
285 2 8.751101191110273 9.854037141347094 25.489727619443936 0 1 -1
717 2 7.237545196247851 11.854695938370575 22.066185578618892 -1 0 0
748 2 6.930683870605521 9.535683251871925 21.89931657475596 0 1 0
504 2 2.499062685648517 5.375603514067551 13.139262445393513 0 0 1
988 2 0.10086840758034704 9.739814666642728 14.173213825948398 1 0 2
440 2 12.339155449685487 9.754177887331707 13.09361048495845 0 -1 1
491 2 6.62245680599221 12.148184251120624 12.937439031653836 0 0 -2
619 2 2.2733455206216373 17.207252685888452 1.2807568779822422 -1 0 0
379 2 0.49646612266068635 14.312440620974575 2.730912137373367 1 -2 0
506 2 2.509772126984691 13.596183854588434 2.225344367819821 -1 0 0
342 2 4.559231540751734 14.650467102327521 3.1963985166588675 -1 1 1
403 2 4.880269203126831 12.966027821723008 0.9812828744887128 1 1 0
657 2 5.522831128546874 16.306177141667046 1.5234254458173664 -1 -1 0
412 2 6.916293716202983 14.616591145246668 1.7177315366122141 1 0 0
355 2 8.300683226623155 15.004207333482979 3.8863824531817355 0 -2 0
537 2 6.912592087949158 17.00236497481687 3.2691560273259554 0 0 1
646 2 8.737089068551313 13.169863163686669 1.2501761347937366 -1 0 0
888 2 11.097474898156348 13.007012426904542 2.029599508232108 1 0 1
468 2 11.641279885145853 15.276538478367645 3.235141037218903 0 1 1
199 2 9.655400695110382 16.43511253192408 2.8100138863492963 0 0 -1
363 2 11.632588737387971 24.209957855790954 11.805339520664148 2 -2 -1
297 2 3.4659808964059966 20.950488060202954 3.8259691239347635 0 1 1
803 2 1.9108498058033678 19.353806714888677 2.439210698227371 -1 0 0
832 2 4.219050609882177 18.27722163821846 2.633949492165298 0 2 0
141 2 3.4190851510124247 19.960430830654463 0.5201625491657227 0 -1 1
811 2 5.52354922416739 20.242795978804953 1.8977078594141166 -2 0 0
467 2 5.954434179484278 19.02877265720142 0.19425330436290203 0 0 -1
216 2 8.636739920085484 18.31059708984316 2.6053532103951955 0 0 -1
414 2 10.114299526379318 17.386322189903268 0.5296099199628772 -1 -1 2
984 2 9.383042580143192 20.166022398708183 1.5004979307331177 -1 0 1
629 2 11.336138891536176 19.488752523665234 2.642061620703729 0 -1 2
621 2 0.15972910708989738 22.866664144293637 9.963297238010163 1 1 2
362 2 12.656898484291114 18.065554495474093 1.2011710329939864 -1 -1 0
736 2 12.728977827307265 22.091619264727694 12.741396600778135 1 -1 0
111 2 0.9043527810861156 21.537493160000384 1.4783062432860306 1 0 1
61 2 2.8861263470614857 23.04438580846346 2.4275725056297217 0 0 0
267 2 0.8825297505801775 23.907177586573006 4.986976969151069 1 0 2
77 2 2.7781144993780487 25.344144777556068 3.0492643823305836 0 -1 -1
731 2 6.481812176532886 25.161238449466552 3.7912877216779655 1 1 0
509 2 5.336944656870349 22.813994409770892 2.809979717117249 0 0 0
56 2 6.185027859941726 23.196987877272967 0.14102600459785428 1 -1 1
212 2 8.289357954983865 24.434720865534466 1.7747810928259542 -1 -1 2
422 2 7.66592620055081 21.662915149842156 1.8630957596917093 0 0 0
123 2 11.030317656833171 24.586233781629726 1.7367466144872705 0 -1 -1
727 2 12.468059346250001 22.016890773887734 2.1167254404824996 1 0 1
289 2 9.01567490515729 23.333979351609607 4.13101375028408 -1 0 0
925 2 12.247794976840208 25.2183638241858 3.669942254958659 -1 0 -1
981 2 2.894494794746533 16.384032445068133 3.716612598453895 1 -1 2
15 1 0.3810529679528526 14.39203057979792 7.642109039656669 -3 1 2
549 2 2.0502104903259126 14.862046670852706 6.43098967298506 0 -1 1
585 2 0.4174089468781394 13.232546609163558 5.364313041966048 0 -2 1
845 2 0.1888985173054067 15.984747861840926 7.826516211895182 0 1 -1
88 2 6.005408991263938 14.17623156093331 6.309498934150628 0 0 -1
490 2 6.572149720265828 17.241791179768544 5.5045288063948306 0 1 -2
866 2 7.986681471928871 15.33369748640087 8.95359432684665 1 0 1
177 2 4.210250961595694 16.284392683232653 6.621314564317292 1 0 1
568 2 8.078004201041166 14.746167873568277 6.387084045565323 -1 1 0
919 2 10.776770605250867 15.52944955825553 5.886449697150054 1 0 2
22 1 11.379580720038565 14.176599522249749 6.32284690400582 2 0 3
860 2 0.9522576434004999 17.03257228227384 5.569604630655374 0 -1 1
886 2 3.16756141009845 18.28959719377609 5.386507144451088 0 -1 -2
152 2 2.0501769003482275 19.176823848976614 7.7300315157974335 -1 -2 0
977 2 0.9749692101214044 21.550668572622772 7.807201337787221 1 0 2
387 2 6.412385505189468 16.727943889963328 8.371714357942569 0 0 3
316 2 8.597060780673322 18.09535894039617 6.481219281568682 0 -1 0
275 2 4.685652556469747 20.00013787662976 7.380833743657163 1 1 0
338 2 5.320341869085459 19.17001587445816 5.209028849410697 0 0 2
987 2 6.88903638914341 19.24003423600231 7.73385753555702 1 1 1
320 2 8.432992248145249 19.42658218480716 4.641947937599103 1 -1 -1
346 2 11.255169691402157 19.342395290892547 5.177555035260775 0 0 2
589 2 12.309515871924468 18.023900659358272 8.735002187789995 -2 1 -2
615 2 10.158037184217072 16.767026566867028 7.665171994874223 -1 0 -1
186 2 12.760300470954421 14.007092198549607 11.258508641912048 2 -1 1
208 2 1.2837870475407174 21.35988305407832 4.066281186263147 -1 -1 0
637 2 0.737327963998636 24.70188731586573 8.529140674898485 1 -3 1
939 2 1.85826537939228 23.60299734242412 6.788774385121087 2 -1 0
487 2 5.564389490680628 22.196919110729404 5.0412055522418715 -1 -2 0
857 2 7.257281178956038 24.775402697263782 7.100697175305124 0 -2 0
51 2 4.429750733894914 23.586229237770507 6.652020428872692 0 -1 0
595 2 7.998242715881864 21.6936953962612 5.1181392615065135 1 1 1
779 2 8.057805495989449 22.38179880842877 8.16347723979503 0 0 0
453 2 5.795439046761497 22.017488824604545 7.975506009283123 0 0 0
909 2 9.50897044870499 20.92605962050524 6.628452366357404 0 -1 1
119 2 11.18807254839779 21.820623382854386 4.294264777909842 1 -1 0
626 2 12.41836093030552 24.59665497007021 8.81175445166518 1 0 2
636 2 11.426864136319717 22.157945327656513 7.439881075851235 0 0 -1
244 2 9.757045286290243 24.264871811540402 7.638120421781553 0 1 1
293 2 11.0672529705885 24.255738608010663 5.3073071620486765 0 -2 0
573 2 1.953886777853117 15.45208266215923 12.213586678155343 1 0 -1
827 2 3.459349136589533 13.265597018461786 11.612952623131177 1 1 0
511 2 2.2533965070133446 14.237241449700907 9.849526319282097 -1 -2 -1
384 2 2.221834383946725 17.320652959178968 9.057468743322397 -1 0 0
417 2 4.418586302582509 14.941031626661728 8.543770220313123 0 0 -2
681 2 5.11268148163516 15.174419258426763 12.61464754960924 2 0 1
732 2 5.250663255274518 16.853809608704964 10.741899025060375 0 -1 0
202 2 6.2322317691874085 13.841853740112887 9.917485410126393 0 0 1
30 1 4.385285187109704 25.147755964213182 3.658408298493472 1 -3 -1
110 2 11.299906536807306 13.409131714610036 9.775021354612358 -1 -1 0
82 2 9.96663328433824 16.98484258209388 11.620272702945972 0 1 -1
618 2 10.199459260138283 15.1917750668459 9.741081212865803 1 0 0
335 2 9.628694855990151 14.763837171892545 12.066835361912366 2 0 0
813 2 0.9512007557527036 20.008015456895247 10.104021039392025 -1 -1 0
63 2 0.6177445642337341 17.636882680135194 11.167274530313218 0 0 0
315 2 3.6884363999153664 17.364750341079727 12.322850083133218 0 -2 0
305 2 3.2047371533080473 20.774601048849366 9.158398561410626 -1 -1 0
237 2 2.022536728185344 19.07061250668106 12.772859274973786 1 -1 0
958 2 8.640124554674868 17.713876903226254 10.093260551843924 1 0 0
206 2 4.7260594569517185 19.32102670315291 10.427624762408866 -1 0 0
879 2 7.720318355167405 19.275940314108436 11.735268483181004 0 0 0
647 2 6.798344094747147 20.7650880179494 10.519118355622084 0 1 0
334 2 7.318657700901441 17.111411907571366 0.23007663805329923 1 0 1
859 2 8.858559072476579 19.85168533608198 8.814301549920016 1 -2 -1
817 2 11.0908257038327 19.751088660454187 7.996533840057977 0 -2 -1
169 2 11.470747736905363 20.439124569800835 10.769752038407729 1 0 1
70 2 11.954728773524955 18.000874756868843 11.44507774367835 0 -2 0
174 2 2.9855414623227907 22.102959333897925 12.753686202010202 -2 -1 -1
137 2 2.536873963457266 23.298387015902613 10.913135726827258 0 0 -1
41 1 8.5104809454917 24.60533142703082 10.6895999538882 6 -2 -1
443 2 8.807601680288645 21.63299060711314 10.776412783865444 0 -1 1
995 2 7.291529286518465 24.296083823490278 9.669683638147124 0 0 -1
224 2 5.87801220993121 25.042234913770624 10.813066720712238 1 -1 1
157 2 6.501602934877318 22.149424609314792 12.461340032322736 1 0 -1
469 2 4.833248882929606 22.796093000754993 10.122565291222626 1 1 0
640 2 9.635945468677676 23.82045936135875 10.252054688503085 -1 0 1
712 2 7.6105939093962425 14.072917775628486 12.287480501643486 -1 0 1
184 2 6.207516524291253 17.62703034573682 12.688333422400186 0 0 1
757 2 3.8082158511911945 23.80678708768356 0.38959253919960485 2 1 0
155 2 5.070782304250621 25.67867405197958 6.374017340041309 -1 0 1
505 2 3.149406837938785 15.216232960234935 0.1939266505161485 2 1 -1
545 2 8.827857461999148 12.918882488246009 4.774503401427713 1 0 1
340 2 1.850881852493374 15.703497950281408 16.355311951379495 1 -1 0
442 2 2.5685773760711914 14.526155733605586 14.149744622535154 0 1 0
222 2 1.3489591140709345 13.526245069057227 15.88309215492432 0 0 -1
812 2 4.68047382928267 16.93894409011023 14.327671318586832 2 0 0
847 2 3.6717026731903557 12.97452667141868 15.356802407760712 0 0 -1
450 2 5.930851841681926 14.464451065295819 15.783917257877434 1 -2 0
796 2 12.761677012607002 24.08499491175589 25.763986950985593 -1 0 1
229 2 8.411522658245906 15.209588104606526 15.623972797832893 2 1 1
23 1 8.65858023938337 16.768825099527923 15.801013948737573 1 0 -4
917 2 8.796752983829315 25.655105193774332 23.581013202277585 0 -1 -2
26 1 7.742517516871577 14.372325700284703 14.61240942277977 -1 0 0
527 2 10.368869831550784 14.21935807479972 15.435314443699175 1 2 -1
687 2 11.920255210404234 14.332734691943365 13.644779323157671 0 -1 0
516 2 11.462669378406373 16.561772706638592 14.456933428986998 -1 0 1
630 2 3.5645848383044125 17.40731702396781 16.114948946091125 -2 1 -1
421 2 0.9527051215431119 17.479890643398893 15.199521422212182 1 -1 -3
576 2 2.929627428593583 19.45664499521605 15.26860458628495 -1 0 1
172 2 1.5307905438399694 21.03099936140777 16.532498305578738 0 0 0
664 2 1.4520636343384838 21.715433405003115 14.204040707486888 0 1 0
751 2 8.32021715123356 16.614954904273535 13.37234595964653 0 1 2
42 1 6.327951592970152 19.228936404411776 15.843090734380544 5 -3 0
348 2 2.212806833812316 12.97032728645595 22.187246875492878 1 0 -1
195 2 5.784085752351783 20.728001876305125 14.805691950235909 1 0 0
160 2 7.922297540355705 21.431487648138553 15.345330497350574 2 -2 1
162 2 6.529119767796188 17.635567072389417 17.110183709475155 1 1 -1
231 2 8.803976122382855 20.30065927636537 17.5853934341383 -1 2 -1
949 2 11.226329033377601 20.80315066568137 16.141999808017808 0 0 -2
185 2 10.285953145476846 18.1393027127606 16.02717265808469 0 -1 1
164 2 11.038897627622653 20.370197315265255 13.255116402216942 -1 -1 -1
353 2 9.07403755698615 19.306882598874214 14.036058389419374 2 -1 0
343 2 12.565301362273427 19.20684117695361 14.496411415938905 -1 0 1
94 2 4.163830254802143 24.309067590229752 17.542198966967895 0 -2 1
128 2 0.6754064484293385 24.41761334502768 14.619712430852138 1 -1 0
551 2 10.774696825919083 22.9324661709769 25.057036321267166 -1 -1 -2
48 1 1.4564977851227854 24.77930595325536 15.804707503306664 3 0 2
931 2 2.878066604949177 24.56116994398328 13.263212037083045 0 -1 -1
539 2 4.307489850341061 22.116820892748464 15.77480148819204 -1 1 0
601 2 4.5892821198164 24.156860258802336 14.690934718080706 0 -2 -1
991 2 6.977690101479616 22.572054173779748 17.138164460579144 0 -1 1
747 2 7.128544680316747 24.655474156179345 13.053747358852275 1 -2 -1
234 2 6.959039459373569 24.581519463117015 15.665579028696788 -1 -2 1
215 2 8.56667852148088 22.500103720229575 12.92309720950828 -1 0 1
705 2 9.661991216410348 22.642651726400796 15.126834706058839 -1 0 1
564 2 9.7216596894083 24.414881321574654 13.977217894164594 -1 0 0
368 2 11.261501106506332 25.191443261517247 15.639826311316002 1 -1 0
677 2 10.70035435970957 20.743416575174916 25.63893467887096 1 0 2
982 2 10.953748036304447 22.172895271936373 22.965745850673883 -1 0 1
773 2 2.666788473455554 16.077001016791893 20.954488853496954 1 0 0
790 2 3.097116685766433 13.872651325028722 19.782932951113448 0 1 -1
897 2 0.7519143459005414 16.50120966706695 19.390763403570457 1 -1 0
263 2 0.5460460347093985 25.4628534011634 18.938011747838818 0 0 0
130 2 4.651472030413284 14.39993465631169 18.116448309777798 1 0 1
946 2 7.495132888553634 14.077596457995762 17.6356709595196 0 -1 1
53 2 5.6938810136019 17.315376536773204 21.487970554941704 1 0 1
826 2 5.357332480799754 16.370616451875332 19.169765011152055 0 1 -1
908 2 9.785918378347748 15.319065899717078 18.543036934335255 0 -2 -2
821 2 8.411763778977 15.20303820874569 20.746496217360274 1 2 1
679 2 12.810874813642883 13.361984878168222 20.15240332656261 -1 -1 -1
783 2 11.222643748421937 13.627688897925493 18.17060860792081 -1 0 0
260 2 11.949420639032938 16.776682477760207 18.36546198079924 0 1 0
16 1 12.311279302283616 16.265486579944433 19.968183888512314 0 -2 -1
364 2 2.740655153951362 17.63079086883842 18.4884224768779 1 0 -3
392 2 0.3816569491277132 19.36169628331411 19.472456698855666 1 1 0
59 2 1.9220197955724176 20.245311110703522 21.01260026443223 0 -1 1
776 2 3.3601753753817705 21.107142189421808 17.844187390318368 1 0 -1