 vasp.6.5.0 16Dec24 (build Jan 20 2025 08:32:48) complex                         
 executed on        HPECrayEX_GCC date 2025.07.21  20:25:39
 running  128 mpi-ranks, with    1 threads/rank, on    1 nodes
 distrk:  each k-point on  128 cores,    1 groups
 distr:  one band on NCORE=  16 cores,    8 groups


--------------------------------------------------------------------------------------------------------


 INCAR:
   SYSTEM = a-Si SPC
   NCORE = 16
   ISTART = 1
   ICHARG = 1
   ISPIN = 1
   ISYM = 1
   EDIFF = 1E-6
   NELM = 150
   EDIFFG = -0.01
   NSW = 0
   ISIF = 2
   IBRION = -1
   PREC = Accurate
   ENCUT = 1200
   KSPACING = 0.23
   KGAMMA = .TRUE.
   METAGGA = SCAN
   LASPH = .TRUE.
   LDIAG = .FALSE.
   LMIXTAU = .TRUE.
   ADDGRID = .TRUE.
   ALGO = Normal
   ISMEAR = 0
   SIGMA = 0.1
   LORBIT = 11
   NEDOS = 2000
   LWAVE = .FALSE.
   LCHARG = .FALSE.

 POTCAR:    PAW_PBE H 15Jun2001                   
 POTCAR:    PAW_PBE Si 05Jan2001                  
 POTCAR:    PAW_PBE H 15Jun2001                   
   SHA256 =  030f79b5d3ab3cf0e668861823c8fb652ff669f3e15e46930bd03bfd63a607b6 H/POTCAR              
   COPYR  = (c) Copyright 15Jun2001 Georg Kresse                                                    
   COPYR  = This file is part of the software VASP. Any use, copying, and all other rights are regul
   COPYR  = If you do not have a valid VASP license, you may not use, copy or distribute this file. 
   VRHFIN =H: ultrasoft test                                                                        
   LEXCH  = PE                                                                                      
   EATOM  =    12.4884 eV,    0.9179 Ry                                                             
                                                                                                    
   TITEL  = PAW_PBE H 15Jun2001                                                                     
   LULTRA =        F    use ultrasoft PP ?                                                          
   IUNSCR =        0    unscreen: 0-lin 1-nonlin 2-no                                               
   RPACOR =    0.000    partial core radius                                                         
   POMASS =    1.000; ZVAL   =    1.000    mass and valenz                                          
   RCORE  =    1.100    outmost cutoff radius                                                       
   RWIGS  =    0.700; RWIGS  =    0.370    wigner-seitz radius (au A)                               
   ENMAX  =  250.000; ENMIN  =  200.000 eV                                                          
   RCLOC  =    0.701    cutoff for local pot                                                        
   LCOR   =        T    correct aug charges                                                         
   LPAW   =        T    paw PP                                                                      
   EAUG   =  400.000                                                                                
   RMAX   =    1.123    core radius for proj-oper                                                   
   RAUG   =    1.200    factor for augmentation sphere                                              
   RDEP   =    1.112    radius for radial grids                                                     
   RDEPT  =    0.926    core radius for aug-charge                                                  
                                                                                                    
   Atomic configuration                                                                             
    2 entries                                                                                       
     n  l   j            E        occ.                                                              
     1  0  0.50        -6.4927   1.0000                                                             
     2  1  0.50        -3.4015   0.0000                                                             
   Description                                                                                      
     l       E           TYP  RCUT    TYP  RCUT                                                     
     0     -6.4927494     23  1.100                                                                 
     0      6.8029130     23  1.100                                                                 
     1     -4.0817478     23  1.100                                                                 
  local pseudopotential read in
  atomic valenz-charges read in
  non local Contribution for L=           0  read in
    real space projection operators read in
  non local Contribution for L=           0  read in
    real space projection operators read in
  non local Contribution for L=           1  read in
    real space projection operators read in
    PAW grid and wavefunctions read in

   number of l-projection  operators is LMAX  =           3
   number of lm-projection operators is LMMAX =           5

 POTCAR:    PAW_PBE Si 05Jan2001                  
   SHA256 =  79d9987ad8750f624c4d6acb2a16d13abf6a777132adc04dc6c8399be72b42bb Si/POTCAR             
   COPYR  = (c) Copyright 05Jan2001 Georg Kresse                                                    
   COPYR  = This file is part of the software VASP. Any use, copying, and all other rights are regul
   COPYR  = If you do not have a valid VASP license, you may not use, copy or distribute this file. 
   VRHFIN =Si: s2p2                                                                                 
   LEXCH  = PE                                                                                      
   EATOM  =   103.0669 eV,    7.5752 Ry                                                             
                                                                                                    
   TITEL  = PAW_PBE Si 05Jan2001                                                                    
   LULTRA =        F    use ultrasoft PP ?                                                          
   IUNSCR =        1    unscreen: 0-lin 1-nonlin 2-no                                               
   RPACOR =    1.500    partial core radius                                                         
   POMASS =   28.085; ZVAL   =    4.000    mass and valenz                                          
   RCORE  =    1.900    outmost cutoff radius                                                       
   RWIGS  =    2.480; RWIGS  =    1.312    wigner-seitz radius (au A)                               
   ENMAX  =  245.345; ENMIN  =  184.009 eV                                                          
   ICORE  =        2    local potential                                                             
   LCOR   =        T    correct aug charges                                                         
   LPAW   =        T    paw PP                                                                      
   EAUG   =  322.069                                                                                
   DEXC   =    0.000                                                                                
   RMAX   =    1.950    core radius for proj-oper                                                   
   RAUG   =    1.300    factor for augmentation sphere                                              
   RDEP   =    1.993    radius for radial grids                                                     
   RDEPT  =    1.837    core radius for aug-charge                                                  
                                                                                                    
   Atomic configuration                                                                             
    6 entries                                                                                       
     n  l   j            E        occ.                                                              
     1  0  0.50     -1785.8828   2.0000                                                             
     2  0  0.50      -139.4969   2.0000                                                             
     2  1  1.50       -95.5546   6.0000                                                             
     3  0  0.50       -10.8127   2.0000                                                             
     3  1  0.50        -4.0811   2.0000                                                             
     3  2  1.50        -4.0817   0.0000                                                             
   Description                                                                                      
     l       E           TYP  RCUT    TYP  RCUT                                                     
     0    -10.8127223     23  1.900                                                                 
     0     -7.6451159     23  1.900                                                                 
     1     -4.0811372     23  1.900                                                                 
     1      2.4879257     23  1.900                                                                 
     2     -4.0817478      7  1.900                                                                 
  local pseudopotential read in
  partial core-charges read in
  partial kinetic energy density read in
  atomic valenz-charges read in
  non local Contribution for L=           0  read in
    real space projection operators read in
  non local Contribution for L=           0  read in
    real space projection operators read in
  non local Contribution for L=           1  read in
    real space projection operators read in
  non local Contribution for L=           1  read in
    real space projection operators read in
    PAW grid and wavefunctions read in

   number of l-projection  operators is LMAX  =           4
   number of lm-projection operators is LMMAX =           8

 -----------------------------------------------------------------------------
|                                                                             |
|               ----> ADVICE to this user running VASP <----                  |
|                                                                             |
|     You have a (more or less) 'large supercell' and for larger cells it     |
|     might be more efficient to use real-space projection operators.         |
|     Therefore, try LREAL= Auto in the INCAR file.                           |
|     Mind: For very accurate calculation, you might also keep the            |
|     reciprocal projection scheme (i.e. LREAL=.FALSE.).                      |
|                                                                             |
 -----------------------------------------------------------------------------

 -----------------------------------------------------------------------------
|                                                                             |
|               ----> ADVICE to this user running VASP <----                  |
|                                                                             |
|     You enforced a specific xc type in the INCAR file but a different       |
|     type was found in the POTCAR file.                                      |
|     I HOPE YOU KNOW WHAT YOU ARE DOING!                                     |
|                                                                             |
 -----------------------------------------------------------------------------

  PAW_PBE H 15Jun2001                   :
 energy of atom  1       EATOM=  -12.4884
 kinetic energy error for atom=    0.0000 (will be added to EATOM!!)
  PAW_PBE Si 05Jan2001                  :
 energy of atom  2       EATOM= -103.0669
 kinetic energy error for atom=    0.0001 (will be added to EATOM!!)


 POSCAR:  H Si
  positions in cartesian coordinates
  No initial velocities read in


 exchange-correlation table for SCAN
   RHO(1)=    0.500       N(1)  =     2000
   RHO(2)=  100.500       N(2)  =     4000



--------------------------------------------------------------------------------------------------------


 ion  position               nearest neighbor table
   1  0.930  0.114  0.537-  27 1.54
   2  0.586  0.517  0.565-  18 1.53
   3  0.843  0.326  0.642-  24 1.61
   4  0.494  0.299  0.523-  55 1.54
   5  0.675  0.877  0.445-  86 1.49
   6  0.474  0.035  0.533-  23 1.52
   7  0.005  0.594  0.384-  26 1.73
   8  0.563  0.071  0.446-  34 1.51
   9  0.378  0.545  0.525-  83 1.50
  10  0.991  0.595  0.609-  60 1.59
  11  0.947  0.681  0.471- 100 2.26  47 2.30  63 2.32  54 2.37
  12  0.623  0.459  0.362-  38 2.30  16 2.33
  13  0.175  0.307  0.541-  73 2.34  30 2.38  17 2.42  14 2.52
  14  0.124  0.154  0.509-  27 2.21  41 2.29  13 2.52  80 2.55
  15  0.752  0.825  0.617-  75 2.25  76 2.25
  16  0.720  0.574  0.390-  12 2.33  32 2.34  70 2.39
  17  0.215  0.253  0.618-  67 2.29  44 2.29  13 2.42
  18  0.647  0.523  0.521-   2 1.53  19 2.36  59 2.36  81 2.45
  19  0.524  0.464  0.477-  83 2.20 101 2.32  18 2.36  38 2.37
  20  0.241  0.945  0.444-  90 2.27  50 2.28  80 2.41  21 2.42
  21  0.355  0.823  0.440-  48 2.18  35 2.33  20 2.42  66 2.47
  22  0.528  0.905  0.645-  57 2.45
  23  0.521  0.946  0.518-   6 1.52  97 2.27  57 2.32  48 2.34
  24  0.924  0.286  0.609-   3 1.61  82 2.31  45 2.38
  25  0.195  0.558  0.577-  53 2.30  94 2.39  60 2.41  73 2.48
  26  0.978  0.497  0.353-   7 1.73  87 2.28  70 2.47
  27  0.021  0.061  0.541-   1 1.54  14 2.21  92 2.25  68 2.25
  28  0.308  0.859  0.579-  79 2.28  57 2.30  61 2.38  39 2.48
  29  0.542  0.668  0.622-  69 2.30  36 2.42  57 3.12
  30  0.268  0.374  0.482-  37 2.34  13 2.38  71 2.40  83 2.48
  31  0.863  0.763  0.359-  47 2.22
  32  0.691  0.703  0.436-  47 2.30  16 2.34  59 2.35 103 2.38
  33  0.021  0.902  0.645-  46 2.32  92 2.36
  34  0.494  0.034  0.411-   8 1.51  64 2.30  48 2.38  96 2.41
  35  0.346  0.744  0.370-  21 2.33  52 2.34 102 2.37
  36  0.649  0.551  0.648-  84 2.26  29 2.42  72 2.45
  37  0.323  0.263  0.431-  96 2.30  74 2.32  30 2.34  98 2.36
  38  0.563  0.361  0.417-  74 2.23  12 2.30  19 2.37  58 2.41
  39  0.303  0.029  0.579-  40 2.38  80 2.38  28 2.48  44 2.49
  40  0.419  0.141  0.594-  67 2.23  99 2.28  55 2.36  39 2.38
  41  0.035  0.177  0.444-  14 2.29  49 2.37  85 2.40  42 2.40
  42  0.103  0.253  0.379-  98 2.29  87 2.35  41 2.40
  43  0.737  0.092  0.619-  76 2.33  88 2.42
  44  0.185  0.101  0.630-  17 2.29  92 2.39  39 2.49
  45  0.828  0.305  0.543-  24 2.38  88 2.38  81 2.39  49 2.46
  46  0.061  0.800  0.586-  79 2.32  33 2.32  60 2.32 100 2.46
  47  0.836  0.767  0.435-  31 2.22  11 2.30  32 2.30  86 2.66  91 3.09
  48  0.491  0.885  0.445-  21 2.18 103 2.32  23 2.34  34 2.38
  49  0.926  0.282  0.475-  51 2.35  41 2.37  78 2.38  45 2.46
  50  0.219  0.022  0.376-  20 2.28  98 2.55
  51  0.004  0.422  0.484-  71 2.31  49 2.35  54 2.37  73 2.41
  52  0.491  0.675  0.370- 101 2.31  35 2.34 103 2.36  93 3.00
  53  0.250  0.651  0.519-  25 2.30  79 2.35  66 2.41  56 2.49
  54  0.883  0.531  0.476-  70 2.23  11 2.37  51 2.37  81 2.42
  55  0.481  0.195  0.524-   4 1.54  62 2.30  40 2.36  96 2.43
  56  0.180  0.607  0.443- 102 2.29  71 2.36  63 2.47  53 2.49
  57  0.465  0.843  0.573-  28 2.30  23 2.32  69 2.35  22 2.45  29 3.12
  58  0.666  0.236  0.435-  62 2.36  65 2.38  38 2.41  78 2.54
  59  0.673  0.683  0.516-  69 2.32  32 2.35  18 2.36  75 2.48
  60  0.083  0.653  0.616-  10 1.59  46 2.32  25 2.41
  61  0.313  0.794  0.654-  28 2.38
  62  0.632  0.164  0.506-  55 2.30  88 2.33  58 2.36  97 2.36
  63  0.070  0.732  0.427-  11 2.32  90 2.34  56 2.47
  64  0.580  0.059  0.346-  34 2.30  65 2.39
  65  0.714  0.130  0.377-  77 2.32  58 2.38  64 2.39
  66  0.400  0.691  0.489- 101 2.34  53 2.41  69 2.46  21 2.47
  67  0.370  0.273  0.625-  40 2.23  17 2.29  89 2.35  99 2.90
  68  0.000  0.956  0.485-  27 2.25  85 2.29  91 2.32  90 2.35
  69  0.526  0.704  0.545-  29 2.30  59 2.32  57 2.35  66 2.46
  70  0.847  0.476  0.406-  54 2.23  16 2.39  78 2.41  26 2.47
  71  0.140  0.449  0.445-  87 2.29  51 2.31  56 2.36  30 2.40
  72  0.797  0.554  0.608-  81 2.31  75 2.43  36 2.45
  73  0.084  0.435  0.556-  82 2.24  13 2.34  51 2.41  25 2.48
  74  0.429  0.335  0.383-  38 2.23  37 2.32  93 2.36
  75  0.798  0.706  0.573-  15 2.25 100 2.28  72 2.43  59 2.48
  76  0.762  0.958  0.577-  15 2.25  43 2.33  97 2.35  91 2.49
  77  0.818  0.018  0.400-  86 2.31  65 2.32  85 2.49
  78  0.818  0.314  0.416-  49 2.38  70 2.41  58 2.54
  79  0.189  0.794  0.539-  28 2.28  46 2.32  53 2.35  90 2.35
  80  0.273  0.063  0.500-  39 2.38  20 2.41  96 2.43  14 2.55
  81  0.802  0.468  0.541-  72 2.31  45 2.39  54 2.42  18 2.45
  82  0.017  0.411  0.625-  73 2.24  24 2.31
  83  0.402  0.445  0.521-   9 1.50  19 2.20  89 2.33  30 2.48
  84  0.556  0.427  0.643-  36 2.26  95 2.35  89 2.38
  85  0.986  0.030  0.415-  68 2.29  41 2.40  77 2.49
  86  0.761  0.927  0.458-   5 1.49  77 2.31  91 2.42  97 2.45  47 2.66
  87  0.107  0.414  0.370-  26 2.28  71 2.29  42 2.35
  88  0.698  0.226  0.573-  95 2.27  62 2.33  45 2.38  43 2.42
  89  0.415  0.421  0.601-  83 2.33  67 2.35  94 2.36  84 2.38
  90  0.125  0.857  0.471-  20 2.27  63 2.34  68 2.35  79 2.35
  91  0.871  0.893  0.519- 100 2.20  68 2.32  86 2.42  76 2.49  47 3.09
  92  0.029  0.055  0.618-  27 2.25  33 2.36  44 2.39
  93  0.394  0.494  0.379- 102 2.31  74 2.36 101 2.41  52 3.00
  94  0.315  0.532  0.632-  89 2.36  25 2.39
  95  0.626  0.282  0.637-  88 2.27  84 2.35  99 2.45
  96  0.398  0.134  0.457-  37 2.30  34 2.41  55 2.43  80 2.43
  97  0.666  0.006  0.516-  23 2.27  76 2.35  62 2.36  86 2.45
  98  0.247  0.194  0.367-  42 2.29  37 2.36  50 2.55
  99  0.520  0.155  0.654-  40 2.28  95 2.45  67 2.90
 100  0.928  0.759  0.538-  91 2.20  11 2.26  75 2.28  46 2.46
 101  0.467  0.589  0.436-  52 2.31  19 2.32  66 2.34  93 2.41
 102  0.275  0.599  0.380-  56 2.29  93 2.31  35 2.37
 103  0.583  0.798  0.397-  48 2.32  52 2.36  32 2.38

  LATTYP: Found a simple tetragonal cell.
 ALAT       =    14.5388263618
 C/A-ratio  =     1.9894137264
  
  Lattice vectors:
  
 A1 = (  14.5388263618,   0.0000000000,   0.0000000000)
 A2 = (   0.0000000000,  14.5388263618,   0.0000000000)
 A3 = (   0.0000000000,   0.0000000000,  28.9237407300)


Analysis of symmetry for initial positions (statically):
=====================================================================
 Subroutine PRICEL returns:
 Original cell was already a primitive cell.
 

 Routine SETGRP: Setting up the symmetry group for a 
 simple tetragonal supercell.


 Subroutine GETGRP returns: Found  1 space group operations
 (whereof  1 operations were pure point group operations)
 out of a pool of 16 trial point group operations.


The static configuration has the point symmetry C_1 .


Analysis of symmetry for dynamics (positions and initial velocities):
=====================================================================
 Subroutine PRICEL returns:
 Original cell was already a primitive cell.
 

 Routine SETGRP: Setting up the symmetry group for a 
 simple tetragonal supercell.


 Subroutine GETGRP returns: Found  1 space group operations
 (whereof  1 operations were pure point group operations)
 out of a pool of 16 trial point group operations.


The dynamic configuration has the point symmetry C_1 .


 Subroutine INISYM returns: Found  1 space group operations
 (whereof  1 operations are pure point group operations),
 and found     1 'primitive' translations


----------------------------------------------------------------------------------------

                                     Primitive cell                                     

  volume of cell :    6113.8272

  direct lattice vectors                    reciprocal lattice vectors
    14.538826362  0.000000000  0.000000000     0.068781343  0.000000000  0.000000000
     0.000000000 14.538826362  0.000000000     0.000000000  0.068781343  0.000000000
     0.000000000  0.000000000 28.923740730     0.000000000  0.000000000  0.034573675

  length of vectors
    14.538826362 14.538826362 28.923740730     0.068781343  0.068781343  0.034573675

  position of ions in fractional coordinates (direct lattice)
     0.929951267  0.114381997  0.536562711
     0.586323118  0.516888352  0.564615445
     0.842853453  0.325838543  0.641615512
     0.494119664  0.299487035  0.523460671
     0.675247765  0.876631970  0.445423047
     0.474078157  0.034573355  0.532893752
     0.005253081  0.594490902  0.383811030
     0.562680219  0.071143294  0.445862133
     0.378466588  0.544869978  0.524735748
     0.991408935  0.595494422  0.608734911
     0.946912746  0.680612709  0.471258225
     0.622596334  0.459206942  0.362154392
     0.175263803  0.306535059  0.541017874
     0.124046464  0.154024124  0.508812151
     0.752440378  0.825245429  0.616719355
     0.719500993  0.574399872  0.389650524
     0.214802758  0.253428984  0.617675663
     0.647134078  0.523357925  0.521426702
     0.524386206  0.463946665  0.477485636
     0.241166647  0.945268872  0.443535324
     0.354534119  0.823257648  0.440061016
     0.527817020  0.904681002  0.644771743
     0.521259406  0.946149274  0.518495200
     0.923788459  0.286134513  0.609186443
     0.195462132  0.557968697  0.577041915
     0.978283917  0.496591666  0.352586473
     0.021213267  0.061370497  0.540730567
     0.308225705  0.858735065  0.578678287
     0.541542337  0.668058739  0.621876019
     0.267594502  0.374443567  0.482144093
     0.862669358  0.762613138  0.359282495
     0.691080542  0.703103521  0.435884862
     0.020936766  0.901778429  0.644910038
     0.493817714  0.034332001  0.411469970
     0.345593920  0.744372326  0.370091505
     0.648696791  0.551269394  0.647803509
     0.323245486  0.262688329  0.430926305
     0.563406550  0.361014697  0.417009018
     0.302639284  0.029473356  0.579382898
     0.419136308  0.140622080  0.594271360
     0.035221344  0.176788685  0.444285919
     0.103053022  0.253236397  0.378963732
     0.736641303  0.092336201  0.619052732
     0.184835415  0.100979265  0.630400850
     0.828031074  0.305470324  0.543260669
     0.061390994  0.800339705  0.586423136
     0.836057856  0.766911972  0.434700713
     0.490626948  0.884982025  0.445336959
     0.926195806  0.281522036  0.475246645
     0.218724670  0.022078261  0.375837027
     0.003921527  0.422114540  0.484034927
     0.490683348  0.675414903  0.370497296
     0.250412923  0.650611663  0.518575757
     0.883496348  0.531040801  0.475534298
     0.480879256  0.194594112  0.523726543
     0.180258704  0.606635624  0.443378360
     0.464972882  0.842729646  0.572718477
     0.666120480  0.235972967  0.435343438
     0.673416805  0.682915509  0.515844782
     0.083018393  0.653145568  0.615558717
     0.312656599  0.793922406  0.654169214
     0.632231913  0.163701659  0.506258885
     0.070018719  0.732156760  0.427148094
     0.579581170  0.059250243  0.345736746
     0.714294245  0.130384665  0.377156808
     0.399793619  0.690956735  0.488799179
     0.370327003  0.273033043  0.624530585
     0.000197653  0.955888712  0.484581882
     0.526216478  0.704238413  0.544788134
     0.847172921  0.475936628  0.405751138
     0.140306373  0.449343010  0.445132628
     0.797313326  0.554298524  0.608103941
     0.084253706  0.435488384  0.556478530
     0.428673529  0.335203123  0.382773820
     0.798269386  0.706136778  0.572876478
     0.761774006  0.958041568  0.576945108
     0.818229732  0.018208829  0.399762632
     0.817954607  0.313973074  0.415899203
     0.189209220  0.794493291  0.538599100
     0.272937437  0.062809196  0.500170115
     0.801598403  0.467610647  0.541121250
     0.016880592  0.411194126  0.625201315
     0.401979490  0.444901111  0.521431542
     0.555700976  0.426867331  0.642693520
     0.986028696  0.030318816  0.415253367
     0.760893605  0.926835472  0.458398201
     0.106529919  0.413666815  0.369941040
     0.697580379  0.225565662  0.572864378
     0.415370529  0.420595848  0.600645017
     0.124602905  0.856554696  0.470774540
     0.870503553  0.893194518  0.518882771
     0.028777839  0.055304051  0.618359530
     0.394181749  0.493736552  0.378525199
     0.315251031  0.531772635  0.632056237
     0.625719007  0.281597008  0.636534219
     0.398095407  0.133822356  0.457478542
     0.665581922  0.005773190  0.516119297
     0.247311572  0.194279781  0.367401085
     0.520090811  0.154999444  0.654263254
     0.928431200  0.758809530  0.538004433
     0.467369912  0.588627980  0.436180121
     0.275009131  0.598768414  0.380361926
     0.583248592  0.798173093  0.396872273

  ion indices of the primitive-cell ions
   primitive index   ion index
                 1           1
                 2           2
                 3           3
                 4           4
                 5           5
                 6           6
                 7           7
                 8           8
                 9           9
                10          10
                11          11
                12          12
                13          13
                14          14
                15          15
                16          16
                17          17
                18          18
                19          19
                20          20
                21          21
                22          22
                23          23
                24          24
                25          25
                26          26
                27          27
                28          28
                29          29
                30          30
                31          31
                32          32
                33          33
                34          34
                35          35
                36          36
                37          37
                38          38
                39          39
                40          40
                41          41
                42          42
                43          43
                44          44
                45          45
                46          46
                47          47
                48          48
                49          49
                50          50
                51          51
                52          52
                53          53
                54          54
                55          55
                56          56
                57          57
                58          58
                59          59
                60          60
                61          61
                62          62
                63          63
                64          64
                65          65
                66          66
                67          67
                68          68
                69          69
                70          70
                71          71
                72          72
                73          73
                74          74
                75          75
                76          76
                77          77
                78          78
                79          79
                80          80
                81          81
                82          82
                83          83
                84          84
                85          85
                86          86
                87          87
                88          88
                89          89
                90          90
                91          91
                92          92
                93          93
                94          94
                95          95
                96          96
                97          97
                98          98
                99          99
               100         100
               101         101
               102         102
               103         103

----------------------------------------------------------------------------------------


 -----------------------------------------------------------------------------
|                                                                             |
|           W    W    AA    RRRRR   N    N  II  N    N   GGGG   !!!           |
|           W    W   A  A   R    R  NN   N  II  NN   N  G    G  !!!           |
|           W    W  A    A  R    R  N N  N  II  N N  N  G       !!!           |
|           W WW W  AAAAAA  RRRRR   N  N N  II  N  N N  G  GGG   !            |
|           WW  WW  A    A  R   R   N   NN  II  N   NN  G    G                |
|           W    W  A    A  R    R  N    N  II  N    N   GGGG   !!!           |
|                                                                             |
|     The requested file  could not be found or opened for reading            |
|     k-point information. Automatic k-point generation is used as a          |
|     fallback, which may lead to unwanted results.                           |
|                                                                             |
 -----------------------------------------------------------------------------



Automatic generation of k-mesh.
 Grid dimensions derived from KSPACING:
 generate k-points for:    2    2    1

 Generating k-lattice:

  Cartesian coordinates                     Fractional coordinates (reciprocal lattice)
     0.034390671  0.000000000  0.000000000     0.500000000  0.000000000  0.000000000
     0.000000000  0.034390671  0.000000000     0.000000000  0.500000000  0.000000000
     0.000000000  0.000000000  0.034573675     0.000000000  0.000000000  1.000000000

  Length of vectors
     0.034390671  0.034390671  0.034573675

  Shift w.r.t. Gamma in fractional coordinates (k-lattice)
     0.000000000  0.000000000  0.000000000

 
 Subroutine IBZKPT returns following result:
 ===========================================
 
 Found      4 irreducible k-points:
 
 Following reciprocal coordinates:
            Coordinates               Weight
  0.000000  0.000000  0.000000      1.000000
  0.500000  0.000000  0.000000      1.000000
  0.000000  0.500000  0.000000      1.000000
  0.500000  0.500000  0.000000      1.000000
 
 Following cartesian coordinates:
            Coordinates               Weight
  0.000000  0.000000  0.000000      1.000000
  0.034391  0.000000  0.000000      1.000000
  0.000000  0.034391  0.000000      1.000000
  0.034391  0.034391  0.000000      1.000000
 


--------------------------------------------------------------------------------------------------------




 Dimension of arrays:
   k-points           NKPTS =      4   k-points in BZ     NKDIM =      4   number of bands    NBANDS=    248
   number of dos      NEDOS =   2000   number of ions     NIONS =    103
   non local maximal  LDIM  =      4   non local SUM 2l+1 LMDIM =      8
   total plane-waves  NPLWV = ******
   max r-space proj   IRMAX =      1   max aug-charges    IRDMAX= 415043
   dimension x,y,z NGX =   168 NGY =  168 NGZ =  336
   dimension x,y,z NGXF=   336 NGYF=  336 NGZF=  672
   support grid    NGXF=   672 NGYF=  672 NGZF= 1344
   ions per type =              10  93
   NGX,Y,Z   is equivalent  to a cutoff of  19.21, 19.21, 19.31 a.u.
   NGXF,Y,Z  is equivalent  to a cutoff of  38.42, 38.42, 38.62 a.u.

 SYSTEM =  a-Si SPC                                
 POSCAR =   H Si                                   

 Startparameter for this run:
   NWRITE =      2    write-flag & timer
   PREC   = accura    normal or accurate (medium, high low for compatibility)
   ISTART =      1    job   : 0-new  1-cont  2-samecut
   ICHARG =      1    charge: 1-file 2-atom 10-const
   ISPIN  =      1    spin polarized calculation?
   LNONCOLLINEAR =      F non collinear calculations
   LSORBIT =      F    spin-orbit coupling
   INIWAV =      1    electr: 0-lowe 1-rand  2-diag
   LASPH  =      T    aspherical Exc in radial PAW
 Electronic Relaxation 1
   ENCUT  = 1200.0 eV  88.20 Ry    9.39 a.u.  41.07 41.07 81.70*2*pi/ulx,y,z
   ENINI  = 1200.0     initial cutoff
   ENAUG  =  400.0 eV  augmentation charge cutoff
   NELM   =    150;   NELMIN=  2; NELMDL=  0     # of ELM steps 
   EDIFF  = 0.1E-05   stopping-criterion for ELM
   LREAL  =      F    real-space projection
   NLSPLINE    = F    spline interpolate recip. space projectors
   LCOMPAT=      F    compatible to vasp.4.4
   GGA_COMPAT  = T    GGA compatible to vasp.4.4-vasp.4.6
   LMAXPAW     = -100 max onsite density
   LMAXMIX     =    2 max onsite mixed and CHGCAR
   VOSKOWN=      0    Vosko Wilk Nusair interpolation
   ROPT   =    0.00000   0.00000
 Ionic relaxation
   EDIFFG = -.1E-01   stopping-criterion for IOM
   NSW    =      0    number of steps for IOM
   NBLOCK =      1;   KBLOCK =      1    inner block; outer block 
   IBRION =     -1    ionic relax: 0-MD 1-quasi-New 2-CG
   NFREE  =      0    steps in history (QN), initial steepest desc. (CG)
   ISIF   =      2    stress and relaxation
   IWAVPR =     10    prediction:  0-non 1-charg 2-wave 3-comb
   ISYM   =      1    0-nonsym 1-usesym 2-fastsym
   LCORR  =      T    Harris-Foulkes like correction to forces

   POTIM  = 0.5000    time-step for ionic-motion
   TEIN   =    0.0    initial temperature
   TEBEG  =    0.0;   TEEND  =   0.0 temperature during run
   SMASS  =  -3.00    Nose mass-parameter (am)
   estimated Nose-frequenzy (Omega)   =  0.10E-29 period in steps = 0.13E+47 mass=  -0.483E-26a.u.
   SCALEE = 1.0000    scale energy and forces
   NPACO  =    256;   APACO  = 10.0  distance and # of slots for P.C.
   PSTRESS=    0.0 pullay stress

  Mass of Ions in am
   POMASS =   1.00 28.09
  Ionic Valenz
   ZVAL   =   1.00  4.00
  Atomic Wigner-Seitz radii
   RWIGS  =  -1.00 -1.00
  virtual crystal weights 
   VCA    =   1.00  1.00
   NELECT =     382.0000    total number of electrons
   NUPDOWN=      -1.0000    fix difference up-down

 DOS related values:
   EMIN   =  10.00;   EMAX   =-10.00  energy-range for DOS
   EFERMI =   0.00;   METHOD = LEGACY      
   ISMEAR =     0;   SIGMA  =   0.10  broadening in eV -4-tet -1-fermi 0-gaus
   EFERMI_NEDOS =   21; number of points for ismear=-14 and -15

 Electronic relaxation 2 (details)
   IALGO  =     38    algorithm
   LDIAG  =      F    sub-space diagonalisation (order eigenvalues)
   LSUBROT=      F    optimize rotation matrix (better conditioning)
   TURBO    =      0    0=normal 1=particle mesh
   IRESTART =      0    0=no restart 2=restart with 2 vectors
   NREBOOT  =      0    no. of reboots
   NMIN     =      0    reboot dimension
   EREF     =   0.00    reference energy to select bands
   IMIX   =      4    mixing-type and parameters
     AMIX     =   0.40;   BMIX     =  1.00
     AMIX_MAG =   1.60;   BMIX_MAG =  1.00
     AMIN     =   0.10
     WC   =   100.;   INIMIX=   1;  MIXPRE=   1;  MAXMIX= -45

 Intra band minimization:
   WEIMIN = 0.0000     energy-eigenvalue tresh-hold
   EBREAK =  0.10E-08  absolut break condition
   DEPER  =   0.30     relativ break condition  

   TIME   =   0.40     timestep for ELM

  volume/ion in A,a.u.               =      59.36       400.56
  Fermi-wavevector in a.u.,A,eV,Ry     =   0.649618  1.227601  5.741712  0.422004
  Thomas-Fermi vector in A             =   1.718632

 Write flags
   LWAVE        =      F    write WAVECAR
   LDOWNSAMPLE  =      F    k-point downsampling of WAVECAR
   LCHARG       =      F    write CHGCAR
   LVTOT        =      F    write LOCPOT, total local potential
   LVHAR        =      F    write LOCPOT, Hartree potential only
   WRT_POTENTIAL= false  ! write potential to hdf5 file
   LELF         =      F    write electronic localiz. function (ELF)
   LORBIT       =     11    0 simple, 1 ext, 2 COOP (PROOUT), +10 PAW based schemes


 Python interface
   PLUGINS active      =      F    recompile with -DPLUGINS to activate

 Dipole corrections
   LMONO      =      F    monopole corrections only (constant potential shift)
   LDIPOL     =      F    correct potential (dipole corrections)
   IDIPOL     =      0    1-x, 2-y, 3-z, 4-all directions 
   EPSILON    =  1.0000000 bulk dielectric constant
   LVACPOTAV  =      F  vacuum potentials using an averaging scheme for the charge density
   VACPOTFLAT =  0.1000000 required flatness to determine vacuum potential

Coulomb truncation method
  LTRUNCATE          =      F  Coulomb kernel truncation to be used
  IDIMENSIONALITY    =      3  Dimensionality of cutoff (0 molecules / 2 surfaces)
  ISURFACE           =     -1  Direction of surface normal
  LCOARSEN           =      F  Coarsen the charge grid before padding, preferred


 Exchange correlation treatment:
   METAGGA = SCAN    functional components
   XC_C    = 1    coefficients multiplying the functional components
   LIBXC   =     F    Libxc                    
   VOSKOWN =     0    Vosko Wilk Nusair interpolation
   LHFCALC =     F    Hartree Fock is set to
   LHFONE  =     F    Hartree Fock one center treatment
   AEXX    =    0.0000 exact exchange contribution

 Parameters of functionals:
   SCAN:
     P1 =  0.000000E+00
     P2 =  0.000000E+00
     P3 =  0.000000E+00

 Accuracy and mixing parameters for tau-dependent meta-GGA functionals:
   LMAXTAU = 6
   LMIXTAU = T

 Van der Waals corrections
   IVDW    =     0    specifies the selected vdW correction

 Linear response parameters
   LEPSILON=     F    determine dielectric tensor
   LRPA    =     F    only Hartree local field effects (RPA)
   LNABLA  =     F    use nabla operator in PAW spheres
   LVEL    =     F    velocity operator in full k-point grid
   CSHIFT  =0.1000    complex shift for real part using Kramers Kronig
   OMEGAMAX=  -1.0    maximum frequency
   DEG_THRESHOLD= 0.2000000E-02 threshold for treating states as degnerate
   RTIME   =   -0.100 relaxation time in fs
  (WPLASMAI=    0.000 imaginary part of plasma frequency in eV, 0.658/RTIME)
   DFIELD  = 0.0000000 0.0000000 0.0000000 field for delta impulse in time

  Optional k-point grid parameters
   LKPOINTS_OPT  =     F    use optional k-point grid
   KPOINTS_OPT_MODE=     1    mode for optional k-point grid

 Orbital magnetization related:
   ORBITALMAG=     F  switch on orbital magnetization
   LCHIMAG   =     F  perturbation theory with respect to B field
   DQ        =  0.001000  dq finite difference perturbation B field
   LLRAUG    =     F  two centre corrections for induced B field
   LBONE     =     F  B-component reconstruction in AE one-centre
   LVGVCALC  =     T  calculate vGv susceptibility
   LVGVAPPL  =     F  apply vGv susceptibility instead of pGv for G=0

 Random number generation:
   RANDOM_GENERATOR = DEFAULT
   PCG_SEED         = not used


--------------------------------------------------------------------------------------------------------


 Static calculation
 charge density and potential will be updated during run
 non-spin polarized calculation
 Variant of blocked Davidson
 perform Loewdin sub-space diagonalisation
    ordering is kept fixed
    before iterative eigenvector-optimisation
 modified Broyden-mixing scheme, WC =      100.0
 initial mixing is a Kerker type mixing with AMIX =  0.4000 and BMIX =      1.0000
 Hartree-type preconditioning will be used
 using additional bands           57
 reciprocal scheme for non local part
 use partial core corrections
 calculate Harris-corrections to forces   (improved forces if not selfconsistent)
 use gradient corrections 
 use of overlap-Matrix (Vanderbilt PP)
 Gauss-broadening in eV      SIGMA  =   0.10


--------------------------------------------------------------------------------------------------------


  energy-cutoff  :     1200.00
  volume of cell :     6113.83
      direct lattice vectors                 reciprocal lattice vectors
    14.538826362  0.000000000  0.000000000     0.068781343  0.000000000  0.000000000
     0.000000000 14.538826362  0.000000000     0.000000000  0.068781343  0.000000000
     0.000000000  0.000000000 28.923740730     0.000000000  0.000000000  0.034573675

  length of vectors
    14.538826362 14.538826362 28.923740730     0.068781343  0.068781343  0.034573675



 old parameters found on file WAVECAR:
  energy-cutoff  :     1200.00
  volume of cell :     6113.83
      direct lattice vectors                 reciprocal lattice vectors
    14.538826362  0.000000000  0.000000000     0.068781343  0.000000000  0.000000000
     0.000000000 14.538826362  0.000000000     0.000000000  0.068781343  0.000000000
     0.000000000  0.000000000 28.923740730     0.000000000  0.000000000  0.034573675

  length of vectors


 k-points in units of 2pi/SCALE and weight: read from INCAR                         
   0.00000000  0.00000000  0.00000000       0.250
   0.03439067  0.00000000  0.00000000       0.250
   0.00000000  0.03439067  0.00000000       0.250
   0.03439067  0.03439067  0.00000000       0.250

 k-points in reciprocal lattice and weights: read from INCAR                         
   0.00000000  0.00000000  0.00000000       0.250
   0.50000000  0.00000000  0.00000000       0.250
   0.00000000  0.50000000  0.00000000       0.250
   0.50000000  0.50000000  0.00000000       0.250

 position of ions in fractional coordinates (direct lattice) 
   0.92995127  0.11438200  0.53656271
   0.58632312  0.51688835  0.56461544
   0.84285345  0.32583854  0.64161551
   0.49411966  0.29948704  0.52346067
   0.67524776  0.87663197  0.44542305
   0.47407816  0.03457335  0.53289375
   0.00525308  0.59449090  0.38381103
   0.56268022  0.07114329  0.44586213
   0.37846659  0.54486998  0.52473575
   0.99140894  0.59549442  0.60873491
   0.94691275  0.68061271  0.47125823
   0.62259633  0.45920694  0.36215439
   0.17526380  0.30653506  0.54101787
   0.12404646  0.15402412  0.50881215
   0.75244038  0.82524543  0.61671936
   0.71950099  0.57439987  0.38965052
   0.21480276  0.25342898  0.61767566
   0.64713408  0.52335793  0.52142670
   0.52438621  0.46394666  0.47748564
   0.24116665  0.94526887  0.44353532
   0.35453412  0.82325765  0.44006102
   0.52781702  0.90468100  0.64477174
   0.52125941  0.94614927  0.51849520
   0.92378846  0.28613451  0.60918644
   0.19546213  0.55796870  0.57704191
   0.97828392  0.49659167  0.35258647
   0.02121327  0.06137050  0.54073057
   0.30822570  0.85873506  0.57867829
   0.54154234  0.66805874  0.62187602
   0.26759450  0.37444357  0.48214409
   0.86266936  0.76261314  0.35928249
   0.69108054  0.70310352  0.43588486
   0.02093677  0.90177843  0.64491004
   0.49381771  0.03433200  0.41146997
   0.34559392  0.74437233  0.37009150
   0.64869679  0.55126939  0.64780351
   0.32324549  0.26268833  0.43092631
   0.56340655  0.36101470  0.41700902
   0.30263928  0.02947336  0.57938290
   0.41913631  0.14062208  0.59427136
   0.03522134  0.17678869  0.44428592
   0.10305302  0.25323640  0.37896373
   0.73664130  0.09233620  0.61905273
   0.18483541  0.10097927  0.63040085
   0.82803107  0.30547032  0.54326067
   0.06139099  0.80033970  0.58642314
   0.83605786  0.76691197  0.43470071
   0.49062695  0.88498203  0.44533696
   0.92619581  0.28152204  0.47524664
   0.21872467  0.02207826  0.37583703
   0.00392153  0.42211454  0.48403493
   0.49068335  0.67541490  0.37049730
   0.25041292  0.65061166  0.51857576
   0.88349635  0.53104080  0.47553430
   0.48087926  0.19459411  0.52372654
   0.18025870  0.60663562  0.44337836
   0.46497288  0.84272965  0.57271848
   0.66612048  0.23597297  0.43534344
   0.67341681  0.68291551  0.51584478
   0.08301839  0.65314557  0.61555872
   0.31265660  0.79392241  0.65416921
   0.63223191  0.16370166  0.50625888
   0.07001872  0.73215676  0.42714809
   0.57958117  0.05925024  0.34573675
   0.71429425  0.13038466  0.37715681
   0.39979362  0.69095674  0.48879918
   0.37032700  0.27303304  0.62453059
   0.00019765  0.95588871  0.48458188
   0.52621648  0.70423841  0.54478813
   0.84717292  0.47593663  0.40575114
   0.14030637  0.44934301  0.44513263
   0.79731333  0.55429852  0.60810394
   0.08425371  0.43548838  0.55647853
   0.42867353  0.33520312  0.38277382
   0.79826939  0.70613678  0.57287648
   0.76177401  0.95804157  0.57694511
   0.81822973  0.01820883  0.39976263
   0.81795461  0.31397307  0.41589920
   0.18920922  0.79449329  0.53859910
   0.27293744  0.06280920  0.50017012
   0.80159840  0.46761065  0.54112125
   0.01688059  0.41119413  0.62520131
   0.40197949  0.44490111  0.52143154
   0.55570098  0.42686733  0.64269352
   0.98602870  0.03031882  0.41525337
   0.76089360  0.92683547  0.45839820
   0.10652992  0.41366682  0.36994104
   0.69758038  0.22556566  0.57286438
   0.41537053  0.42059585  0.60064502
   0.12460291  0.85655470  0.47077454
   0.87050355  0.89319452  0.51888277
   0.02877784  0.05530405  0.61835953
   0.39418175  0.49373655  0.37852520
   0.31525103  0.53177263  0.63205624
   0.62571901  0.28159701  0.63653422
   0.39809541  0.13382236  0.45747854
   0.66558192  0.00577319  0.51611930
   0.24731157  0.19427978  0.36740109
   0.52009081  0.15499944  0.65426325
   0.92843120  0.75880953  0.53800443
   0.46736991  0.58862798  0.43618012
   0.27500913  0.59876841  0.38036193
   0.58324859  0.79817309  0.39687227

 position of ions in cartesian coordinates  (Angst):
  13.52040000  1.66298000 15.51940073
   8.52445000  7.51495000 16.33079073
  12.25410000  4.73731000 18.55792073
   7.18392000  4.35419000 15.14044073
   9.81731000 12.74520000 12.88330073
   6.89254000  0.50265600 15.41328073
   0.07637364  8.64320000 11.10125073
   8.18071000  1.03434000 12.89600073
   5.50246000  7.92177000 15.17732073
  14.41392236  8.65779000 17.60689073
  13.76700000  9.89531000 13.63055073
   9.05182000  6.67633000 10.47485973
   2.54813000  4.45666000 15.64826073
   1.80349000  2.23933000 14.71675073
  10.93960000 11.99810000 17.83783073
  10.46070000  8.35110000 11.27015073
   3.12298000  3.68456000 17.86549073
   9.40857000  7.60901000 15.08161073
   7.62396000  6.74524000 13.81067073
   3.50628000 13.74310000 12.82870073
   5.15451000 11.96920000 12.72821073
   7.67384000 13.15300000 18.64921073
   7.57850000 13.75590000 14.99682073
  13.43080000  4.16006000 17.61995073
   2.84179000  8.11221000 16.69021073
  14.22310000  7.21986000 10.19811973
   0.30841600  0.89225500 15.63995073
   4.48124000 12.48500000 16.73754073
   7.87339000  9.71279000 17.98698073
   3.89051000  5.44397000 13.94541073
  12.54220000 11.08750000 10.39179373
  10.04750000 10.22230000 12.60742073
   0.30439600 13.11080000 18.65321073
   7.17953000  0.49914700 11.90125073
   5.02453000 10.82230000 10.70443073
   9.43129000  8.01481000 18.73690073
   4.69961000  3.81918000 12.46400073
   8.19127000  5.24873000 12.06146073
   4.40002000  0.42850800 16.75792073
   6.09375000  2.04448000 17.18855073
   0.51207700  2.57030000 12.85041073
   1.49827000  3.68176000 10.96104873
  10.70990000  1.34246000 17.90532073
   2.68729000  1.46812000 18.23355073
  12.03860000  4.44118000 15.71313073
   0.89255300 11.63600000 16.96155073
  12.15530000 11.15000000 12.57317073
   7.13314000 12.86660000 12.88081073
  13.46580000  4.09300000 13.74591073
   3.18000000  0.32099200 10.87061273
   0.05701440  6.13705000 14.00010073
   7.13396000  9.81974000 10.71616773
   3.64071000  9.45913000 14.99915073
  12.84500000  7.72071000 13.75423073
   6.99142000  2.82917000 15.14813073
   2.62075000  8.81977000 12.82416073
   6.76016000 12.25230000 16.56516073
   9.68461000  3.43077000 12.59176073
   9.79069000  9.92879000 14.92016073
   1.20699000  9.49597000 17.80426073
   4.54566000 11.54270000 18.92102073
   9.19191000  2.38003000 14.64290073
   1.01799000 10.64470000 12.35472073
   8.42643000  0.86142900 10.00000000
  10.38500000  1.89564000 10.90878573
   5.81253000 10.04570000 14.13790073
   5.38412000  3.96958000 18.06376073
   0.00287364 13.89750000 14.01592073
   7.65057000 10.23880000 15.75731073
  12.31690000  6.91956000 11.73584073
   2.03989000  6.53292000 12.87490073
  11.59200000  8.05885000 17.58864073
   1.22495000  6.33149000 16.09544073
   6.23241000  4.87346000 11.07125073
  11.60590000 10.26640000 16.56973073
  11.07530000 13.92880000 16.68741073
  11.89610000  0.26473500 11.56263073
  11.89210000  4.56480000 12.02936073
   2.75088000 11.55100000 15.57830073
   3.96819000  0.91317200 14.46679073
  11.65430000  6.79851000 15.65125073
   0.24542400  5.97828000 18.08316073
   5.84431000  6.46834000 15.08175073
   8.07924000  6.20615000 18.58910073
  14.33570000  0.44080000 12.01068073
  11.06250000 13.47510000 13.25859073
   1.54882000  6.01423000 10.70007873
  10.14200000  3.27946000 16.56938073
   6.03900000  6.11497000 17.37290073
   1.81158000 12.45330000 13.61656073
  12.65610000 12.98600000 15.00803073
   0.41839600  0.80405600 17.88527073
   5.73094000  7.17835000 10.94836473
   4.58338000  7.73135000 18.28143073
   9.09722000  4.09409000 18.41095073
   5.78784000  1.94562000 13.23199073
   9.67678000  0.08393540 14.92810073
   3.59562000  2.82460000 10.62661373
   7.56151000  2.25351000 18.92374073
  13.49830000 11.03220000 15.56110073
   6.79501000  8.55796000 12.61596073
   3.99831000  8.70539000 11.00148973
   8.47975000 11.60450000 11.47903073



--------------------------------------------------------------------------------------------------------


 k-point     1 :   0.0000 0.0000 0.0000  plane waves:  576899
 k-point     2 :   0.5000 0.0000 0.0000  plane waves:  576994
 k-point     3 :   0.0000 0.5000 0.0000  plane waves:  576994
 k-point     4 :   0.5000 0.5000 0.0000  plane waves:  577012

 maximum and minimum number of plane-waves per node :     36126    35954

 maximum number of plane-waves:    577012
 maximum index in each direction: 
   IXMAX=   41   IYMAX=   41   IZMAX=   81
   IXMIN=  -41   IYMIN=  -41   IZMIN=  -81


 parallel 3D FFT for wavefunctions:
    minimum data exchange during FFTs selected (reduces bandwidth)
 parallel 3D FFT for charge:
    minimum data exchange during FFTs selected (reduces bandwidth)


 total amount of memory used by VASP MPI-rank0   382236. kBytes
=======================================================================

   base                                    :      30000. kBytes
   nonl-proj                               :      78001. kBytes
   fftplans                                :     114273. kBytes
   grid                                    :      88184. kBytes
   one-center                              :         21. kBytes
   wavefun                                 :      71757. kBytes

     INWAV:  cpu time     21.2048: real time     21.2184
 Broyden mixing: mesh for mixing (old mesh)
   NGX = 83   NGY = 83   NGZ =163
  (NGX  =336   NGY  =336   NGZ  =672)
  gives a total of ****** points

 initial charge density was supplied:
 number of electron     381.9999999 magnetization 
 keeping initial charge density in first step


--------------------------------------------------------------------------------------------------------


 Maximum index for augmentation-charges        11572 (set IRDMAX)


--------------------------------------------------------------------------------------------------------


 First call to EWALD:  gamma=   0.097
 Maximum number of real-space cells   3x   3x   2
 Maximum number of reciprocal cells   2x   2x   4

    FEWALD:  cpu time      0.0156: real time      0.0156


--------------------------------------- Ionic step        1  -------------------------------------------




--------------------------------------- Iteration      1(   1)  ---------------------------------------


    POTLOK:  cpu time      2.3120: real time      2.3139
    SETDIJ:  cpu time      1.7798: real time      1.7808
    EDDIAG:  cpu time     43.5420: real time     43.5662
     EDDAV:  cpu time    203.7491: real time    203.8575
       DOS:  cpu time      0.0097: real time      0.0099
    CHARGE:  cpu time     25.2755: real time     25.2985
    MIXING:  cpu time      0.0517: real time      0.0520
    --------------------------------------------
      LOOP:  cpu time    276.7199: real time    276.8789

 eigenvalue-minimisations  :  1984
 total energy-change (2. order) :-0.9526874E+03  (-0.1074114E+01)
 number of electron     381.9999999 magnetization 
 augmentation part      -21.2516060 magnetization 

 Broyden mixing:
  rms(total) = 0.11493E+01    rms(broyden)= 0.11493E+01
  rms(prec ) = 0.11507E+01
  weight for this iteration     100.00

 Free energy of the ion-electron system (eV)
  ---------------------------------------------------
  alpha Z        PSCENC =        50.42426719
  Ewald energy   TEWEN  =     60657.81112614
  -Hartree energ DENC   =    -69247.09444326
  -exchange      EXHF   =         0.00000000
  -V(xc)+E(xc)   XCENC  =      -439.89888063
  PAW double counting   =     32617.82396797   -31689.98733203
  entropy T*S    EENTRO =        -0.25370238
  eigenvalues    EBANDS =     -2611.61178327
  atomic energy  EATOM  =      9710.09934808
  Solvation  Ediel_sol  =         0.00000000
  ---------------------------------------------------
  free energy    TOTEN  =      -952.68743218 eV

  energy without entropy =     -952.43372980  energy(sigma->0) =     -952.56058099


--------------------------------------------------------------------------------------------------------




--------------------------------------- Iteration      1(   2)  ---------------------------------------


    POTLOK:  cpu time      2.2826: real time      2.2848
    SETDIJ:  cpu time      1.7791: real time      1.7798
    EDDIAG:  cpu time     43.4347: real time     43.4588
     EDDAV:  cpu time    204.3979: real time    204.5053
       DOS:  cpu time      0.0021: real time      0.0021
    CHARGE:  cpu time     25.2025: real time     25.2251
    MIXING:  cpu time      0.0458: real time      0.0462
    --------------------------------------------
      LOOP:  cpu time    277.1447: real time    277.3020

 eigenvalue-minimisations  :  2000
 total energy-change (2. order) : 0.6836250E+02  (-0.1029578E+01)
 number of electron     381.9999999 magnetization 
 augmentation part      -21.1797180 magnetization 

 Broyden mixing:
  rms(total) = 0.77536E+00    rms(broyden)= 0.77536E+00
  rms(prec ) = 0.77729E+00
  weight for this iteration     100.00

 eigenvalues of (default mixing * dielectric matrix)
  average eigenvalue GAMMA=   2.6312
  2.6312

 Free energy of the ion-electron system (eV)
  ---------------------------------------------------
  alpha Z        PSCENC =        50.42426719
  Ewald energy   TEWEN  =     60657.81112614
  -Hartree energ DENC   =    -69234.24728241
  -exchange      EXHF   =         0.00000000
  -V(xc)+E(xc)   XCENC  =      -429.63759317
  PAW double counting   =     38931.80284438   -38003.73820898
  entropy T*S    EENTRO =        -0.23482725
  eigenvalues    EBANDS =     -2566.60460574
  atomic energy  EATOM  =      9710.09934808
  Solvation  Ediel_sol  =         0.00000000
  ---------------------------------------------------
  free energy    TOTEN  =      -884.32493175 eV

  energy without entropy =     -884.09010450  energy(sigma->0) =     -884.20751813


--------------------------------------------------------------------------------------------------------




--------------------------------------- Iteration      1(   3)  ---------------------------------------


    POTLOK:  cpu time      2.2612: real time      2.2758
    SETDIJ:  cpu time      1.7734: real time      1.7743
    EDDIAG:  cpu time     43.4673: real time     43.4922
     EDDAV:  cpu time    204.2037: real time    204.3108
       DOS:  cpu time      0.0039: real time      0.0039
    CHARGE:  cpu time     25.1747: real time     25.1985
    MIXING:  cpu time      0.0431: real time      0.0431
    --------------------------------------------
      LOOP:  cpu time    276.9273: real time    277.0986

 eigenvalue-minimisations  :  1992
 total energy-change (2. order) :-0.2927824E+01  (-0.8814656E+00)
 number of electron     381.9999999 magnetization 
 augmentation part      -21.1049594 magnetization 

 Broyden mixing:
  rms(total) = 0.22202E+00    rms(broyden)= 0.22201E+00
  rms(prec ) = 0.37007E+00
  weight for this iteration     100.00

 eigenvalues of (default mixing * dielectric matrix)
  average eigenvalue GAMMA=   1.7005
  0.7704  2.6307

 Free energy of the ion-electron system (eV)
  ---------------------------------------------------
  alpha Z        PSCENC =        50.42426719
  Ewald energy   TEWEN  =     60657.81112614
  -Hartree energ DENC   =    -69226.70947567
  -exchange      EXHF   =         0.00000000
  -V(xc)+E(xc)   XCENC  =      -432.55746075
  PAW double counting   =     51290.54930328   -50362.75257917
  entropy T*S    EENTRO =        -0.24204041
  eigenvalues    EBANDS =     -2573.87524437
  atomic energy  EATOM  =      9710.09934808
  Solvation  Ediel_sol  =         0.00000000
  ---------------------------------------------------
  free energy    TOTEN  =      -887.25275568 eV

  energy without entropy =     -887.01071527  energy(sigma->0) =     -887.13173548


--------------------------------------------------------------------------------------------------------




--------------------------------------- Iteration      1(   4)  ---------------------------------------


    POTLOK:  cpu time      2.2791: real time      2.2804
    SETDIJ:  cpu time      1.8646: real time      1.8657
    EDDIAG:  cpu time     43.5077: real time     43.5324
     EDDAV:  cpu time    227.6301: real time    227.7607
       DOS:  cpu time      0.0022: real time      0.0022
    CHARGE:  cpu time     25.1649: real time     25.1872
    MIXING:  cpu time      0.0433: real time      0.0433
    --------------------------------------------
      LOOP:  cpu time    300.4920: real time    300.6719

 eigenvalue-minimisations  :  2392
 total energy-change (2. order) :-0.3414715E+00  (-0.2256272E+00)
 number of electron     381.9999999 magnetization 
 augmentation part      -21.1176801 magnetization 

 Broyden mixing:
  rms(total) = 0.20720E+00    rms(broyden)= 0.20720E+00
  rms(prec ) = 0.39731E+00
  weight for this iteration     100.00

 eigenvalues of (default mixing * dielectric matrix)
  average eigenvalue GAMMA=   1.2865
  2.5862  0.9737  0.2995

 Free energy of the ion-electron system (eV)
  ---------------------------------------------------
  alpha Z        PSCENC =        50.42426719
  Ewald energy   TEWEN  =     60657.81112614
  -Hartree energ DENC   =    -69229.77238477
  -exchange      EXHF   =         0.00000000
  -V(xc)+E(xc)   XCENC  =      -435.04624386
  PAW double counting   =     51810.71080134   -50882.89889354
  entropy T*S    EENTRO =        -0.25138372
  eigenvalues    EBANDS =     -2568.67086408
  atomic energy  EATOM  =      9710.09934808
  Solvation  Ediel_sol  =         0.00000000
  ---------------------------------------------------
  free energy    TOTEN  =      -887.59422723 eV

  energy without entropy =     -887.34284351  energy(sigma->0) =     -887.46853537


--------------------------------------------------------------------------------------------------------




--------------------------------------- Iteration      1(   5)  ---------------------------------------


    POTLOK:  cpu time      2.2693: real time      2.2887
    SETDIJ:  cpu time      1.7809: real time      1.7819
    EDDIAG:  cpu time     43.4942: real time     43.5213
     EDDAV:  cpu time    220.5300: real time    220.6511
       DOS:  cpu time      0.0026: real time      0.0026
    CHARGE:  cpu time     25.1638: real time     25.1872
    MIXING:  cpu time      0.0442: real time      0.0442
    --------------------------------------------
      LOOP:  cpu time    293.2851: real time    293.4773

 eigenvalue-minimisations  :  2272
 total energy-change (2. order) : 0.1992284E+00  (-0.9316752E-01)
 number of electron     381.9999999 magnetization 
 augmentation part      -21.1085445 magnetization 

 Broyden mixing:
  rms(total) = 0.86884E-01    rms(broyden)= 0.86884E-01
  rms(prec ) = 0.10919E+00
  weight for this iteration     100.00

 eigenvalues of (default mixing * dielectric matrix)
  average eigenvalue GAMMA=   1.0935
  2.5588  1.0729  0.4599  0.2823

 Free energy of the ion-electron system (eV)
  ---------------------------------------------------
  alpha Z        PSCENC =        50.42426719
  Ewald energy   TEWEN  =     60657.81112614
  -Hartree energ DENC   =    -69234.26392637
  -exchange      EXHF   =         0.00000000
  -V(xc)+E(xc)   XCENC  =      -435.87186751
  PAW double counting   =     51665.40028647   -50737.56912499
  entropy T*S    EENTRO =        -0.23068460
  eigenvalues    EBANDS =     -2563.19442326
  atomic energy  EATOM  =      9710.09934808
  Solvation  Ediel_sol  =         0.00000000
  ---------------------------------------------------
  free energy    TOTEN  =      -887.39499885 eV

  energy without entropy =     -887.16431425  energy(sigma->0) =     -887.27965655


--------------------------------------------------------------------------------------------------------




--------------------------------------- Iteration      1(   6)  ---------------------------------------


    POTLOK:  cpu time      2.2681: real time      2.2830
    SETDIJ:  cpu time      1.7802: real time      1.7816
    EDDIAG:  cpu time     43.4769: real time     43.5027
     EDDAV:  cpu time    210.9501: real time    211.0689
       DOS:  cpu time      0.0031: real time      0.0031
    CHARGE:  cpu time     25.1621: real time     25.1868
    MIXING:  cpu time      0.0450: real time      0.0450
    --------------------------------------------
      LOOP:  cpu time    283.6854: real time    283.8709

 eigenvalue-minimisations  :  2112
 total energy-change (2. order) : 0.1398414E-02  (-0.2500194E-01)
 number of electron     381.9999999 magnetization 
 augmentation part      -21.1107890 magnetization 

 Broyden mixing:
  rms(total) = 0.42721E-01    rms(broyden)= 0.42721E-01
  rms(prec ) = 0.48916E-01
  weight for this iteration     100.00

 eigenvalues of (default mixing * dielectric matrix)
  average eigenvalue GAMMA=   1.0533
  2.5160  1.3343  0.6668  0.2780  0.4715

 Free energy of the ion-electron system (eV)
  ---------------------------------------------------
  alpha Z        PSCENC =        50.42426719
  Ewald energy   TEWEN  =     60657.81112614
  -Hartree energ DENC   =    -69232.91611418
  -exchange      EXHF   =         0.00000000
  -V(xc)+E(xc)   XCENC  =      -436.12808637
  PAW double counting   =     51582.04891752   -50654.20498752
  entropy T*S    EENTRO =        -0.23950397
  eigenvalues    EBANDS =     -2564.28856732
  atomic energy  EATOM  =      9710.09934808
  Solvation  Ediel_sol  =         0.00000000
  ---------------------------------------------------
  free energy    TOTEN  =      -887.39360043 eV

  energy without entropy =     -887.15409647  energy(sigma->0) =     -887.27384845


--------------------------------------------------------------------------------------------------------




--------------------------------------- Iteration      1(   7)  ---------------------------------------


    POTLOK:  cpu time      2.2599: real time      2.2793
    SETDIJ:  cpu time      1.7807: real time      1.7817
    EDDIAG:  cpu time     43.5047: real time     43.5304
     EDDAV:  cpu time    218.5289: real time    218.6528
       DOS:  cpu time      0.0021: real time      0.0021
    CHARGE:  cpu time     25.1858: real time     25.2087
    MIXING:  cpu time      0.0455: real time      0.0455
    --------------------------------------------
      LOOP:  cpu time    291.3076: real time    291.5005

 eigenvalue-minimisations  :  2240
 total energy-change (2. order) :-0.5527348E-02  (-0.4270728E-02)
 number of electron     381.9999999 magnetization 
 augmentation part      -21.1092377 magnetization 

 Broyden mixing:
  rms(total) = 0.31143E-01    rms(broyden)= 0.31143E-01
  rms(prec ) = 0.34092E-01
  weight for this iteration     100.00

 eigenvalues of (default mixing * dielectric matrix)
  average eigenvalue GAMMA=   1.1000
  2.4368  1.9603  0.7557  0.7557  0.4136  0.2778

 Free energy of the ion-electron system (eV)
  ---------------------------------------------------
  alpha Z        PSCENC =        50.42426719
  Ewald energy   TEWEN  =     60657.81112614
  -Hartree energ DENC   =    -69230.78695028
  -exchange      EXHF   =         0.00000000
  -V(xc)+E(xc)   XCENC  =      -436.05803057
  PAW double counting   =     51518.54846603   -50590.69147934
  entropy T*S    EENTRO =        -0.23977436
  eigenvalues    EBANDS =     -2566.50610068
  atomic energy  EATOM  =      9710.09934808
  Solvation  Ediel_sol  =         0.00000000
  ---------------------------------------------------
  free energy    TOTEN  =      -887.39912778 eV

  energy without entropy =     -887.15935342  energy(sigma->0) =     -887.27924060


--------------------------------------------------------------------------------------------------------




--------------------------------------- Iteration      1(   8)  ---------------------------------------


    POTLOK:  cpu time      2.2826: real time      2.2841
    SETDIJ:  cpu time      1.7833: real time      1.7843
    EDDIAG:  cpu time     43.5039: real time     43.5288
     EDDAV:  cpu time    220.9478: real time    221.0693
       DOS:  cpu time      0.0052: real time      0.0052
    CHARGE:  cpu time     25.1741: real time     25.1962
    MIXING:  cpu time      0.0458: real time      0.0458
    --------------------------------------------
      LOOP:  cpu time    293.7426: real time    293.9137

 eigenvalue-minimisations  :  2280
 total energy-change (2. order) :-0.1304459E-02  (-0.1366290E-02)
 number of electron     381.9999999 magnetization 
 augmentation part      -21.1073373 magnetization 

 Broyden mixing:
  rms(total) = 0.15807E-01    rms(broyden)= 0.15807E-01
  rms(prec ) = 0.16920E-01
  weight for this iteration     100.00

 eigenvalues of (default mixing * dielectric matrix)
  average eigenvalue GAMMA=   1.1732
  2.5544  2.5544  0.8745  0.8745  0.6737  0.2775  0.4038

 Free energy of the ion-electron system (eV)
  ---------------------------------------------------
  alpha Z        PSCENC =        50.42426719
  Ewald energy   TEWEN  =     60657.81112614
  -Hartree energ DENC   =    -69229.50033051
  -exchange      EXHF   =         0.00000000
  -V(xc)+E(xc)   XCENC  =      -435.82885544
  PAW double counting   =     51509.12826156   -50581.25618595
  entropy T*S    EENTRO =        -0.24009954
  eigenvalues    EBANDS =     -2568.03796377
  atomic energy  EATOM  =      9710.09934808
  Solvation  Ediel_sol  =         0.00000000
  ---------------------------------------------------
  free energy    TOTEN  =      -887.40043224 eV

  energy without entropy =     -887.16033270  energy(sigma->0) =     -887.28038247


--------------------------------------------------------------------------------------------------------




--------------------------------------- Iteration      1(   9)  ---------------------------------------


    POTLOK:  cpu time      2.2652: real time      2.2849
    SETDIJ:  cpu time      1.7769: real time      1.7783
    EDDIAG:  cpu time     43.5211: real time     43.5476
     EDDAV:  cpu time    210.8699: real time    210.9937
       DOS:  cpu time      0.0030: real time      0.0030
    CHARGE:  cpu time     25.1777: real time     25.2028
    MIXING:  cpu time      0.0467: real time      0.0467
    --------------------------------------------
      LOOP:  cpu time    283.6605: real time    283.8569

 eigenvalue-minimisations  :  2104
 total energy-change (2. order) :-0.1132824E-02  (-0.5843527E-03)
 number of electron     381.9999999 magnetization 
 augmentation part      -21.1060713 magnetization 

 Broyden mixing:
  rms(total) = 0.59266E-02    rms(broyden)= 0.59266E-02
  rms(prec ) = 0.70786E-02
  weight for this iteration     100.00

 eigenvalues of (default mixing * dielectric matrix)
  average eigenvalue GAMMA=   1.1482
  2.6104  2.6104  1.0476  0.8445  0.7465  0.6394  0.2774  0.4092

 Free energy of the ion-electron system (eV)
  ---------------------------------------------------
  alpha Z        PSCENC =        50.42426719
  Ewald energy   TEWEN  =     60657.81112614
  -Hartree energ DENC   =    -69229.15822681
  -exchange      EXHF   =         0.00000000
  -V(xc)+E(xc)   XCENC  =      -435.65761582
  PAW double counting   =     51538.27210215   -50610.38738675
  entropy T*S    EENTRO =        -0.24064752
  eigenvalues    EBANDS =     -2568.56453173
  atomic energy  EATOM  =      9710.09934808
  Solvation  Ediel_sol  =         0.00000000
  ---------------------------------------------------
  free energy    TOTEN  =      -887.40156506 eV

  energy without entropy =     -887.16091754  energy(sigma->0) =     -887.28124130


--------------------------------------------------------------------------------------------------------




--------------------------------------- Iteration      1(  10)  ---------------------------------------


    POTLOK:  cpu time      2.2882: real time      2.2894
    SETDIJ:  cpu time      1.7921: real time      1.7936
    EDDIAG:  cpu time     43.5053: real time     43.5349
     EDDAV:  cpu time    216.3097: real time    216.4324
       DOS:  cpu time      0.0033: real time      0.0033
    CHARGE:  cpu time     25.1733: real time     25.1966
    MIXING:  cpu time      0.0472: real time      0.0472
    --------------------------------------------
      LOOP:  cpu time    289.1191: real time    289.2974

 eigenvalue-minimisations  :  2200
 total energy-change (2. order) :-0.2089431E-03  (-0.1170520E-03)
 number of electron     381.9999999 magnetization 
 augmentation part      -21.1061343 magnetization 

 Broyden mixing:
  rms(total) = 0.33774E-02    rms(broyden)= 0.33774E-02
  rms(prec ) = 0.41339E-02
  weight for this iteration     100.00

 eigenvalues of (default mixing * dielectric matrix)
  average eigenvalue GAMMA=   1.1301
  2.6149  2.6149  1.3156  0.9639  0.2775  0.7133  0.7133  0.4080  0.5493

 Free energy of the ion-electron system (eV)
  ---------------------------------------------------
  alpha Z        PSCENC =        50.42426719
  Ewald energy   TEWEN  =     60657.81112614
  -Hartree energ DENC   =    -69228.89059651
  -exchange      EXHF   =         0.00000000
  -V(xc)+E(xc)   XCENC  =      -435.65727356
  PAW double counting   =     51550.44840382   -50622.55886466
  entropy T*S    EENTRO =        -0.24061089
  eigenvalues    EBANDS =     -2568.83757362
  atomic energy  EATOM  =      9710.09934808
  Solvation  Ediel_sol  =         0.00000000
  ---------------------------------------------------
  free energy    TOTEN  =      -887.40177401 eV

  energy without entropy =     -887.16116312  energy(sigma->0) =     -887.28146856


--------------------------------------------------------------------------------------------------------




--------------------------------------- Iteration      1(  11)  ---------------------------------------


    POTLOK:  cpu time      2.2629: real time      2.2854
    SETDIJ:  cpu time      1.7850: real time      1.7859
    EDDIAG:  cpu time     43.4729: real time     43.5003
     EDDAV:  cpu time    214.0403: real time    214.1618
       DOS:  cpu time      0.0102: real time      0.0107
    CHARGE:  cpu time     25.1799: real time     25.2007
    MIXING:  cpu time      0.0628: real time      0.0640
    --------------------------------------------
      LOOP:  cpu time    286.8143: real time    287.0092

 eigenvalue-minimisations  :  2160
 total energy-change (2. order) :-0.4279733E-04  (-0.4684247E-04)
 number of electron     381.9999999 magnetization 
 augmentation part      -21.1063021 magnetization 

 Broyden mixing:
  rms(total) = 0.20603E-02    rms(broyden)= 0.20603E-02
  rms(prec ) = 0.25253E-02
  weight for this iteration     100.00

 eigenvalues of (default mixing * dielectric matrix)
  average eigenvalue GAMMA=   1.1301
  2.6639  2.6639  1.6647  1.0137  0.7757  0.7757  0.2775  0.5664  0.4074  0.4918

 Free energy of the ion-electron system (eV)
  ---------------------------------------------------
  alpha Z        PSCENC =        50.42426719
  Ewald energy   TEWEN  =     60657.81112614
  -Hartree energ DENC   =    -69228.66031681
  -exchange      EXHF   =         0.00000000
  -V(xc)+E(xc)   XCENC  =      -435.67932757
  PAW double counting   =     51546.12432627   -50618.23278333
  entropy T*S    EENTRO =        -0.24036867
  eigenvalues    EBANDS =     -2569.04808810
  atomic energy  EATOM  =      9710.09934808
  Solvation  Ediel_sol  =         0.00000000
  ---------------------------------------------------
  free energy    TOTEN  =      -887.40181680 eV

  energy without entropy =     -887.16144813  energy(sigma->0) =     -887.28163247


--------------------------------------------------------------------------------------------------------




--------------------------------------- Iteration      1(  12)  ---------------------------------------


    POTLOK:  cpu time      2.2722: real time      2.2873
    SETDIJ:  cpu time      1.7954: real time      1.7967
    EDDIAG:  cpu time     43.5030: real time     43.5290
     EDDAV:  cpu time    208.7375: real time    208.8549
       DOS:  cpu time      0.0044: real time      0.0044
    CHARGE:  cpu time     25.1754: real time     25.1994
    MIXING:  cpu time      0.0492: real time      0.0492
    --------------------------------------------
      LOOP:  cpu time    281.5368: real time    281.7206

 eigenvalue-minimisations  :  2072
 total energy-change (2. order) :-0.2531614E-04  (-0.3252808E-04)
 number of electron     381.9999999 magnetization 
 augmentation part      -21.1063657 magnetization 

 Broyden mixing:
  rms(total) = 0.11417E-02    rms(broyden)= 0.11417E-02
  rms(prec ) = 0.14361E-02
  weight for this iteration     100.00

 eigenvalues of (default mixing * dielectric matrix)
  average eigenvalue GAMMA=   1.1702
  2.8154  2.8154  2.0438  1.0602  0.8692  0.8692  0.2775  0.6613  0.5787  0.4079
  0.4733

 Free energy of the ion-electron system (eV)
  ---------------------------------------------------
  alpha Z        PSCENC =        50.42426719
  Ewald energy   TEWEN  =     60657.81112614
  -Hartree energ DENC   =    -69228.36918501
  -exchange      EXHF   =         0.00000000
  -V(xc)+E(xc)   XCENC  =      -435.68625659
  PAW double counting   =     51541.64299271   -50613.75006063
  entropy T*S    EENTRO =        -0.24045604
  eigenvalues    EBANDS =     -2569.33361797
  atomic energy  EATOM  =      9710.09934808
  Solvation  Ediel_sol  =         0.00000000
  ---------------------------------------------------
  free energy    TOTEN  =      -887.40184212 eV

  energy without entropy =     -887.16138608  energy(sigma->0) =     -887.28161410


--------------------------------------------------------------------------------------------------------




--------------------------------------- Iteration      1(  13)  ---------------------------------------


    POTLOK:  cpu time      2.2748: real time      2.2793
    SETDIJ:  cpu time      1.7882: real time      1.7893
    EDDIAG:  cpu time     43.4780: real time     43.5028
     EDDAV:  cpu time    207.8371: real time    207.9498
       DOS:  cpu time      0.0032: real time      0.0032
    CHARGE:  cpu time     25.1931: real time     25.2160
    MIXING:  cpu time      0.0513: real time      0.0514
    --------------------------------------------
      LOOP:  cpu time    280.6258: real time    280.7918

 eigenvalue-minimisations  :  2056
 total energy-change (2. order) :-0.1504275E-03  (-0.2970833E-04)
 number of electron     381.9999999 magnetization 
 augmentation part      -21.1064972 magnetization 

 Broyden mixing:
  rms(total) = 0.53987E-03    rms(broyden)= 0.53987E-03
  rms(prec ) = 0.80904E-03
  weight for this iteration     100.00

 eigenvalues of (default mixing * dielectric matrix)
  average eigenvalue GAMMA=   1.1706
  2.8901  2.8901  2.1314  1.2106  0.8760  0.8760  0.8350  0.2775  0.5922  0.5922
  0.4081  0.4682

 Free energy of the ion-electron system (eV)
  ---------------------------------------------------
  alpha Z        PSCENC =        50.42426719
  Ewald energy   TEWEN  =     60657.81112614
  -Hartree energ DENC   =    -69227.94351578
  -exchange      EXHF   =         0.00000000
  -V(xc)+E(xc)   XCENC  =      -435.69488253
  PAW double counting   =     51538.51860545   -50610.62461722
  entropy T*S    EENTRO =        -0.24045710
  eigenvalues    EBANDS =     -2569.75186678
  atomic energy  EATOM  =      9710.09934808
  Solvation  Ediel_sol  =         0.00000000
  ---------------------------------------------------
  free energy    TOTEN  =      -887.40199255 eV

  energy without entropy =     -887.16153545  energy(sigma->0) =     -887.28176400


--------------------------------------------------------------------------------------------------------




--------------------------------------- Iteration      1(  14)  ---------------------------------------


    POTLOK:  cpu time      2.2850: real time      2.2863
    SETDIJ:  cpu time      1.7782: real time      1.7794
    EDDIAG:  cpu time     43.5360: real time     43.5596
     EDDAV:  cpu time    207.6805: real time    207.7957
       DOS:  cpu time      0.0108: real time      0.0112
    CHARGE:  cpu time     25.2009: real time     25.2248
    MIXING:  cpu time      0.0659: real time      0.0669
    --------------------------------------------
      LOOP:  cpu time    280.5583: real time    280.7248

 eigenvalue-minimisations  :  2048
 total energy-change (2. order) :-0.1457333E-03  (-0.1778024E-04)
 number of electron     381.9999999 magnetization 
 augmentation part      -21.1065717 magnetization 

 Broyden mixing:
  rms(total) = 0.37476E-03    rms(broyden)= 0.37475E-03
  rms(prec ) = 0.57362E-03
  weight for this iteration     100.00

 eigenvalues of (default mixing * dielectric matrix)
  average eigenvalue GAMMA=   1.1673
  2.9284  2.9284  2.1887  1.4173  0.9309  0.9309  0.8475  0.2775  0.6983  0.6213
  0.4076  0.5311  0.4675

 Free energy of the ion-electron system (eV)
  ---------------------------------------------------
  alpha Z        PSCENC =        50.42426719
  Ewald energy   TEWEN  =     60657.81112614
  -Hartree energ DENC   =    -69227.64733895
  -exchange      EXHF   =         0.00000000
  -V(xc)+E(xc)   XCENC  =      -435.70011366
  PAW double counting   =     51538.11660972   -50610.22255907
  entropy T*S    EENTRO =        -0.24046949
  eigenvalues    EBANDS =     -2570.04300825
  atomic energy  EATOM  =      9710.09934808
  Solvation  Ediel_sol  =         0.00000000
  ---------------------------------------------------
  free energy    TOTEN  =      -887.40213828 eV

  energy without entropy =     -887.16166879  energy(sigma->0) =     -887.28190354


--------------------------------------------------------------------------------------------------------




--------------------------------------- Iteration      1(  15)  ---------------------------------------


    POTLOK:  cpu time      2.2693: real time      2.2854
    SETDIJ:  cpu time      1.7845: real time      1.7863
    EDDIAG:  cpu time     43.5115: real time     43.5396
     EDDAV:  cpu time    207.5227: real time    207.6407
       DOS:  cpu time      0.0027: real time      0.0028
    CHARGE:  cpu time     25.2233: real time     25.2465
    MIXING:  cpu time      0.0516: real time      0.0516
    --------------------------------------------
      LOOP:  cpu time    280.3647: real time    280.5518

 eigenvalue-minimisations  :  2048
 total energy-change (2. order) :-0.1158931E-03  (-0.1534268E-04)
 number of electron     381.9999999 magnetization 
 augmentation part      -21.1066292 magnetization 

 Broyden mixing:
  rms(total) = 0.26854E-03    rms(broyden)= 0.26853E-03
  rms(prec ) = 0.42487E-03
  weight for this iteration     100.00

 eigenvalues of (default mixing * dielectric matrix)
  average eigenvalue GAMMA=   1.2213
  3.3141  2.8053  2.3380  1.8591  1.0577  1.0577  0.8870  0.7680  0.7680  0.2775
  0.5486  0.5486  0.4079  0.4610

[...]
   -.369E+02 0.688E+01 -.309E+03   0.380E+02 -.643E+01 0.308E+03   -.897E+00 0.605E-01 0.148E+01   0.402E-04 0.128E-05 0.304E-04
   0.115E+02 -.163E+02 -.155E+03   -.130E+02 0.135E+02 0.157E+03   0.178E+01 0.306E+01 -.299E+01   0.291E-04 0.985E-05 0.947E-05
   0.349E+01 0.322E+02 0.340E+03   -.229E+01 -.326E+02 -.338E+03   -.223E+01 0.532E+00 -.284E+01   -.384E-05 -.539E-04 -.490E-04
   -.929E+01 0.919E+01 -.212E+03   0.104E+02 -.692E+01 0.213E+03   -.187E+01 -.350E+01 -.587E+00   0.318E-04 0.288E-04 0.133E-04
   -.182E+02 -.157E+02 -.220E+03   0.169E+02 0.144E+02 0.220E+03   0.209E+01 0.119E+01 -.831E+00   0.722E-05 -.115E-04 -.441E-05
   -.234E+02 -.526E+01 0.297E+03   0.229E+02 0.546E+01 -.294E+03   0.163E+01 -.775E-01 -.227E+01   -.336E-04 0.314E-04 -.734E-04
   0.208E+01 0.274E+02 0.255E+03   -.730E+00 -.272E+02 -.252E+03   -.215E+01 -.510E+00 -.212E+01   -.169E-04 -.526E-04 -.630E-04
   0.583E+01 -.645E+01 -.105E+03   -.590E+01 0.604E+01 0.104E+03   -.161E+00 0.445E+00 -.396E-02   0.245E-04 -.103E-04 0.414E-04
   0.142E+02 -.796E+00 0.824E+01   -.135E+02 -.185E+00 -.863E+01   -.143E+01 0.130E+01 -.199E+00   0.114E-05 -.148E-04 -.487E-04
   -.772E+01 0.171E+02 -.112E+03   0.670E+01 -.163E+02 0.113E+03   0.129E+00 -.771E+00 -.176E+01   0.420E-04 -.269E-04 -.768E-05
   0.288E+01 -.131E+02 -.349E+03   -.298E+01 0.128E+02 0.349E+03   0.484E-01 0.119E+00 0.737E+00   0.350E-04 0.122E-04 0.995E-05
   0.115E+02 0.241E+02 -.606E+02   -.968E+01 -.194E+02 0.604E+02   -.323E+01 -.481E+01 0.327E+00   -.365E-04 0.123E-04 0.968E-05
   -.812E+00 -.416E+00 -.349E+03   0.280E+01 0.138E+01 0.347E+03   -.146E+01 -.118E+01 0.220E+01   -.573E-04 0.105E-05 0.449E-04
   0.961E+00 0.543E+01 0.285E+03   0.247E+00 -.623E+01 -.283E+03   -.157E+01 0.131E+01 -.300E+01   0.105E-04 0.153E-04 -.722E-04
   -.141E+02 -.212E+02 0.130E+03   0.118E+02 0.221E+02 -.131E+03   0.228E+01 -.367E+00 0.153E+01   -.110E-04 0.454E-04 -.499E-04
   -.114E+02 0.418E+01 0.357E+03   0.945E+01 -.344E+01 -.354E+03   0.184E+01 -.117E+01 -.325E+01   0.327E-04 -.423E-04 -.510E-04
   -.227E+02 -.722E+01 -.177E+03   0.220E+02 0.592E+01 0.178E+03   0.184E+01 0.926E+00 -.562E+00   0.770E-05 -.141E-04 -.310E-04
   0.206E+01 -.697E+01 -.255E+03   -.460E+01 0.760E+01 0.255E+03   0.244E+01 -.971E+00 0.419E+00   -.572E-04 0.455E-04 0.231E-04
   0.875E+01 -.398E+01 0.108E+03   -.846E+01 0.459E+01 -.108E+03   -.956E+00 -.608E+00 0.521E-01   0.330E-04 0.177E-04 -.185E-04
   0.385E+01 -.279E+02 -.575E+02   -.194E+01 0.267E+02 0.577E+02   -.261E+01 0.261E+01 -.564E+00   0.920E-05 -.108E-05 0.148E-05
   0.350E+02 -.195E+02 -.320E+03   -.341E+02 0.173E+02 0.318E+03   -.448E+00 0.200E+01 0.297E+01   -.859E-06 -.198E-04 0.362E-04
   0.122E+02 0.191E+02 0.342E+03   -.135E+02 -.197E+02 -.339E+03   0.168E+01 0.651E+00 -.345E+01   -.106E-04 -.511E-04 -.288E-04
   0.120E+02 -.190E+02 -.348E+03   -.126E+02 0.197E+02 0.352E+03   0.321E+00 -.317E-01 -.356E+01   -.181E-04 0.887E-05 0.132E-04
   -.336E+02 -.535E+01 -.340E+03   0.321E+02 0.519E+01 0.338E+03   0.313E+00 -.153E+00 0.247E+01   -.777E-05 -.150E-05 0.345E-04
   0.170E+01 0.527E+01 0.139E+03   -.228E+01 -.350E+01 -.137E+03   0.138E+00 -.151E+01 -.644E+00   -.371E-05 -.219E-05 -.108E-03
   -.231E+02 -.105E+02 -.424E+02   0.225E+02 0.923E+01 0.411E+02   0.121E+01 0.157E+01 0.938E+00   0.227E-05 0.945E-05 -.443E-04
   -.804E+01 0.203E+02 0.361E+03   0.839E+01 -.195E+02 -.361E+03   -.439E+00 -.209E+01 0.931E-01   0.228E-04 -.164E-04 -.340E-04
   -.163E+02 0.300E+02 -.378E+03   0.147E+02 -.312E+02 0.381E+03   0.198E+01 0.158E+01 -.184E+01   -.210E-04 -.130E-04 0.395E-04
   -.214E+02 0.143E+02 -.124E+03   0.188E+02 -.137E+02 0.122E+03   0.348E+01 -.146E+01 0.380E+01   0.404E-04 0.137E-04 0.297E-04
   -.118E+02 0.108E+01 0.165E+03   0.110E+02 -.726E+00 -.166E+03   0.119E+00 -.223E+00 0.449E+00   -.256E-04 -.224E-04 0.656E-05
   0.412E+02 -.160E+01 0.341E+03   -.395E+02 0.308E+01 -.338E+03   -.943E+00 -.847E+00 -.315E+01   -.194E-04 -.856E-05 -.358E-04
   -.243E+02 -.310E+02 0.312E+03   0.232E+02 0.296E+02 -.312E+03   0.186E+01 0.848E+00 0.234E+00   -.181E-04 0.470E-04 -.177E-04
 -----------------------------------------------------------------------------------------------
   -.216E+02 0.126E+02 0.208E+02   0.249E-13 0.746E-13 0.227E-12   0.216E+02 -.126E+02 -.208E+02   -.131E-03 -.126E-03 -.141E-02


 POSITION                                       TOTAL-FORCE (eV/Angst)
 -----------------------------------------------------------------------------------
     13.52040      1.66298     15.51940         0.363893     -0.277649     -0.124563
      8.52445      7.51495     16.33079         0.446376      0.027020     -0.313053
     12.25410      4.73731     18.55792         0.757048     -0.920986     -0.397226
      7.18392      4.35419     15.14044        -0.337584     -0.509498      0.044676
      9.81731     12.74520     12.88330        -0.145656     -0.178382     -0.223503
      6.89254      0.50266     15.41328        -0.305874     -0.191831     -0.369410
      0.07637      8.64320     11.10125        -0.241080     -1.366095     -1.122025
      8.18071      1.03434     12.89600         0.466269      0.051080      0.250238
      5.50246      7.92177     15.17732        -0.112419      0.005638      0.026318
     14.41392      8.65779     17.60689         0.690377      0.527452      0.301213
     13.76700      9.89531     13.63055         0.045015     -0.455008     -0.242637
      9.05182      6.67633     10.47486         0.246014      0.831764     -0.626218
      2.54813      4.45666     15.64826        -0.117437     -0.927768      0.189738
      1.80349      2.23933     14.71675         2.508719      1.237453     -0.392001
     10.93960     11.99810     17.83783        -1.023083      0.287894      1.238989
     10.46070      8.35110     11.27015         0.079080     -0.596623      0.280957
      3.12298      3.68456     17.86549         0.184045      0.365994     -0.304818
      9.40857      7.60901     15.08161         0.074433     -0.488676      0.379405
      7.62396      6.74524     13.81067         2.050076     -0.074843     -1.226292
      3.50628     13.74310     12.82870         0.809842     -0.229647      1.004963
      5.15451     11.96920     12.72821        -1.466666     -0.628537      0.145506
      7.67384     13.15300     18.64921        -0.082864     -1.112417     -0.408147
      7.57850     13.75590     14.99682        -0.305444     -0.253169      0.207667
     13.43080      4.16006     17.61995        -1.001201      0.609937      0.871132
      2.84179      8.11221     16.69021        -0.669605     -0.462027      0.407263
     14.22310      7.21986     10.19812        -0.347794      1.770820      1.325400
      0.30842      0.89225     15.63995        -1.241062      0.667464      0.232356
      4.48124     12.48500     16.73754         0.191914      1.026019      0.760061
      7.87339      9.71279     17.98698        -0.257112      0.335698      0.691201
      3.89051      5.44397     13.94541         0.403107     -0.413238      0.719948
     12.54220     11.08750     10.39179         0.436109      0.048841     -0.552154
     10.04750     10.22230     12.60742        -0.156628      0.306400     -0.324040
      0.30440     13.11080     18.65321        -0.446911      0.323411      0.461595
      7.17953      0.49915     11.90125        -0.201833      0.470033      0.937377
      5.02453     10.82230     10.70443        -0.292784     -0.745164     -0.444036
      9.43129      8.01481     18.73690         0.032399      0.297738     -0.594928
      4.69961      3.81918     12.46400        -0.236549      0.142885     -0.386836
      8.19127      5.24873     12.06146         1.012388     -0.285115      0.942969
      4.40002      0.42851     16.75792        -0.670124     -0.123586      0.692668
      6.09375      2.04448     17.18855         0.554059     -1.003737     -1.441148
      0.51208      2.57030     12.85041        -0.550119      0.131894     -0.792589
      1.49827      3.68176     10.96105         0.416957      0.408988      0.537274
     10.70990      1.34246     17.90532        -0.540776      0.687489     -0.074353
      2.68729      1.46812     18.23355        -0.146651     -0.740829     -0.856641
     12.03860      4.44118     15.71313         0.705455     -0.111175     -0.059378
      0.89255     11.63600     16.96155        -0.544389     -0.473425     -0.221124
     12.15530     11.15000     12.57317        -0.146850      0.287092      0.471194
      7.13314     12.86660     12.88081         1.043593      1.120711     -0.459020
     13.46580      4.09300     13.74591        -0.528722      0.162599     -0.182220
      3.18000      0.32099     10.87061        -0.729117      1.057460     -0.550102
      0.05701      6.13705     14.00010         0.187889      0.400774      0.681827
      7.13396      9.81974     10.71617        -0.065570     -0.040336     -0.674077
      3.64071      9.45913     14.99915         0.185950      0.310234     -1.015895
     12.84500      7.72071     13.75423         1.050387     -0.015459      1.239238
      6.99142      2.82917     15.14813        -0.284150      0.062763     -0.762922
      2.62075      8.81977     12.82416        -0.588055      0.457187      0.621273
      6.76016     12.25230     16.56516         0.992955      0.183921      0.474384
      9.68461      3.43077     12.59176         1.133043      0.686309     -0.307521
      9.79069      9.92879     14.92016         0.250315     -0.201146      0.270877
      1.20699      9.49597     17.80426        -0.407609     -1.134852     -0.681311
      4.54566     11.54270     18.92102         0.826060     -0.136853     -0.344469
      9.19191      2.38003     14.64290         0.013425     -0.249719      0.201690
      1.01799     10.64470     12.35472         0.351501     -0.976952     -0.394148
      8.42643      0.86143     10.00000         0.629189     -0.166296     -0.892625
     10.38500      1.89564     10.90879        -0.583455      0.292088      0.150444
      5.81253     10.04570     14.13790        -0.434664     -0.181127      0.458669
      5.38412      3.96958     18.06376        -0.354574      0.952246      0.790202
      0.00287     13.89750     14.01592         0.258304     -0.963094     -0.324729
      7.65057     10.23880     15.75731        -0.802064      0.418826     -0.277974
     12.31690      6.91956     11.73584        -0.733947     -0.577834     -1.685200
      2.03989      6.53292     12.87490         0.267363      0.590374      0.177792
     11.59200      8.05885     17.58864        -0.031659      0.552186      0.444473
      1.22495      6.33149     16.09544         0.419611      0.338510     -0.714439
      6.23241      4.87346     11.07125        -1.149212      0.314815     -0.794731
     11.60590     10.26640     16.56973        -0.906052     -1.392360     -0.057340
     11.07530     13.92880     16.68741         0.858081     -0.008046     -0.660886
     11.89610      0.26473     11.56263         1.192559      0.172009      0.433615
     11.89210      4.56480     12.02936        -0.919461     -0.257834      0.621804
      2.75088     11.55100     15.57830        -0.238301      0.063602     -0.665718
      3.96819      0.91317     14.46679        -0.864328      0.380649     -0.611577
     11.65430      6.79851     15.65125        -0.899769     -0.073294     -0.842474
      0.24542      5.97828     18.08316        -0.067198     -0.344241      0.709869
      5.84431      6.46834     15.08175        -1.540555     -0.248451      0.122520
      8.07924      6.20615     18.58910         0.519111     -0.283489     -0.520654
     14.33570      0.44080     12.01068        -0.558272      0.660072     -0.445554
     11.06250     13.47510     13.25859         0.073239      0.412356      0.396731
      1.54882      6.01423     10.70008        -0.105096     -0.549298      0.035924
     10.14200      3.27946     16.56938         1.354688     -0.345454     -0.283537
      6.03900      6.11497     17.37290         0.032275     -0.415830      0.915897
      1.81158     12.45330     13.61656        -0.701533     -0.016699      0.334043
     12.65610     12.98600     15.00803        -0.836236      1.466084     -0.475515
      0.41840      0.80406     17.88527         0.532739     -0.153907      0.872727
      5.73094      7.17835     10.94836         0.441257      0.123246     -0.089811
      4.58338      7.73135     18.28143        -0.218855      0.573960      0.075638
      9.09722      4.09409     18.41095        -1.203132     -0.367995     -0.007058
      5.78784      1.94562     13.23199        -0.461331      0.215759      1.155718
      9.67678      0.08394     14.92810         0.594811      0.399121     -0.230847
      3.59562      2.82460     10.62661        -0.275807     -1.331291     -0.020821
      7.56151      2.25351     18.92374         0.534163      0.648390      0.449044
     13.49830     11.03220     15.56110         0.997910     -0.924926      1.324661
      6.79501      8.55796     12.61596        -0.753280      0.105877      0.266358
      3.99831      8.70539     11.00149         0.805525      0.629099      0.071804
      8.47975     11.60450     11.47903         0.810983     -0.674022      0.052965
 -----------------------------------------------------------------------------------
    total drift:                                0.006243      0.012758      0.001452


--------------------------------------------------------------------------------------------------------



  FREE ENERGIE OF THE ION-ELECTRON SYSTEM (eV)
  ---------------------------------------------------
  free  energy   TOTEN  =      -887.40264453 eV

  energy  without entropy=     -887.16214889  energy(sigma->0) =     -887.28239671



--------------------------------------------------------------------------------------------------------


    POTLOK:  cpu time      4.0195: real time      4.0536


--------------------------------------------------------------------------------------------------------


     LOOP+:  cpu time   6674.5995: real time   6678.9853
    4ORBIT:  cpu time      0.0000: real time      0.0000



 total charge

# of ion       s       p       d       tot
------------------------------------------
    1        0.547   0.014   0.000   0.561
    2        0.551   0.017   0.000   0.568
    3        0.519   0.011   0.000   0.530
    4        0.553   0.015   0.000   0.568
    5        0.567   0.021   0.000   0.587
    6        0.563   0.018   0.000   0.581
    7        0.486   0.009   0.000   0.496
    8        0.565   0.018   0.000   0.583
    9        0.572   0.020   0.000   0.592
   10        0.527   0.013   0.000   0.540
   11        0.759   0.959   0.000   1.718
   12        0.858   0.747   0.000   1.606
   13        0.766   0.873   0.000   1.640
   14        0.764   0.920   0.000   1.684
   15        0.827   0.809   0.000   1.636
   16        0.789   0.850   0.000   1.638
   17        0.793   0.859   0.000   1.652
   18        0.763   0.927   0.000   1.690
   19        0.771   0.958   0.000   1.729
   20        0.761   0.941   0.000   1.702
   21        0.765   0.944   0.000   1.709
   22        0.924   0.576   0.000   1.499
   23        0.765   0.969   0.000   1.734
   24        0.792   0.834   0.000   1.626
   25        0.759   0.905   0.000   1.664
   26        0.809   0.806   0.000   1.615
   27        0.764   1.008   0.000   1.772
   28        0.756   0.946   0.000   1.703
   29        0.845   0.717   0.000   1.562
   30        0.755   0.899   0.000   1.655
   31        0.918   0.637   0.000   1.554
   32        0.769   0.921   0.000   1.691
   33        0.869   0.731   0.000   1.600
   34        0.774   0.938   0.000   1.712
   35        0.802   0.855   0.000   1.656
   36        0.795   0.834   0.000   1.629
   37        0.764   0.927   0.000   1.691
   38        0.758   0.948   0.000   1.706
   39        0.764   0.859   0.000   1.623
   40        0.767   0.933   0.000   1.701
   41        0.764   0.899   0.000   1.663
   42        0.800   0.831   0.000   1.631
   43        0.859   0.715   0.000   1.574
   44        0.792   0.832   0.000   1.624
   45        0.760   0.891   0.000   1.651
   46        0.764   0.932   0.000   1.696
   47        0.784   0.944   0.000   1.728
   48        0.768   0.976   0.000   1.744
   49        0.756   0.906   0.000   1.663
   50        0.864   0.711   0.000   1.575
   51        0.761   0.926   0.000   1.687
   52        0.798   0.846   0.000   1.644
   53        0.766   0.901   0.000   1.667
   54        0.759   0.935   0.000   1.694
   55        0.756   0.939   0.000   1.696
   56        0.763   0.897   0.000   1.660
   57        0.757   0.938   0.000   1.695
   58        0.764   0.868   0.000   1.632
   59        0.771   0.909   0.000   1.680
   60        0.801   0.832   0.000   1.633
   61        0.921   0.592   0.000   1.513
   62        0.762   0.945   0.000   1.707
   63        0.800   0.832   0.000   1.632
   64        0.872   0.722   0.000   1.595
   65        0.783   0.849   0.000   1.631
   66        0.771   0.861   0.000   1.632
   67        0.777   0.906   0.000   1.683
   68        0.757   0.992   0.000   1.748
   69        0.761   0.931   0.000   1.692
   70        0.763   0.897   0.000   1.660
   71        0.763   0.926   0.000   1.689
   72        0.801   0.811   0.000   1.611
   73        0.767   0.928   0.000   1.694
   74        0.804   0.879   0.000   1.683
   75        0.758   0.931   0.000   1.689
   76        0.766   0.920   0.000   1.686
   77        0.780   0.836   0.000   1.615
   78        0.794   0.796   0.000   1.590
   79        0.761   0.958   0.000   1.720
   80        0.761   0.868   0.000   1.629
   81        0.764   0.889   0.000   1.653
   82        0.859   0.766   0.000   1.624
   83        0.764   0.965   0.000   1.729
   84        0.781   0.867   0.000   1.648
   85        0.787   0.835   0.000   1.622
   86        0.754   0.928   0.000   1.682
   87        0.788   0.891   0.000   1.679
   88        0.762   0.923   0.000   1.685
   89        0.757   0.928   0.000   1.685
   90        0.763   0.953   0.000   1.716
   91        0.786   0.916   0.000   1.701
   92        0.792   0.864   0.000   1.656
   93        0.793   0.820   0.000   1.613
   94        0.869   0.715   0.000   1.584
   95        0.788   0.842   0.000   1.630
   96        0.760   0.901   0.000   1.661
   97        0.771   0.926   0.000   1.698
   98        0.816   0.813   0.000   1.629
   99        0.851   0.740   0.000   1.591
  100        0.769   0.977   0.000   1.746
  101        0.779   0.903   0.000   1.682
  102        0.796   0.849   0.000   1.645
  103        0.807   0.830   0.000   1.636
--------------------------------------------------
tot         78.706  81.234   0.000 159.940


 total amount of memory used by VASP MPI-rank0   382236. kBytes
=======================================================================

   base                                    :      30000. kBytes
   nonl-proj                               :      78001. kBytes
   fftplans                                :     114273. kBytes
   grid                                    :      88184. kBytes
   one-center                              :         21. kBytes
   wavefun                                 :      71757. kBytes

  
  
 General timing and accounting informations for this job:
 ========================================================
  
                  Total CPU time used (sec):     6830.585
                            User time (sec):     6082.353
                          System time (sec):      748.233
                         Elapsed time (sec):     6835.114
  
                   Maximum memory used (kb):      645708.
                   Average memory used (kb):          N/A
  
                          Minor page faults:     11052706
                          Major page faults:         1188
                 Voluntary context switches:         2670
