 vasp.6.5.0 16Dec24 (build Jan 20 2025 08:32:48) complex                         
 executed on        HPECrayEX_GCC date 2025.07.28  23:38:36
 running  128 mpi-ranks, with    1 threads/rank, on    1 nodes
 distrk:  each k-point on  128 cores,    1 groups
 distr:  one band on NCORE=  16 cores,    8 groups


--------------------------------------------------------------------------------------------------------


 INCAR:
   SYSTEM = a-Si SPC
   NCORE = 16
   ISTART = 1
   ICHARG = 1
   ISPIN = 1
   ISYM = 1
   EDIFF = 1E-6
   NELM = 150
   EDIFFG = -0.01
   NSW = 0
   ISIF = 2
   IBRION = -1
   PREC = Accurate
   ENCUT = 1200
   KSPACING = 0.23
   KGAMMA = .TRUE.
   METAGGA = SCAN
   LASPH = .TRUE.
   LDIAG = .FALSE.
   LMIXTAU = .TRUE.
   ADDGRID = .TRUE.
   ALGO = Normal
   ISMEAR = 0
   SIGMA = 0.1
   LORBIT = 11
   NEDOS = 2000
   LWAVE = .FALSE.
   LCHARG = .FALSE.

 POTCAR:    PAW_PBE H 15Jun2001                   
 POTCAR:    PAW_PBE Si 05Jan2001                  
 POTCAR:    PAW_PBE H 15Jun2001                   
   SHA256 =  030f79b5d3ab3cf0e668861823c8fb652ff669f3e15e46930bd03bfd63a607b6 H/POTCAR              
   COPYR  = (c) Copyright 15Jun2001 Georg Kresse                                                    
   COPYR  = This file is part of the software VASP. Any use, copying, and all other rights are regul
   COPYR  = If you do not have a valid VASP license, you may not use, copy or distribute this file. 
   VRHFIN =H: ultrasoft test                                                                        
   LEXCH  = PE                                                                                      
   EATOM  =    12.4884 eV,    0.9179 Ry                                                             
                                                                                                    
   TITEL  = PAW_PBE H 15Jun2001                                                                     
   LULTRA =        F    use ultrasoft PP ?                                                          
   IUNSCR =        0    unscreen: 0-lin 1-nonlin 2-no                                               
   RPACOR =    0.000    partial core radius                                                         
   POMASS =    1.000; ZVAL   =    1.000    mass and valenz                                          
   RCORE  =    1.100    outmost cutoff radius                                                       
   RWIGS  =    0.700; RWIGS  =    0.370    wigner-seitz radius (au A)                               
   ENMAX  =  250.000; ENMIN  =  200.000 eV                                                          
   RCLOC  =    0.701    cutoff for local pot                                                        
   LCOR   =        T    correct aug charges                                                         
   LPAW   =        T    paw PP                                                                      
   EAUG   =  400.000                                                                                
   RMAX   =    1.123    core radius for proj-oper                                                   
   RAUG   =    1.200    factor for augmentation sphere                                              
   RDEP   =    1.112    radius for radial grids                                                     
   RDEPT  =    0.926    core radius for aug-charge                                                  
                                                                                                    
   Atomic configuration                                                                             
    2 entries                                                                                       
     n  l   j            E        occ.                                                              
     1  0  0.50        -6.4927   1.0000                                                             
     2  1  0.50        -3.4015   0.0000                                                             
   Description                                                                                      
     l       E           TYP  RCUT    TYP  RCUT                                                     
     0     -6.4927494     23  1.100                                                                 
     0      6.8029130     23  1.100                                                                 
     1     -4.0817478     23  1.100                                                                 
  local pseudopotential read in
  atomic valenz-charges read in
  non local Contribution for L=           0  read in
    real space projection operators read in
  non local Contribution for L=           0  read in
    real space projection operators read in
  non local Contribution for L=           1  read in
    real space projection operators read in
    PAW grid and wavefunctions read in

   number of l-projection  operators is LMAX  =           3
   number of lm-projection operators is LMMAX =           5

 POTCAR:    PAW_PBE Si 05Jan2001                  
   SHA256 =  79d9987ad8750f624c4d6acb2a16d13abf6a777132adc04dc6c8399be72b42bb Si/POTCAR             
   COPYR  = (c) Copyright 05Jan2001 Georg Kresse                                                    
   COPYR  = This file is part of the software VASP. Any use, copying, and all other rights are regul
   COPYR  = If you do not have a valid VASP license, you may not use, copy or distribute this file. 
   VRHFIN =Si: s2p2                                                                                 
   LEXCH  = PE                                                                                      
   EATOM  =   103.0669 eV,    7.5752 Ry                                                             
                                                                                                    
   TITEL  = PAW_PBE Si 05Jan2001                                                                    
   LULTRA =        F    use ultrasoft PP ?                                                          
   IUNSCR =        1    unscreen: 0-lin 1-nonlin 2-no                                               
   RPACOR =    1.500    partial core radius                                                         
   POMASS =   28.085; ZVAL   =    4.000    mass and valenz                                          
   RCORE  =    1.900    outmost cutoff radius                                                       
   RWIGS  =    2.480; RWIGS  =    1.312    wigner-seitz radius (au A)                               
   ENMAX  =  245.345; ENMIN  =  184.009 eV                                                          
   ICORE  =        2    local potential                                                             
   LCOR   =        T    correct aug charges                                                         
   LPAW   =        T    paw PP                                                                      
   EAUG   =  322.069                                                                                
   DEXC   =    0.000                                                                                
   RMAX   =    1.950    core radius for proj-oper                                                   
   RAUG   =    1.300    factor for augmentation sphere                                              
   RDEP   =    1.993    radius for radial grids                                                     
   RDEPT  =    1.837    core radius for aug-charge                                                  
                                                                                                    
   Atomic configuration                                                                             
    6 entries                                                                                       
     n  l   j            E        occ.                                                              
     1  0  0.50     -1785.8828   2.0000                                                             
     2  0  0.50      -139.4969   2.0000                                                             
     2  1  1.50       -95.5546   6.0000                                                             
     3  0  0.50       -10.8127   2.0000                                                             
     3  1  0.50        -4.0811   2.0000                                                             
     3  2  1.50        -4.0817   0.0000                                                             
   Description                                                                                      
     l       E           TYP  RCUT    TYP  RCUT                                                     
     0    -10.8127223     23  1.900                                                                 
     0     -7.6451159     23  1.900                                                                 
     1     -4.0811372     23  1.900                                                                 
     1      2.4879257     23  1.900                                                                 
     2     -4.0817478      7  1.900                                                                 
  local pseudopotential read in
  partial core-charges read in
  partial kinetic energy density read in
  atomic valenz-charges read in
  non local Contribution for L=           0  read in
    real space projection operators read in
  non local Contribution for L=           0  read in
    real space projection operators read in
  non local Contribution for L=           1  read in
    real space projection operators read in
  non local Contribution for L=           1  read in
    real space projection operators read in
    PAW grid and wavefunctions read in

   number of l-projection  operators is LMAX  =           4
   number of lm-projection operators is LMMAX =           8

 -----------------------------------------------------------------------------
|                                                                             |
|               ----> ADVICE to this user running VASP <----                  |
|                                                                             |
|     You have a (more or less) 'large supercell' and for larger cells it     |
|     might be more efficient to use real-space projection operators.         |
|     Therefore, try LREAL= Auto in the INCAR file.                           |
|     Mind: For very accurate calculation, you might also keep the            |
|     reciprocal projection scheme (i.e. LREAL=.FALSE.).                      |
|                                                                             |
 -----------------------------------------------------------------------------

 -----------------------------------------------------------------------------
|                                                                             |
|               ----> ADVICE to this user running VASP <----                  |
|                                                                             |
|     You enforced a specific xc type in the INCAR file but a different       |
|     type was found in the POTCAR file.                                      |
|     I HOPE YOU KNOW WHAT YOU ARE DOING!                                     |
|                                                                             |
 -----------------------------------------------------------------------------

  PAW_PBE H 15Jun2001                   :
 energy of atom  1       EATOM=  -12.4884
 kinetic energy error for atom=    0.0000 (will be added to EATOM!!)
  PAW_PBE Si 05Jan2001                  :
 energy of atom  2       EATOM= -103.0669
 kinetic energy error for atom=    0.0001 (will be added to EATOM!!)


 POSCAR:  H Si
  positions in cartesian coordinates
  No initial velocities read in


 exchange-correlation table for SCAN
   RHO(1)=    0.500       N(1)  =     2000
   RHO(2)=  100.500       N(2)  =     4000



--------------------------------------------------------------------------------------------------------


 ion  position               nearest neighbor table
   1  0.465  0.355  0.638-  10 0.75
   2  0.653  0.135  0.620-  18 1.49
   3  0.781  0.032  0.670-  13 0.82
   4  0.004  0.046  0.398-  19 1.66 105 1.74
   5  0.491  0.182  0.610-  26 1.50
   6  0.590  0.243  0.675-  18 1.47
   7  0.749  0.212  0.675-  18 1.47
   8  0.561  0.209  0.384-  79 1.49
   9  0.248  0.457  0.548-  49 1.50
  10  0.484  0.335  0.660-   1 0.75
  11  0.287  0.309  0.664-  74 1.48
  12  0.825  0.130  0.591-  97 1.49
  13  0.759  0.988  0.656-   3 0.82  39 1.92
  14  0.833  0.780  0.608-  76 2.35  39 2.36 104 2.42  94 2.52
  15  0.170  0.004  0.636-  93 2.42  81 2.45  72 2.49  25 3.13
  16  0.268  0.763  0.666-  93 2.33  54 2.37  37 2.40
  17  0.947  0.960  0.506-  82 2.29  76 2.33  36 2.35  78 2.37
  18  0.669  0.224  0.644-   6 1.47   7 1.47   2 1.49  86 2.33
  19  0.972  0.134  0.431-   4 1.66  32 2.27  95 2.29  82 2.35
  20  0.604  0.642  0.452-  57 2.33  68 2.35  87 2.38 101 2.39  43 3.11
  21  0.519  0.458  0.366-  34 2.29  33 2.31  68 2.33
  22  0.981  0.369  0.386-  29 2.30  95 2.34  48 2.39  40 2.41
  23  0.447  0.452  0.561-  56 2.37  61 2.40  85 2.41  50 2.43
  24  0.467  0.930  0.646-  53 2.31  77 2.33  93 2.38
  25  0.299  0.926  0.558-  27 2.29  98 2.30  93 2.33  88 2.33  15 3.13
  26  0.458  0.159  0.562-   5 1.50  31 2.45  88 2.45  50 2.50  77 2.54
  27  0.443  0.888  0.532-  25 2.29 111 2.30  77 2.31  69 2.35
  28  0.694  0.100  0.506-  97 2.32  31 2.36  62 2.37  45 2.38
  29  0.956  0.469  0.447-  22 2.30  30 2.34  47 2.36  83 2.38
  30  0.828  0.444  0.495-  89 2.31 109 2.33  29 2.34  64 2.41
  31  0.565  0.196  0.499-  28 2.36  79 2.36  80 2.36  26 2.45
  32  0.831  0.177  0.405-  40 2.26  19 2.27  62 2.28
  33  0.475  0.415  0.440-  51 2.28  21 2.31  61 2.34  80 2.37
  34  0.390  0.545  0.358- 102 2.28  21 2.29  90 2.47
  35  0.152  0.699  0.514-  98 2.31  41 2.34  71 2.39  65 2.39
  36  0.086  0.918  0.470-  73 2.30  98 2.32  17 2.35  58 2.36
  37  0.118  0.733  0.635-  81 2.36  16 2.40  65 2.40  94 2.42
  38  0.287  0.270  0.487-  51 2.32  70 2.34  63 2.37  50 2.43
  39  0.714  0.888  0.619-  13 1.92  53 2.36  14 2.36  45 2.39
  40  0.822  0.325  0.383-  32 2.26 109 2.39  22 2.41
  41  0.209  0.663  0.440-  99 2.32  66 2.32  52 2.34  35 2.34
  42  0.017  0.612  0.356-  52 2.25  48 2.25  83 2.33
  43  0.735  0.636  0.367-  68 2.32  57 2.52  83 2.58  20 3.11
  44  0.049  0.468  0.565-  49 2.30  92 2.32  75 2.34  47 2.34
  45  0.664  0.965  0.550-  77 2.34 108 2.36  28 2.38  39 2.39
  46  0.598  0.878  0.420- 111 2.33  60 2.34  57 2.38 108 2.38
  47  0.096  0.457  0.487-  44 2.34  70 2.36  29 2.36  66 2.40
  48  0.086  0.474  0.351-  42 2.25  22 2.39  90 2.43
  49  0.196  0.463  0.593-   9 1.50  44 2.30  65 2.45  74 2.51
  50  0.370  0.305  0.558-  74 2.36  38 2.43  23 2.43  26 2.50
  51  0.379  0.296  0.422-  33 2.28 107 2.29  38 2.32  79 2.34
  52  0.121  0.718  0.378-  42 2.25  58 2.31  41 2.34
  53  0.580  0.819  0.647-  24 2.31  39 2.36  59 2.38
  54  0.348  0.679  0.608-  65 2.33  85 2.34  16 2.37  69 2.38
  55  0.196  0.052  0.363-  67 2.27 105 2.32  73 2.33 110 2.35
  56  0.607  0.438  0.550-  80 2.32  86 2.33  23 2.37
  57  0.595  0.730  0.385-  20 2.33  46 2.38 102 2.49  43 2.52
  58  0.040  0.846  0.400-  52 2.31 103 2.35  36 2.36 105 2.36
  59  0.576  0.680  0.604-  69 2.36  53 2.38 104 2.42  85 2.43
  60  0.621  0.013  0.377-  46 2.34  62 2.34
  61  0.389  0.512  0.488- 101 2.33  33 2.34  23 2.40  66 2.47
  62  0.736  0.061  0.429-  32 2.28  60 2.34  78 2.36  28 2.37
  63  0.295  0.109  0.476-  88 2.29  73 2.32  38 2.37  91 2.39
  64  0.815  0.532  0.566-  75 2.34 104 2.35  30 2.41 106 2.41
  65  0.202  0.631  0.586-  54 2.33  35 2.39  37 2.40  49 2.45
  66  0.236  0.507  0.452-  41 2.32  90 2.39  47 2.40  61 2.47
  67  0.190  0.207  0.368- 107 2.26  55 2.27  95 2.28
  68  0.647  0.522  0.402-  43 2.32  21 2.33 109 2.33  20 2.35
  69  0.459  0.734  0.554- 101 2.33  27 2.35  59 2.36  54 2.38  85 3.12
  70  0.129  0.299  0.488-  38 2.34  95 2.35  47 2.36  84 2.39
  71  0.989  0.710  0.520-  75 2.35  76 2.38  35 2.39 100 2.40
  72  0.188  0.155  0.597-  88 2.37  84 2.38  74 2.46  15 2.49
  73  0.208  0.998  0.439-  36 2.30  63 2.32  55 2.33  96 2.42 110 3.05
  74  0.252  0.307  0.615-  11 1.48  50 2.36  72 2.46  49 2.51
  75  0.959  0.599  0.577-  64 2.34  44 2.34  71 2.35  94 2.37
  76  0.949  0.844  0.562-  17 2.33  14 2.35  81 2.35  71 2.38
  77  0.516  0.997  0.577-  27 2.31  24 2.33  45 2.34  26 2.54
  78  0.825  0.935  0.453- 103 2.31 108 2.36  62 2.36  17 2.37
  79  0.499  0.190  0.424-   8 1.49  91 2.27  51 2.34  31 2.36
  80  0.599  0.351  0.483-  56 2.32 109 2.36  31 2.36  33 2.37
  81  0.088  0.876  0.600-  98 2.33  76 2.35  37 2.36  15 2.45
  82  0.963  0.116  0.512-  17 2.29  97 2.31  19 2.35  84 2.35
  83  0.890  0.594  0.404- 100 2.31  42 2.33  29 2.38  43 2.58
  84  0.064  0.215  0.552-  82 2.35  72 2.38  70 2.39  92 2.45
  85  0.459  0.566  0.621-  54 2.34  23 2.41  59 2.43  69 3.12
  86  0.703  0.347  0.596-  18 2.33  56 2.33 106 2.34  89 2.37
  87  0.727  0.709  0.495- 108 2.34 104 2.34  20 2.38 100 2.41
  88  0.308  0.085  0.555-  63 2.29  25 2.33  72 2.37  26 2.45
  89  0.827  0.319  0.544-  97 2.29  30 2.31  92 2.34  86 2.37 106 2.67
  90  0.247  0.459  0.372- 107 2.36  66 2.39  48 2.43  34 2.47
  91  0.413  0.060  0.424-  79 2.27 111 2.31  63 2.39 110 2.40  96 2.94
  92  0.967  0.336  0.583-  44 2.32  89 2.34  84 2.45 106 2.50
  93  0.306  0.909  0.639-  25 2.33  16 2.33  24 2.38  15 2.42
  94  0.959  0.689  0.646-  75 2.37  37 2.42  14 2.52
  95  0.073  0.251  0.416-  67 2.28  19 2.29  22 2.34  70 2.35
  96  0.320  0.882  0.420- 111 2.33  99 2.33 110 2.37  73 2.42  91 2.94
  97  0.823  0.162  0.541-  12 1.49  89 2.29  82 2.31  28 2.32
  98  0.170  0.853  0.531-  25 2.30  35 2.31  36 2.32  81 2.33
  99  0.352  0.726  0.426-  41 2.32  96 2.33 102 2.33 101 2.38
 100  0.876  0.709  0.459-  83 2.31 103 2.33  71 2.40  87 2.41
 101  0.452  0.659  0.482-  69 2.33  61 2.33  99 2.38  20 2.39
 102  0.436  0.694  0.358-  34 2.28  99 2.33  57 2.49
 103  0.880  0.825  0.403-  78 2.31 100 2.33  58 2.35
 104  0.731  0.668  0.574-  87 2.34  64 2.35  59 2.42  14 2.42
 105  0.054  0.980  0.355-   4 1.74  55 2.32  58 2.36
 106  0.837  0.414  0.624-  86 2.34  64 2.41  92 2.50  89 2.67
 107  0.301  0.312  0.353-  67 2.26  51 2.29  90 2.36
 108  0.695  0.865  0.486-  87 2.34  78 2.36  45 2.36  46 2.38
 109  0.724  0.401  0.437-  68 2.33  30 2.33  80 2.36  40 2.39
 110  0.343  0.987  0.358-  55 2.35  96 2.37  91 2.40  73 3.05
 111  0.459  0.921  0.454-  27 2.30  91 2.31  96 2.33  46 2.33

  LATTYP: Found a simple tetragonal cell.
 ALAT       =    14.5906239619
 C/A-ratio  =     1.9643590689
  
  Lattice vectors:
  
 A1 = (  14.5906239619,   0.0000000000,   0.0000000000)
 A2 = (   0.0000000000,  14.5906239619,   0.0000000000)
 A3 = (   0.0000000000,   0.0000000000,  28.6612245000)


Analysis of symmetry for initial positions (statically):
=====================================================================
 Subroutine PRICEL returns:
 Original cell was already a primitive cell.
 

 Routine SETGRP: Setting up the symmetry group for a 
 simple tetragonal supercell.


 Subroutine GETGRP returns: Found  1 space group operations
 (whereof  1 operations were pure point group operations)
 out of a pool of 16 trial point group operations.


The static configuration has the point symmetry C_1 .


Analysis of symmetry for dynamics (positions and initial velocities):
=====================================================================
 Subroutine PRICEL returns:
 Original cell was already a primitive cell.
 

 Routine SETGRP: Setting up the symmetry group for a 
 simple tetragonal supercell.


 Subroutine GETGRP returns: Found  1 space group operations
 (whereof  1 operations were pure point group operations)
 out of a pool of 16 trial point group operations.


The dynamic configuration has the point symmetry C_1 .


 Subroutine INISYM returns: Found  1 space group operations
 (whereof  1 operations are pure point group operations),
 and found     1 'primitive' translations


----------------------------------------------------------------------------------------

                                     Primitive cell                                     

  volume of cell :    6101.5823

  direct lattice vectors                    reciprocal lattice vectors
    14.590623962  0.000000000  0.000000000     0.068537165  0.000000000  0.000000000
     0.000000000 14.590623962  0.000000000     0.000000000  0.068537165  0.000000000
     0.000000000  0.000000000 28.661224500     0.000000000  0.000000000  0.034890345

  length of vectors
    14.590623962 14.590623962 28.661224500     0.068537165  0.068537165  0.034890345

  position of ions in fractional coordinates (direct lattice)
     0.464794838  0.355152626  0.638171625
     0.652557485  0.135317647  0.619634795
     0.780871016  0.031517098  0.669833819
     0.003772538  0.045501101  0.398494612
     0.490740582  0.181511986  0.610056907
     0.589683838  0.242698677  0.674800082
     0.749158247  0.212095681  0.674991123
     0.561043914  0.208948255  0.383753720
     0.248135534  0.457186549  0.548414127
     0.483510293  0.334863243  0.660075193
     0.287095684  0.309093832  0.663749715
     0.824765550  0.129971535  0.590636736
     0.758616352  0.987747019  0.656124333
     0.832553822  0.780055601  0.608055097
     0.170112896  0.003906067  0.635995037
     0.267948832  0.763101233  0.665795246
     0.947180913  0.960299958  0.506004576
     0.668746477  0.223524254  0.644401178
     0.972122080  0.134229548  0.430686790
     0.603549068  0.642124450  0.452465605
     0.518926330  0.458098146  0.366035469
     0.981299253  0.368729087  0.386055779
     0.447000012  0.452439541  0.560637191
     0.467157208  0.930385059  0.646330754
     0.299489735  0.925536682  0.558459460
     0.458270002  0.158694197  0.561965626
     0.442648321  0.888009397  0.531887223
     0.693880195  0.100330885  0.506017744
     0.955561323  0.468964476  0.446775468
     0.828346524  0.444320855  0.494860590
     0.564764694  0.196199787  0.498889934
     0.831366401  0.176985603  0.405438475
     0.474711799  0.414863509  0.440237235
     0.389583786  0.545226328  0.358160812
     0.152251248  0.699208940  0.514234008
     0.086135205  0.918014995  0.470188445
     0.118217746  0.733098562  0.635128549
     0.287194561  0.269710563  0.487118732
     0.714167748  0.888213257  0.618906571
     0.822457596  0.324828733  0.382750282
     0.208672846  0.662575796  0.440132712
     0.017134690  0.611963399  0.355965260
     0.734615338  0.635780303  0.367149123
     0.048558999  0.468162268  0.565211454
     0.664079423  0.964692469  0.549526802
     0.597939191  0.878362553  0.419759428
     0.096052505  0.456730606  0.487338446
     0.085888590  0.474212954  0.351178312
     0.196409967  0.463381019  0.593342262
     0.369667345  0.304850699  0.558387738
     0.378766703  0.296372030  0.422161293
     0.120595409  0.717810228  0.378016577
     0.579632660  0.818559291  0.647259757
     0.348017875  0.678987240  0.608152967
     0.195546578  0.051504699  0.362515575
     0.607160312  0.438228165  0.550086561
     0.594533186  0.730423354  0.385071252
     0.039872450  0.846413086  0.400308358
     0.575779909  0.679693184  0.603608886
     0.621420766  0.012761705  0.377029012
     0.389243550  0.511847402  0.488375014
     0.736179895  0.061414798  0.428643125
     0.294702473  0.109219496  0.476126466
     0.815337679  0.531513086  0.565806417
     0.202261142  0.630832270  0.585602566
     0.235916987  0.507222167  0.451644877
     0.189892244  0.206875584  0.367740087
     0.646817414  0.522470608  0.402014431
     0.458853777  0.733723974  0.553959927
     0.129412659  0.298728139  0.488359908
     0.989296957  0.709775924  0.519773574
     0.187878994  0.155274662  0.596710069
     0.207725587  0.997928331  0.439007637
     0.252302620  0.306576554  0.615107086
     0.958946285  0.599007345  0.577295270
     0.948816290  0.844335672  0.561867221
     0.516335555  0.996829035  0.576782544
     0.824907114  0.935324714  0.453241285
     0.498908735  0.189717568  0.423617490
     0.598677678  0.351403814  0.482598646
     0.088303608  0.876224609  0.599558601
     0.963464731  0.116205028  0.511911122
     0.890296419  0.593535157  0.404377659
     0.064326242  0.214680229  0.551932855
     0.458956349  0.565837419  0.621312025
     0.702788785  0.346722823  0.595738454
     0.726623518  0.709072353  0.494902926
     0.308206565  0.084705554  0.554576539
     0.827058072  0.319228638  0.544401554
     0.246753316  0.459295756  0.372275573
     0.412798310  0.060404058  0.423925311
     0.966793368  0.336354737  0.583250407
     0.306139014  0.909253336  0.639197063
     0.959391856  0.689207243  0.645924241
     0.072997914  0.250962990  0.415511343
     0.319663078  0.881559727  0.419878686
     0.823162081  0.162371637  0.541175132
     0.169942992  0.853488892  0.530796225
     0.352057351  0.725727126  0.425811000
     0.876312492  0.708937511  0.459100027
     0.451655044  0.658669769  0.482229572
     0.436088007  0.694391856  0.358409380
     0.880313628  0.824598477  0.403185950
     0.730523404  0.667590310  0.573800489
     0.054167208  0.980412045  0.354766127
     0.837002712  0.414313730  0.623881468
     0.300594886  0.311763996  0.353154543
     0.694832242  0.865192591  0.486396664
     0.724330141  0.401146868  0.437187573
     0.342669962  0.986707265  0.358106460
     0.459253672  0.920597947  0.453732999

  ion indices of the primitive-cell ions
   primitive index   ion index
                 1           1
                 2           2
                 3           3
                 4           4
                 5           5
                 6           6
                 7           7
                 8           8
                 9           9
                10          10
                11          11
                12          12
                13          13
                14          14
                15          15
                16          16
                17          17
                18          18
                19          19
                20          20
                21          21
                22          22
                23          23
                24          24
                25          25
                26          26
                27          27
                28          28
                29          29
                30          30
                31          31
                32          32
                33          33
                34          34
                35          35
                36          36
                37          37
                38          38
                39          39
                40          40
                41          41
                42          42
                43          43
                44          44
                45          45
                46          46
                47          47
                48          48
                49          49
                50          50
                51          51
                52          52
                53          53
                54          54
                55          55
                56          56
                57          57
                58          58
                59          59
                60          60
                61          61
                62          62
                63          63
                64          64
                65          65
                66          66
                67          67
                68          68
                69          69
                70          70
                71          71
                72          72
                73          73
                74          74
                75          75
                76          76
                77          77
                78          78
                79          79
                80          80
                81          81
                82          82
                83          83
                84          84
                85          85
                86          86
                87          87
                88          88
                89          89
                90          90
                91          91
                92          92
                93          93
                94          94
                95          95
                96          96
                97          97
                98          98
                99          99
               100         100
               101         101
               102         102
               103         103
               104         104
               105         105
               106         106
               107         107
               108         108
               109         109
               110         110
               111         111

----------------------------------------------------------------------------------------


 -----------------------------------------------------------------------------
|                                                                             |
|           W    W    AA    RRRRR   N    N  II  N    N   GGGG   !!!           |
|           W    W   A  A   R    R  NN   N  II  NN   N  G    G  !!!           |
|           W    W  A    A  R    R  N N  N  II  N N  N  G       !!!           |
|           W WW W  AAAAAA  RRRRR   N  N N  II  N  N N  G  GGG   !            |
|           WW  WW  A    A  R   R   N   NN  II  N   NN  G    G                |
|           W    W  A    A  R    R  N    N  II  N    N   GGGG   !!!           |
|                                                                             |
|     The requested file  could not be found or opened for reading            |
|     k-point information. Automatic k-point generation is used as a          |
|     fallback, which may lead to unwanted results.                           |
|                                                                             |
 -----------------------------------------------------------------------------



Automatic generation of k-mesh.
 Grid dimensions derived from KSPACING:
 generate k-points for:    2    2    1

 Generating k-lattice:

  Cartesian coordinates                     Fractional coordinates (reciprocal lattice)
     0.034268582  0.000000000  0.000000000     0.500000000  0.000000000  0.000000000
     0.000000000  0.034268582  0.000000000     0.000000000  0.500000000  0.000000000
     0.000000000  0.000000000  0.034890345     0.000000000  0.000000000  1.000000000

  Length of vectors
     0.034268582  0.034268582  0.034890345

  Shift w.r.t. Gamma in fractional coordinates (k-lattice)
     0.000000000  0.000000000  0.000000000

 
 Subroutine IBZKPT returns following result:
 ===========================================
 
 Found      4 irreducible k-points:
 
 Following reciprocal coordinates:
            Coordinates               Weight
  0.000000  0.000000  0.000000      1.000000
  0.500000  0.000000  0.000000      1.000000
  0.000000  0.500000  0.000000      1.000000
  0.500000  0.500000  0.000000      1.000000
 
 Following cartesian coordinates:
            Coordinates               Weight
  0.000000  0.000000  0.000000      1.000000
  0.034269  0.000000  0.000000      1.000000
  0.000000  0.034269  0.000000      1.000000
  0.034269  0.034269  0.000000      1.000000
 


--------------------------------------------------------------------------------------------------------




 Dimension of arrays:
   k-points           NKPTS =      4   k-points in BZ     NKDIM =      4   number of bands    NBANDS=    264
   number of dos      NEDOS =   2000   number of ions     NIONS =    111
   non local maximal  LDIM  =      4   non local SUM 2l+1 LMDIM =      8
   total plane-waves  NPLWV = ******
   max r-space proj   IRMAX =      1   max aug-charges    IRDMAX= 401030
   dimension x,y,z NGX =   168 NGY =  168 NGZ =  324
   dimension x,y,z NGXF=   336 NGYF=  336 NGZF=  648
   support grid    NGXF=   672 NGYF=  672 NGZF= 1296
   ions per type =              13  98
   NGX,Y,Z   is equivalent  to a cutoff of  19.14, 19.14, 18.79 a.u.
   NGXF,Y,Z  is equivalent  to a cutoff of  38.28, 38.28, 37.59 a.u.

 SYSTEM =  a-Si SPC                                
 POSCAR =   H Si                                   

 Startparameter for this run:
   NWRITE =      2    write-flag & timer
   PREC   = accura    normal or accurate (medium, high low for compatibility)
   ISTART =      1    job   : 0-new  1-cont  2-samecut
   ICHARG =      1    charge: 1-file 2-atom 10-const
   ISPIN  =      1    spin polarized calculation?
   LNONCOLLINEAR =      F non collinear calculations
   LSORBIT =      F    spin-orbit coupling
   INIWAV =      1    electr: 0-lowe 1-rand  2-diag
   LASPH  =      T    aspherical Exc in radial PAW
 Electronic Relaxation 1
   ENCUT  = 1200.0 eV  88.20 Ry    9.39 a.u.  41.21 41.21 80.95*2*pi/ulx,y,z
   ENINI  = 1200.0     initial cutoff
   ENAUG  =  400.0 eV  augmentation charge cutoff
   NELM   =    150;   NELMIN=  2; NELMDL=  0     # of ELM steps 
   EDIFF  = 0.1E-05   stopping-criterion for ELM
   LREAL  =      F    real-space projection
   NLSPLINE    = F    spline interpolate recip. space projectors
   LCOMPAT=      F    compatible to vasp.4.4
   GGA_COMPAT  = T    GGA compatible to vasp.4.4-vasp.4.6
   LMAXPAW     = -100 max onsite density
   LMAXMIX     =    2 max onsite mixed and CHGCAR
   VOSKOWN=      0    Vosko Wilk Nusair interpolation
   ROPT   =    0.00000   0.00000
 Ionic relaxation
   EDIFFG = -.1E-01   stopping-criterion for IOM
   NSW    =      0    number of steps for IOM
   NBLOCK =      1;   KBLOCK =      1    inner block; outer block 
   IBRION =     -1    ionic relax: 0-MD 1-quasi-New 2-CG
   NFREE  =      0    steps in history (QN), initial steepest desc. (CG)
   ISIF   =      2    stress and relaxation
   IWAVPR =     10    prediction:  0-non 1-charg 2-wave 3-comb
   ISYM   =      1    0-nonsym 1-usesym 2-fastsym
   LCORR  =      T    Harris-Foulkes like correction to forces

   POTIM  = 0.5000    time-step for ionic-motion
   TEIN   =    0.0    initial temperature
   TEBEG  =    0.0;   TEEND  =   0.0 temperature during run
   SMASS  =  -3.00    Nose mass-parameter (am)
   estimated Nose-frequenzy (Omega)   =  0.10E-29 period in steps = 0.13E+47 mass=  -0.487E-26a.u.
   SCALEE = 1.0000    scale energy and forces
   NPACO  =    256;   APACO  = 10.0  distance and # of slots for P.C.
   PSTRESS=    0.0 pullay stress

  Mass of Ions in am
   POMASS =   1.00 28.09
  Ionic Valenz
   ZVAL   =   1.00  4.00
  Atomic Wigner-Seitz radii
   RWIGS  =  -1.00 -1.00
  virtual crystal weights 
   VCA    =   1.00  1.00
   NELECT =     405.0000    total number of electrons
   NUPDOWN=      -1.0000    fix difference up-down

 DOS related values:
   EMIN   =  10.00;   EMAX   =-10.00  energy-range for DOS
   EFERMI =   0.00;   METHOD = LEGACY      
   ISMEAR =     0;   SIGMA  =   0.10  broadening in eV -4-tet -1-fermi 0-gaus
   EFERMI_NEDOS =   21; number of points for ismear=-14 and -15

 Electronic relaxation 2 (details)
   IALGO  =     38    algorithm
   LDIAG  =      F    sub-space diagonalisation (order eigenvalues)
   LSUBROT=      F    optimize rotation matrix (better conditioning)
   TURBO    =      0    0=normal 1=particle mesh
   IRESTART =      0    0=no restart 2=restart with 2 vectors
   NREBOOT  =      0    no. of reboots
   NMIN     =      0    reboot dimension
   EREF     =   0.00    reference energy to select bands
   IMIX   =      4    mixing-type and parameters
     AMIX     =   0.40;   BMIX     =  1.00
     AMIX_MAG =   1.60;   BMIX_MAG =  1.00
     AMIN     =   0.10
     WC   =   100.;   INIMIX=   1;  MIXPRE=   1;  MAXMIX= -45

 Intra band minimization:
   WEIMIN = 0.0000     energy-eigenvalue tresh-hold
   EBREAK =  0.95E-09  absolut break condition
   DEPER  =   0.30     relativ break condition  

   TIME   =   0.40     timestep for ELM

  volume/ion in A,a.u.               =      54.97       370.95
  Fermi-wavevector in a.u.,A,eV,Ry     =   0.662846  1.252596  5.977913  0.439364
  Thomas-Fermi vector in A             =   1.736041

 Write flags
   LWAVE        =      F    write WAVECAR
   LDOWNSAMPLE  =      F    k-point downsampling of WAVECAR
   LCHARG       =      F    write CHGCAR
   LVTOT        =      F    write LOCPOT, total local potential
   LVHAR        =      F    write LOCPOT, Hartree potential only
   WRT_POTENTIAL= false  ! write potential to hdf5 file
   LELF         =      F    write electronic localiz. function (ELF)
   LORBIT       =     11    0 simple, 1 ext, 2 COOP (PROOUT), +10 PAW based schemes


 Python interface
   PLUGINS active      =      F    recompile with -DPLUGINS to activate

 Dipole corrections
   LMONO      =      F    monopole corrections only (constant potential shift)
   LDIPOL     =      F    correct potential (dipole corrections)
   IDIPOL     =      0    1-x, 2-y, 3-z, 4-all directions 
   EPSILON    =  1.0000000 bulk dielectric constant
   LVACPOTAV  =      F  vacuum potentials using an averaging scheme for the charge density
   VACPOTFLAT =  0.1000000 required flatness to determine vacuum potential

Coulomb truncation method
  LTRUNCATE          =      F  Coulomb kernel truncation to be used
  IDIMENSIONALITY    =      3  Dimensionality of cutoff (0 molecules / 2 surfaces)
  ISURFACE           =     -1  Direction of surface normal
  LCOARSEN           =      F  Coarsen the charge grid before padding, preferred


 Exchange correlation treatment:
   METAGGA = SCAN    functional components
   XC_C    = 1    coefficients multiplying the functional components
   LIBXC   =     F    Libxc                    
   VOSKOWN =     0    Vosko Wilk Nusair interpolation
   LHFCALC =     F    Hartree Fock is set to
   LHFONE  =     F    Hartree Fock one center treatment
   AEXX    =    0.0000 exact exchange contribution

 Parameters of functionals:
   SCAN:
     P1 =  0.000000E+00
     P2 =  0.000000E+00
     P3 =  0.000000E+00

 Accuracy and mixing parameters for tau-dependent meta-GGA functionals:
   LMAXTAU = 6
   LMIXTAU = T

 Van der Waals corrections
   IVDW    =     0    specifies the selected vdW correction

 Linear response parameters
   LEPSILON=     F    determine dielectric tensor
   LRPA    =     F    only Hartree local field effects (RPA)
   LNABLA  =     F    use nabla operator in PAW spheres
   LVEL    =     F    velocity operator in full k-point grid
   CSHIFT  =0.1000    complex shift for real part using Kramers Kronig
   OMEGAMAX=  -1.0    maximum frequency
   DEG_THRESHOLD= 0.2000000E-02 threshold for treating states as degnerate
   RTIME   =   -0.100 relaxation time in fs
  (WPLASMAI=    0.000 imaginary part of plasma frequency in eV, 0.658/RTIME)
   DFIELD  = 0.0000000 0.0000000 0.0000000 field for delta impulse in time

  Optional k-point grid parameters
   LKPOINTS_OPT  =     F    use optional k-point grid
   KPOINTS_OPT_MODE=     1    mode for optional k-point grid

 Orbital magnetization related:
   ORBITALMAG=     F  switch on orbital magnetization
   LCHIMAG   =     F  perturbation theory with respect to B field
   DQ        =  0.001000  dq finite difference perturbation B field
   LLRAUG    =     F  two centre corrections for induced B field
   LBONE     =     F  B-component reconstruction in AE one-centre
   LVGVCALC  =     T  calculate vGv susceptibility
   LVGVAPPL  =     F  apply vGv susceptibility instead of pGv for G=0

 Random number generation:
   RANDOM_GENERATOR = DEFAULT
   PCG_SEED         = not used


--------------------------------------------------------------------------------------------------------


 Static calculation
 charge density and potential will be updated during run
 non-spin polarized calculation
 Variant of blocked Davidson
 perform Loewdin sub-space diagonalisation
    ordering is kept fixed
    before iterative eigenvector-optimisation
 modified Broyden-mixing scheme, WC =      100.0
 initial mixing is a Kerker type mixing with AMIX =  0.4000 and BMIX =      1.0000
 Hartree-type preconditioning will be used
 using additional bands           61
 reciprocal scheme for non local part
 use partial core corrections
 calculate Harris-corrections to forces   (improved forces if not selfconsistent)
 use gradient corrections 
 use of overlap-Matrix (Vanderbilt PP)
 Gauss-broadening in eV      SIGMA  =   0.10


--------------------------------------------------------------------------------------------------------


  energy-cutoff  :     1200.00
  volume of cell :     6101.58
      direct lattice vectors                 reciprocal lattice vectors
    14.590623962  0.000000000  0.000000000     0.068537165  0.000000000  0.000000000
     0.000000000 14.590623962  0.000000000     0.000000000  0.068537165  0.000000000
     0.000000000  0.000000000 28.661224500     0.000000000  0.000000000  0.034890345

  length of vectors
    14.590623962 14.590623962 28.661224500     0.068537165  0.068537165  0.034890345



 old parameters found on file WAVECAR:
  energy-cutoff  :     1200.00
  volume of cell :     6101.58
      direct lattice vectors                 reciprocal lattice vectors
    14.590623962  0.000000000  0.000000000     0.068537165  0.000000000  0.000000000
     0.000000000 14.590623962  0.000000000     0.000000000  0.068537165  0.000000000
     0.000000000  0.000000000 28.661224500     0.000000000  0.000000000  0.034890345

  length of vectors


 k-points in units of 2pi/SCALE and weight: read from INCAR                         
   0.00000000  0.00000000  0.00000000       0.250
   0.03426858  0.00000000  0.00000000       0.250
   0.00000000  0.03426858  0.00000000       0.250
   0.03426858  0.03426858  0.00000000       0.250

 k-points in reciprocal lattice and weights: read from INCAR                         
   0.00000000  0.00000000  0.00000000       0.250
   0.50000000  0.00000000  0.00000000       0.250
   0.00000000  0.50000000  0.00000000       0.250
   0.50000000  0.50000000  0.00000000       0.250

 position of ions in fractional coordinates (direct lattice) 
   0.46479484  0.35515263  0.63817162
   0.65255749  0.13531765  0.61963480
   0.78087102  0.03151710  0.66983382
   0.00377254  0.04550110  0.39849461
   0.49074058  0.18151199  0.61005691
   0.58968384  0.24269868  0.67480008
   0.74915825  0.21209568  0.67499112
   0.56104391  0.20894825  0.38375372
   0.24813553  0.45718655  0.54841413
   0.48351029  0.33486324  0.66007519
   0.28709568  0.30909383  0.66374971
   0.82476555  0.12997153  0.59063674
   0.75861635  0.98774702  0.65612433
   0.83255382  0.78005560  0.60805510
   0.17011290  0.00390607  0.63599504
   0.26794883  0.76310123  0.66579525
   0.94718091  0.96029996  0.50600458
   0.66874648  0.22352425  0.64440118
   0.97212208  0.13422955  0.43068679
   0.60354907  0.64212445  0.45246560
   0.51892633  0.45809815  0.36603547
   0.98129925  0.36872909  0.38605578
   0.44700001  0.45243954  0.56063719
   0.46715721  0.93038506  0.64633075
   0.29948974  0.92553668  0.55845946
   0.45827000  0.15869420  0.56196563
   0.44264832  0.88800940  0.53188722
   0.69388020  0.10033089  0.50601774
   0.95556132  0.46896448  0.44677547
   0.82834652  0.44432086  0.49486059
   0.56476469  0.19619979  0.49888993
   0.83136640  0.17698560  0.40543847
   0.47471180  0.41486351  0.44023724
   0.38958379  0.54522633  0.35816081
   0.15225125  0.69920894  0.51423401
   0.08613521  0.91801500  0.47018845
   0.11821775  0.73309856  0.63512855
   0.28719456  0.26971056  0.48711873
   0.71416775  0.88821326  0.61890657
   0.82245760  0.32482873  0.38275028
   0.20867285  0.66257580  0.44013271
   0.01713469  0.61196340  0.35596526
   0.73461534  0.63578030  0.36714912
   0.04855900  0.46816227  0.56521145
   0.66407942  0.96469247  0.54952680
   0.59793919  0.87836255  0.41975943
   0.09605250  0.45673061  0.48733845
   0.08588859  0.47421295  0.35117831
   0.19640997  0.46338102  0.59334226
   0.36966734  0.30485070  0.55838774
   0.37876670  0.29637203  0.42216129
   0.12059541  0.71781023  0.37801658
   0.57963266  0.81855929  0.64725976
   0.34801788  0.67898724  0.60815297
   0.19554658  0.05150470  0.36251558
   0.60716031  0.43822816  0.55008656
   0.59453319  0.73042335  0.38507125
   0.03987245  0.84641309  0.40030836
   0.57577991  0.67969318  0.60360889
   0.62142077  0.01276170  0.37702901
   0.38924355  0.51184740  0.48837501
   0.73617990  0.06141480  0.42864313
   0.29470247  0.10921950  0.47612647
   0.81533768  0.53151309  0.56580642
   0.20226114  0.63083227  0.58560257
   0.23591699  0.50722217  0.45164488
   0.18989224  0.20687558  0.36774009
   0.64681741  0.52247061  0.40201443
   0.45885378  0.73372397  0.55395993
   0.12941266  0.29872814  0.48835991
   0.98929696  0.70977592  0.51977357
   0.18787899  0.15527466  0.59671007
   0.20772559  0.99792833  0.43900764
   0.25230262  0.30657655  0.61510709
   0.95894629  0.59900734  0.57729527
   0.94881629  0.84433567  0.56186722
   0.51633555  0.99682904  0.57678254
   0.82490711  0.93532471  0.45324129
   0.49890873  0.18971757  0.42361749
   0.59867768  0.35140381  0.48259865
   0.08830361  0.87622461  0.59955860
   0.96346473  0.11620503  0.51191112
   0.89029642  0.59353516  0.40437766
   0.06432624  0.21468023  0.55193285
   0.45895635  0.56583742  0.62131203
   0.70278879  0.34672282  0.59573845
   0.72662352  0.70907235  0.49490293
   0.30820656  0.08470555  0.55457654
   0.82705807  0.31922864  0.54440155
   0.24675332  0.45929576  0.37227557
   0.41279831  0.06040406  0.42392531
   0.96679337  0.33635474  0.58325041
   0.30613901  0.90925334  0.63919706
   0.95939186  0.68920724  0.64592424
   0.07299791  0.25096299  0.41551134
   0.31966308  0.88155973  0.41987869
   0.82316208  0.16237164  0.54117513
   0.16994299  0.85348889  0.53079623
   0.35205735  0.72572713  0.42581100
   0.87631249  0.70893751  0.45910003
   0.45165504  0.65866977  0.48222957
   0.43608801  0.69439186  0.35840938
   0.88031363  0.82459848  0.40318595
   0.73052340  0.66759031  0.57380049
   0.05416721  0.98041205  0.35476613
   0.83700271  0.41431373  0.62388147
   0.30059489  0.31176400  0.35315454
   0.69483224  0.86519259  0.48639666
   0.72433014  0.40114687  0.43718757
   0.34266996  0.98670726  0.35810646
   0.45925367  0.92059795  0.45373300

 position of ions in cartesian coordinates  (Angst):
   6.78164670  5.18189842 18.29078021
   9.52122088  1.97436890 17.75949197
  11.39339536  0.45985413 19.19825745
   0.05504369  0.66388946 11.42134354
   7.16021130  2.64837313 17.48497798
   8.60385514  3.54112513 19.34059663
  10.93068627  3.09460833 19.34607210
   8.18598078  3.04868541 10.99885153
   3.62045227  6.67063702 15.71822041
   7.05471687  4.88586365 18.91856329
   4.18890517  4.50987187 19.02387959
  12.03384400  1.89636579 16.92837209
  11.06868592 14.41184532 18.80532680
  12.14747974 11.38149794 17.42760364
   2.48205329  0.05699195 18.22839653
   3.90954065 11.13412314 19.08250701
  13.81996052 14.01137558 14.50271074
   9.75742837  3.26135833 18.46932684
  14.18386771  1.95849286 12.34401079
   8.80615749  9.36899639 12.96821828
   7.57145894  6.68393778 10.49102475
  14.31776839  5.37998745 11.06483135
   6.52200909  6.60137521 16.06854840
   6.81611516 13.57489854 18.52463084
   4.36974211 13.50415769 16.00613195
   6.68644527  2.31544736 16.10662298
   6.45851520 12.95661119 15.24453911
  10.12414500  1.46389022 14.50308815
  13.94223593  6.84248432 12.80513199
  12.08609264  6.48291852 14.18331048
   8.24026927  2.86267731 14.29879641
  12.13015453  2.58233038 11.62036314
   6.92634135  6.05311746 12.61773823
   5.68427052  7.95519233 10.26532743
   2.22144071 10.20189471 14.73857635
   1.25676639 13.39441159 13.47617659
   1.72487068 10.69636545 18.20356192
   4.19034784  3.93524541 13.96141933
  10.42015305 12.95958563 17.73862017
  12.00016951  4.73945390 10.97009177
   3.04466703  9.66739429 12.61474246
   0.25000582  8.92892783 10.20240024
  10.71849615  9.27643132 10.52294343
   0.70850609  6.83077960 16.19965237
   9.68933314 14.07546505 15.75011105
   8.72430589 12.81585771 12.03081920
   1.40146598  6.66398452 13.96771662
   1.25316812  6.91906289 10.06520044
   2.86574397  6.76101820 17.00591579
   5.39367722  4.44796191 16.00407633
   5.52644253  4.32425284 12.09965960
   1.75956226 10.47329912 10.83441798
   8.45720218 11.94329081 18.55125721
   5.07779795  9.90684749 17.43040873
   2.85314659  0.75148570 10.39014028
   8.85884779  6.39402236 15.76615442
   8.67461015 10.65733249 11.03661361
   0.58176393 12.34969506 11.47332771
   8.40098813  9.91714765 17.30016978
   9.06691672  0.18620124 10.80611316
   5.67930627  7.46817297 13.99742592
  10.74132402  0.89608022 12.28543685
   4.29989296  1.59358060 13.64636752
  11.89628548  7.75510757 16.21670475
   2.95111627  9.20423644 16.78408662
   3.44217605  7.40068790 12.94469522
   2.77064632  3.01844386 10.53988119
   9.43746966  7.62317217 11.52222585
   6.69496292 10.70549060 15.87716982
   1.88821145  4.35862995 13.99699296
  14.43445988 10.35607361 14.89734710
   2.74127175  2.26555420 17.10244124
   3.03084592 14.56039701 12.58249645
   3.68125266  4.47314321 17.62972228
  13.99162465  8.73989092 16.54598933
  13.84382169 12.31938429 16.10380256
   7.53365792 14.54435761 16.53129399
  12.03590951 13.64697118 12.99045023
   7.27938974  2.76809769 12.14139598
   8.73508087  5.12720091 13.83186814
   1.28840474 12.78466378 17.18408367
  14.05755159  1.69550387 14.67199960
  12.98998027  8.66004829 11.58995888
   0.93856001  3.13231849 15.81907146
   6.69645951  8.25592101 17.80756344
  10.25412689  5.05890233 17.07459358
  10.60189052 10.34580807 14.18452388
   4.49692609  1.23590689 15.89484269
  12.06729333  4.65774502 15.60321515
   3.60028484  6.70141166 10.66987376
   6.02298491  0.88133289 12.15021852
  14.10611848  4.90762548 16.71667086
   4.46675924 13.26657351 18.32017052
  13.99812580 10.05596372 18.51297967
   1.06508511  3.66170662 11.90906389
   4.66408377 12.86250648 12.03423729
  12.01044839  2.36910350 15.51074196
   2.47957429 12.45293548 15.21326977
   5.13673642 10.58881160 12.20426467
  12.78594605 10.34384064 13.15836895
   6.58992891  9.61040292 13.82129002
   6.36279613 10.13161045 10.27245169
  12.84432512 12.03140630 11.55580302
  10.65879228  9.74055917 16.44582464
   0.79033336 14.30482348 10.16803162
  12.21239183  6.04509583 17.88120682
   4.38586695  4.54883123 10.12184163
  10.13803596 12.62369975 13.94072398
  10.56842871  5.85298310 12.53033117
   4.99976856 14.39667466 10.26376964
   6.70079763 13.43209847 13.00454335



--------------------------------------------------------------------------------------------------------


 k-point     1 :   0.0000 0.0000 0.0000  plane waves:  575953
 k-point     2 :   0.5000 0.0000 0.0000  plane waves:  575966
 k-point     3 :   0.0000 0.5000 0.0000  plane waves:  575966
 k-point     4 :   0.5000 0.5000 0.0000  plane waves:  576116

 maximum and minimum number of plane-waves per node :     36052    35947

 maximum number of plane-waves:    576116
 maximum index in each direction: 
   IXMAX=   41   IYMAX=   41   IZMAX=   80
   IXMIN=  -41   IYMIN=  -41   IZMIN=  -80


 parallel 3D FFT for wavefunctions:
    minimum data exchange during FFTs selected (reduces bandwidth)
 parallel 3D FFT for charge:
    minimum data exchange during FFTs selected (reduces bandwidth)


 total amount of memory used by VASP MPI-rank0   383877. kBytes
=======================================================================

   base                                    :      30000. kBytes
   nonl-proj                               :      82404. kBytes
   fftplans                                :     110229. kBytes
   grid                                    :      85039. kBytes
   one-center                              :         21. kBytes
   wavefun                                 :      76184. kBytes

     INWAV:  cpu time     21.8836: real time     21.9003
 Broyden mixing: mesh for mixing (old mesh)
   NGX = 83   NGY = 83   NGZ =161
  (NGX  =336   NGY  =336   NGZ  =648)
  gives a total of ****** points

 initial charge density was supplied:
 number of electron     404.9999999 magnetization 
 keeping initial charge density in first step


--------------------------------------------------------------------------------------------------------


 Maximum index for augmentation-charges        11175 (set IRDMAX)


--------------------------------------------------------------------------------------------------------


 First call to EWALD:  gamma=   0.097
 Maximum number of real-space cells   3x   3x   2
 Maximum number of reciprocal cells   2x   2x   4

    FEWALD:  cpu time      0.0160: real time      0.0160


--------------------------------------- Ionic step        1  -------------------------------------------




--------------------------------------- Iteration      1(   1)  ---------------------------------------


    POTLOK:  cpu time      2.2173: real time      2.2180
    SETDIJ:  cpu time      1.7331: real time      1.7343
    EDDIAG:  cpu time     42.9484: real time     42.9733
     EDDAV:  cpu time    204.7564: real time    204.8706
       DOS:  cpu time      0.0070: real time      0.0071
    CHARGE:  cpu time     24.7364: real time     24.7592
    MIXING:  cpu time      0.0507: real time      0.0525
    --------------------------------------------
      LOOP:  cpu time    276.4494: real time    276.6151

 eigenvalue-minimisations  :  2112
 total energy-change (2. order) :-0.1040674E+04  (-0.1116559E+01)
 number of electron     404.9999999 magnetization 
 augmentation part      -21.9508202 magnetization 

 Broyden mixing:
  rms(total) = 0.12330E+01    rms(broyden)= 0.29138E+02
  rms(prec ) = 0.12683E+01
  weight for this iteration     100.00
  WARNING: grid for Broyden might be to small

 Free energy of the ion-electron system (eV)
  ---------------------------------------------------
  alpha Z        PSCENC =        56.84572013
  Ewald energy   TEWEN  =     66076.02064988
  -Hartree energ DENC   =    -75282.25028424
  -exchange      EXHF   =         0.00000000
  -V(xc)+E(xc)   XCENC  =      -439.84094310
  PAW double counting   =     37581.85777555   -36605.18255647
  entropy T*S    EENTRO =        -0.16654285
  eigenvalues    EBANDS =     -2690.85608705
  atomic energy  EATOM  =     10262.89861323
  Solvation  Ediel_sol  =         0.00000000
  ---------------------------------------------------
  free energy    TOTEN  =     -1040.67365492 eV

  energy without entropy =    -1040.50711207  energy(sigma->0) =    -1040.59038349


--------------------------------------------------------------------------------------------------------




--------------------------------------- Iteration      1(   2)  ---------------------------------------


    POTLOK:  cpu time      2.1416: real time      2.1572
    SETDIJ:  cpu time      1.7321: real time      1.7327
    EDDIAG:  cpu time     42.8771: real time     42.9022
     EDDAV:  cpu time    206.6777: real time    206.7929
       DOS:  cpu time      0.0087: real time      0.0087
    CHARGE:  cpu time     24.6226: real time     24.6460
    MIXING:  cpu time      0.0441: real time      0.0444
    --------------------------------------------
      LOOP:  cpu time    278.1038: real time    278.2841

 eigenvalue-minimisations  :  2144
 total energy-change (2. order) : 0.7140066E+02  (-0.1097485E+01)
 number of electron     404.9999999 magnetization 
 augmentation part      -21.8614836 magnetization 

 Broyden mixing:
  rms(total) = 0.83776E+00    rms(broyden)= 0.16862E+02
  rms(prec ) = 0.85615E+00
  weight for this iteration     100.00
  WARNING: grid for Broyden might be to small

 eigenvalues of (default mixing * dielectric matrix)
  average eigenvalue GAMMA=   0.6335
  0.6335

 Free energy of the ion-electron system (eV)
  ---------------------------------------------------
  alpha Z        PSCENC =        56.84572013
  Ewald energy   TEWEN  =     66076.02064988
  -Hartree energ DENC   =    -75268.22931679
  -exchange      EXHF   =         0.00000000
  -V(xc)+E(xc)   XCENC  =      -430.06753750
  PAW double counting   =     44878.65912876   -43901.72780403
  entropy T*S    EENTRO =        -0.15584320
  eigenvalues    EBANDS =     -2643.51660640
  atomic energy  EATOM  =     10262.89861323
  Solvation  Ediel_sol  =         0.00000000
  ---------------------------------------------------
  free energy    TOTEN  =      -969.27299591 eV

  energy without entropy =     -969.11715271  energy(sigma->0) =     -969.19507431


--------------------------------------------------------------------------------------------------------




--------------------------------------- Iteration      1(   3)  ---------------------------------------


    POTLOK:  cpu time      2.1247: real time      2.1443
    SETDIJ:  cpu time      1.7258: real time      1.7268
    EDDIAG:  cpu time     42.8921: real time     42.9182
     EDDAV:  cpu time    206.0664: real time    206.1795
       DOS:  cpu time      0.0042: real time      0.0042
    CHARGE:  cpu time     24.6229: real time     24.6465
    MIXING:  cpu time      0.0415: real time      0.0415
    --------------------------------------------
      LOOP:  cpu time    277.4776: real time    277.6611

 eigenvalue-minimisations  :  2136
 total energy-change (2. order) :-0.3752416E+01  (-0.8596544E+00)
 number of electron     404.9999999 magnetization 
 augmentation part      -21.7903200 magnetization 

 Broyden mixing:
  rms(total) = 0.34593E+00    rms(broyden)= 0.25254E+02
  rms(prec ) = 0.43541E+00
  weight for this iteration     100.00
  WARNING: grid for Broyden might be to small

 eigenvalues of (default mixing * dielectric matrix)
  average eigenvalue GAMMA=   0.8003
  0.9736  0.6270

 Free energy of the ion-electron system (eV)
  ---------------------------------------------------
  alpha Z        PSCENC =        56.84572013
  Ewald energy   TEWEN  =     66076.02064988
  -Hartree energ DENC   =    -75270.24741159
  -exchange      EXHF   =         0.00000000
  -V(xc)+E(xc)   XCENC  =      -433.93930491
  PAW double counting   =     53579.93459022   -52603.15482182
  entropy T*S    EENTRO =        -0.16313537
  eigenvalues    EBANDS =     -2641.22031201
  atomic energy  EATOM  =     10262.89861323
  Solvation  Ediel_sol  =         0.00000000
  ---------------------------------------------------
  free energy    TOTEN  =      -973.02541225 eV

  energy without entropy =     -972.86227689  energy(sigma->0) =     -972.94384457


--------------------------------------------------------------------------------------------------------




--------------------------------------- Iteration      1(   4)  ---------------------------------------


    POTLOK:  cpu time      2.1302: real time      2.1500
    SETDIJ:  cpu time      1.7253: real time      1.7262
    EDDIAG:  cpu time     42.9101: real time     42.9347
     EDDAV:  cpu time    219.4915: real time    219.6100
       DOS:  cpu time      0.0038: real time      0.0038
    CHARGE:  cpu time     24.6119: real time     24.6354
    MIXING:  cpu time      0.0425: real time      0.0425
    --------------------------------------------
      LOOP:  cpu time    290.9153: real time    291.1026

 eigenvalue-minimisations  :  2376
 total energy-change (2. order) : 0.3443816E+00  (-0.1088409E+00)
 number of electron     404.9999999 magnetization 
 augmentation part      -21.7807318 magnetization 

 Broyden mixing:
  rms(total) = 0.10782E+00    rms(broyden)= 0.20818E+01
  rms(prec ) = 0.17429E+00
  weight for this iteration     100.00
  WARNING: grid for Broyden might be to small

 eigenvalues of (default mixing * dielectric matrix)
  average eigenvalue GAMMA=   1.0028
  1.7553  0.6535  0.5995

 Free energy of the ion-electron system (eV)
  ---------------------------------------------------
  alpha Z        PSCENC =        56.84572013
  Ewald energy   TEWEN  =     66076.02064988
  -Hartree energ DENC   =    -75273.89152833
  -exchange      EXHF   =         0.00000000
  -V(xc)+E(xc)   XCENC  =      -434.88633490
  PAW double counting   =     60210.29944783   -59233.56643288
  entropy T*S    EENTRO =        -0.16184294
  eigenvalues    EBANDS =     -2636.23932264
  atomic energy  EATOM  =     10262.89861323
  Solvation  Ediel_sol  =         0.00000000
  ---------------------------------------------------
  free energy    TOTEN  =      -972.68103063 eV

  energy without entropy =     -972.51918769  energy(sigma->0) =     -972.60010916


--------------------------------------------------------------------------------------------------------




--------------------------------------- Iteration      1(   5)  ---------------------------------------


    POTLOK:  cpu time      2.1291: real time      2.1483
    SETDIJ:  cpu time      1.7212: real time      1.7219
    EDDIAG:  cpu time     42.8770: real time     42.9017
     EDDAV:  cpu time    229.7902: real time    229.9204
       DOS:  cpu time      0.0038: real time      0.0038
    CHARGE:  cpu time     24.6223: real time     24.6461
    MIXING:  cpu time      0.0432: real time      0.0432
    --------------------------------------------
      LOOP:  cpu time    301.1867: real time    301.3853

 eigenvalue-minimisations  :  2560
 total energy-change (2. order) :-0.6075997E-02  (-0.4266625E-01)
 number of electron     404.9999999 magnetization 
 augmentation part      -21.7839373 magnetization 

 Broyden mixing:
  rms(total) = 0.75848E-01    rms(broyden)= 0.13734E+01
  rms(prec ) = 0.11888E+00
  weight for this iteration     100.00
  WARNING: grid for Broyden might be to small

 eigenvalues of (default mixing * dielectric matrix)
  average eigenvalue GAMMA=   1.0295
  2.4117  0.7283  0.6205  0.3574

 Free energy of the ion-electron system (eV)
  ---------------------------------------------------
  alpha Z        PSCENC =        56.84572013
  Ewald energy   TEWEN  =     66076.02064988
  -Hartree energ DENC   =    -75274.17880384
  -exchange      EXHF   =         0.00000000
  -V(xc)+E(xc)   XCENC  =      -436.10107687
  PAW double counting   =     59941.55012198   -58964.79842462
  entropy T*S    EENTRO =        -0.15828418
  eigenvalues    EBANDS =     -2634.76562233
  atomic energy  EATOM  =     10262.89861323
  Solvation  Ediel_sol  =         0.00000000
  ---------------------------------------------------
  free energy    TOTEN  =      -972.68710663 eV

  energy without entropy =     -972.52882245  energy(sigma->0) =     -972.60796454


--------------------------------------------------------------------------------------------------------




--------------------------------------- Iteration      1(   6)  ---------------------------------------


    POTLOK:  cpu time      2.1395: real time      2.1462
    SETDIJ:  cpu time      1.7649: real time      1.7662
    EDDIAG:  cpu time     42.8654: real time     42.8937
     EDDAV:  cpu time    216.7916: real time    216.9172
       DOS:  cpu time      0.0064: real time      0.0064
    CHARGE:  cpu time     24.6219: real time     24.6434
    MIXING:  cpu time      0.0432: real time      0.0432
    --------------------------------------------
      LOOP:  cpu time    288.2329: real time    288.4163

 eigenvalue-minimisations  :  2328
 total energy-change (2. order) : 0.1770118E-01  (-0.1321727E-01)
 number of electron     404.9999999 magnetization 
 augmentation part      -21.7829022 magnetization 

 Broyden mixing:
  rms(total) = 0.30269E-01    rms(broyden)= 0.23394E+00
  rms(prec ) = 0.32636E-01
  weight for this iteration     100.00
  WARNING: grid for Broyden might be to small

 eigenvalues of (default mixing * dielectric matrix)
  average eigenvalue GAMMA=   1.0198
  2.5818  0.9142  0.6351  0.6351  0.3329

 Free energy of the ion-electron system (eV)
  ---------------------------------------------------
  alpha Z        PSCENC =        56.84572013
  Ewald energy   TEWEN  =     66076.02064988
  -Hartree energ DENC   =    -75274.90079396
  -exchange      EXHF   =         0.00000000
  -V(xc)+E(xc)   XCENC  =      -436.37614462
  PAW double counting   =     59516.90608299   -58540.12801401
  entropy T*S    EENTRO =        -0.16206606
  eigenvalues    EBANDS =     -2633.77345304
  atomic energy  EATOM  =     10262.89861323
  Solvation  Ediel_sol  =         0.00000000
  ---------------------------------------------------
  free energy    TOTEN  =      -972.66940545 eV

  energy without entropy =     -972.50733940  energy(sigma->0) =     -972.58837242


--------------------------------------------------------------------------------------------------------




--------------------------------------- Iteration      1(   7)  ---------------------------------------


    POTLOK:  cpu time      2.1294: real time      2.1483
    SETDIJ:  cpu time      1.7252: real time      1.7262
    EDDIAG:  cpu time     42.8668: real time     42.8913
     EDDAV:  cpu time    212.7227: real time    212.8392
       DOS:  cpu time      0.0102: real time      0.0105
    CHARGE:  cpu time     24.6350: real time     24.6578
    MIXING:  cpu time      0.0591: real time      0.0594
    --------------------------------------------
      LOOP:  cpu time    284.1485: real time    284.3326

 eigenvalue-minimisations  :  2256
 total energy-change (2. order) :-0.2833853E-03  (-0.2278354E-02)
 number of electron     404.9999999 magnetization 
 augmentation part      -21.7809367 magnetization 

 Broyden mixing:
  rms(total) = 0.18026E-01    rms(broyden)= 0.85073E-01
  rms(prec ) = 0.19170E-01
  weight for this iteration     100.00
  WARNING: grid for Broyden might be to small

 eigenvalues of (default mixing * dielectric matrix)
  average eigenvalue GAMMA=   1.0067
  2.5760  1.1010  0.3310  0.7605  0.6357  0.6357

 Free energy of the ion-electron system (eV)
  ---------------------------------------------------
  alpha Z        PSCENC =        56.84572013
  Ewald energy   TEWEN  =     66076.02064988
  -Hartree energ DENC   =    -75274.43930177
  -exchange      EXHF   =         0.00000000
  -V(xc)+E(xc)   XCENC  =      -436.25897446
  PAW double counting   =     59481.92885533   -58505.13288454
  entropy T*S    EENTRO =        -0.16223027
  eigenvalues    EBANDS =     -2634.37013635
  atomic energy  EATOM  =     10262.89861323
  Solvation  Ediel_sol  =         0.00000000
  ---------------------------------------------------
  free energy    TOTEN  =      -972.66968884 eV

  energy without entropy =     -972.50745856  energy(sigma->0) =     -972.58857370


--------------------------------------------------------------------------------------------------------




--------------------------------------- Iteration      1(   8)  ---------------------------------------


    POTLOK:  cpu time      2.1320: real time      2.1457
    SETDIJ:  cpu time      1.7418: real time      1.7439
    EDDIAG:  cpu time     42.8815: real time     42.9069
     EDDAV:  cpu time    218.0800: real time    218.2028
       DOS:  cpu time      0.0030: real time      0.0030
    CHARGE:  cpu time     24.6159: real time     24.6361
    MIXING:  cpu time      0.0449: real time      0.0450
    --------------------------------------------
      LOOP:  cpu time    289.4991: real time    289.6833

 eigenvalue-minimisations  :  2352
 total energy-change (2. order) :-0.1673294E-02  (-0.5721962E-03)
 number of electron     404.9999999 magnetization 
 augmentation part      -21.7788474 magnetization 

 Broyden mixing:
  rms(total) = 0.70952E-02    rms(broyden)= 0.51525E-01
  rms(prec ) = 0.80454E-02
  weight for this iteration     100.00
  WARNING: grid for Broyden might be to small

 eigenvalues of (default mixing * dielectric matrix)
  average eigenvalue GAMMA=   1.0103
  2.5689  1.3523  0.8589  0.3327  0.7187  0.6393  0.6013

 Free energy of the ion-electron system (eV)
  ---------------------------------------------------
  alpha Z        PSCENC =        56.84572013
  Ewald energy   TEWEN  =     66076.02064988
  -Hartree energ DENC   =    -75274.45865853
  -exchange      EXHF   =         0.00000000
  -V(xc)+E(xc)   XCENC  =      -436.07132346
  PAW double counting   =     59505.63377930   -58528.81992044
  entropy T*S    EENTRO =        -0.16164940
  eigenvalues    EBANDS =     -2634.55857284
  atomic energy  EATOM  =     10262.89861323
  Solvation  Ediel_sol  =         0.00000000
  ---------------------------------------------------
  free energy    TOTEN  =      -972.67136213 eV

  energy without entropy =     -972.50971273  energy(sigma->0) =     -972.59053743


--------------------------------------------------------------------------------------------------------




--------------------------------------- Iteration      1(   9)  ---------------------------------------


    POTLOK:  cpu time      2.1269: real time      2.1456
    SETDIJ:  cpu time      1.7316: real time      1.7324
    EDDIAG:  cpu time     42.8906: real time     42.9143
     EDDAV:  cpu time    219.4566: real time    219.5823
       DOS:  cpu time      0.0051: real time      0.0051
    CHARGE:  cpu time     24.6196: real time     24.6418
    MIXING:  cpu time      0.0454: real time      0.0454
    --------------------------------------------
      LOOP:  cpu time    290.8758: real time    291.0671

 eigenvalue-minimisations  :  2376
 total energy-change (2. order) :-0.2361444E-03  (-0.1122655E-03)
 number of electron     404.9999999 magnetization 
 augmentation part      -21.7788815 magnetization 

 Broyden mixing:
  rms(total) = 0.40453E-02    rms(broyden)= 0.41353E-01
  rms(prec ) = 0.47210E-02
  weight for this iteration     100.00
  WARNING: grid for Broyden might be to small

 eigenvalues of (default mixing * dielectric matrix)
  average eigenvalue GAMMA=   1.0337
  2.5447  1.9802  0.9425  0.3348  0.6785  0.6785  0.6261  0.4845

 Free energy of the ion-electron system (eV)
  ---------------------------------------------------
  alpha Z        PSCENC =        56.84572013
  Ewald energy   TEWEN  =     66076.02064988
  -Hartree energ DENC   =    -75274.50616172
  -exchange      EXHF   =         0.00000000
  -V(xc)+E(xc)   XCENC  =      -436.06795705
  PAW double counting   =     59533.67431499   -58556.85531457
  entropy T*S    EENTRO =        -0.16185201
  eigenvalues    EBANDS =     -2634.51961115
  atomic energy  EATOM  =     10262.89861323
  Solvation  Ediel_sol  =         0.00000000
  ---------------------------------------------------
  free energy    TOTEN  =      -972.67159828 eV

  energy without entropy =     -972.50974626  energy(sigma->0) =     -972.59067227


--------------------------------------------------------------------------------------------------------




--------------------------------------- Iteration      1(  10)  ---------------------------------------


    POTLOK:  cpu time      2.1292: real time      2.1483
    SETDIJ:  cpu time      1.7159: real time      1.7166
    EDDIAG:  cpu time     42.8800: real time     42.9049
     EDDAV:  cpu time    212.2899: real time    212.4092
       DOS:  cpu time      0.0035: real time      0.0035
    CHARGE:  cpu time     24.6176: real time     24.6379
    MIXING:  cpu time      0.0466: real time      0.0466
    --------------------------------------------
      LOOP:  cpu time    283.6826: real time    283.8669

 eigenvalue-minimisations  :  2248
 total energy-change (2. order) :-0.4376156E-04  (-0.6541957E-04)
 number of electron     404.9999999 magnetization 
 augmentation part      -21.7788791 magnetization 

 Broyden mixing:
  rms(total) = 0.21887E-02    rms(broyden)= 0.15026E-01
  rms(prec ) = 0.25624E-02
  weight for this iteration     100.00
  WARNING: grid for Broyden might be to small

 eigenvalues of (default mixing * dielectric matrix)
  average eigenvalue GAMMA=   1.1116
  2.5936  2.5936  1.0109  1.0109  0.3345  0.6620  0.6620  0.6230  0.5140

 Free energy of the ion-electron system (eV)
  ---------------------------------------------------
  alpha Z        PSCENC =        56.84572013
  Ewald energy   TEWEN  =     66076.02064988
  -Hartree energ DENC   =    -75274.38844907
  -exchange      EXHF   =         0.00000000
  -V(xc)+E(xc)   XCENC  =      -436.07559808
  PAW double counting   =     59540.17512495   -58563.35357394
  entropy T*S    EENTRO =        -0.16192479
  eigenvalues    EBANDS =     -2634.63220434
  atomic energy  EATOM  =     10262.89861323
  Solvation  Ediel_sol  =         0.00000000
  ---------------------------------------------------
  free energy    TOTEN  =      -972.67164204 eV

  energy without entropy =     -972.50971725  energy(sigma->0) =     -972.59067964


--------------------------------------------------------------------------------------------------------




--------------------------------------- Iteration      1(  11)  ---------------------------------------


    POTLOK:  cpu time      2.1259: real time      2.1450
    SETDIJ:  cpu time      1.7345: real time      1.7366
    EDDIAG:  cpu time     42.8750: real time     42.9001
     EDDAV:  cpu time    213.1326: real time    213.2486
       DOS:  cpu time      0.0063: real time      0.0063
    CHARGE:  cpu time     24.6210: real time     24.6453
    MIXING:  cpu time      0.0465: real time      0.0465
    --------------------------------------------
      LOOP:  cpu time    284.5419: real time    284.7285

 eigenvalue-minimisations  :  2264
 total energy-change (2. order) :-0.8559779E-04  (-0.2306677E-04)
 number of electron     404.9999999 magnetization 
 augmentation part      -21.7789711 magnetization 

 Broyden mixing:
  rms(total) = 0.10549E-02    rms(broyden)= 0.10821E-01
  rms(prec ) = 0.12750E-02
  weight for this iteration     100.00
  WARNING: grid for Broyden might be to small

 eigenvalues of (default mixing * dielectric matrix)
  average eigenvalue GAMMA=   1.0886
  2.6544  2.6544  1.0207  1.0207  0.3344  0.7462  0.6330  0.6330  0.6174  0.5721

 Free energy of the ion-electron system (eV)
  ---------------------------------------------------
  alpha Z        PSCENC =        56.84572013
  Ewald energy   TEWEN  =     66076.02064988
  -Hartree energ DENC   =    -75274.20447977
  -exchange      EXHF   =         0.00000000
  -V(xc)+E(xc)   XCENC  =      -436.08619790
  PAW double counting   =     59532.54269099   -58555.71902915
  entropy T*S    EENTRO =        -0.16185873
  eigenvalues    EBANDS =     -2634.80783632
  atomic energy  EATOM  =     10262.89861323
  Solvation  Ediel_sol  =         0.00000000
  ---------------------------------------------------
  free energy    TOTEN  =      -972.67172763 eV

  energy without entropy =     -972.50986891  energy(sigma->0) =     -972.59079827


--------------------------------------------------------------------------------------------------------




--------------------------------------- Iteration      1(  12)  ---------------------------------------


    POTLOK:  cpu time      2.1282: real time      2.1463
    SETDIJ:  cpu time      1.7282: real time      1.7295
    EDDIAG:  cpu time     42.9036: real time     42.9280
     EDDAV:  cpu time    210.7817: real time    210.8989
       DOS:  cpu time      0.0055: real time      0.0055
    CHARGE:  cpu time     24.6284: real time     24.6488
    MIXING:  cpu time      0.0479: real time      0.0479
    --------------------------------------------
      LOOP:  cpu time    282.2235: real time    282.4050

 eigenvalue-minimisations  :  2224
 total energy-change (2. order) :-0.6923710E-04  (-0.1388295E-04)
 number of electron     404.9999999 magnetization 
 augmentation part      -21.7789852 magnetization 

 Broyden mixing:
  rms(total) = 0.49135E-03    rms(broyden)= 0.42526E-02
  rms(prec ) = 0.66396E-03
  weight for this iteration     100.00
  WARNING: grid for Broyden might be to small

 eigenvalues of (default mixing * dielectric matrix)
  average eigenvalue GAMMA=   1.1284
  2.7583  2.7583  1.4955  1.0387  0.8985  0.3345  0.7083  0.6131  0.6131  0.6283
  0.5659

 Free energy of the ion-electron system (eV)
  ---------------------------------------------------
  alpha Z        PSCENC =        56.84572013
  Ewald energy   TEWEN  =     66076.02064988
  -Hartree energ DENC   =    -75274.06305641
  -exchange      EXHF   =         0.00000000
  -V(xc)+E(xc)   XCENC  =      -436.08831584
  PAW double counting   =     59530.89342194   -58554.06883377
  entropy T*S    EENTRO =        -0.16188636
  eigenvalues    EBANDS =     -2634.94810966
  atomic energy  EATOM  =     10262.89861323
  Solvation  Ediel_sol  =         0.00000000
  ---------------------------------------------------
  free energy    TOTEN  =      -972.67179687 eV

  energy without entropy =     -972.50991051  energy(sigma->0) =     -972.59085369


--------------------------------------------------------------------------------------------------------




--------------------------------------- Iteration      1(  13)  ---------------------------------------


    POTLOK:  cpu time      2.1244: real time      2.1418
    SETDIJ:  cpu time      1.7279: real time      1.7287
    EDDIAG:  cpu time     42.8734: real time     42.8975
     EDDAV:  cpu time    209.8600: real time    209.9767
       DOS:  cpu time      0.0022: real time      0.0022
    CHARGE:  cpu time     24.6231: real time     24.6444
    MIXING:  cpu time      0.0487: real time      0.0487
    --------------------------------------------
      LOOP:  cpu time    281.2598: real time    281.4402

 eigenvalue-minimisations  :  2208
 total energy-change (2. order) :-0.8234404E-04  (-0.8253968E-05)
 number of electron     404.9999999 magnetization 
 augmentation part      -21.7790229 magnetization 

 Broyden mixing:
  rms(total) = 0.34547E-03    rms(broyden)= 0.18000E-02
  rms(prec ) = 0.49415E-03
  weight for this iteration     100.00
  WARNING: grid for Broyden might be to small

 eigenvalues of (default mixing * dielectric matrix)
  average eigenvalue GAMMA=   1.1541
  2.8290  2.8290  1.8016  1.1392  0.9507  0.3345  0.8641  0.6353  0.6353  0.6499
  0.6153  0.5652

 Free energy of the ion-electron system (eV)
  ---------------------------------------------------
  alpha Z        PSCENC =        56.84572013
  Ewald energy   TEWEN  =     66076.02064988
  -Hartree energ DENC   =    -75273.95907377
  -exchange      EXHF   =         0.00000000
  -V(xc)+E(xc)   XCENC  =      -436.09433925
  PAW double counting   =     59530.92775885   -58554.10322183
  entropy T*S    EENTRO =        -0.16189598
  eigenvalues    EBANDS =     -2635.04609049
  atomic energy  EATOM  =     10262.89861323
  Solvation  Ediel_sol  =         0.00000000
  ---------------------------------------------------
  free energy    TOTEN  =      -972.67187922 eV

  energy without entropy =     -972.50998324  energy(sigma->0) =     -972.59093123


--------------------------------------------------------------------------------------------------------




--------------------------------------- Iteration      1(  14)  ---------------------------------------


    POTLOK:  cpu time      2.1449: real time      2.1461
    SETDIJ:  cpu time      1.7264: real time      1.7273
    EDDIAG:  cpu time     42.8929: real time     42.9174
     EDDAV:  cpu time    208.1990: real time    208.3166
       DOS:  cpu time      0.0171: real time      0.0172
    CHARGE:  cpu time     24.6096: real time     24.6596
    MIXING:  cpu time      0.0618: real time      0.0627
    --------------------------------------------
      LOOP:  cpu time    279.6516: real time    279.8469

 eigenvalue-minimisations  :  2176
[...]
   0.644E+01 -.162E+02 -.176E+03   -.722E+01 0.152E+02 0.173E+03   0.878E+00 0.992E+00 0.241E+01   -.147E-06 0.390E-04 -.604E-04
   0.217E+01 0.285E+02 -.114E+03   -.157E+01 -.288E+02 0.113E+03   -.724E+00 0.567E+00 0.782E+00   0.982E-05 0.153E-04 -.266E-04
   0.639E+01 -.108E+02 0.336E+03   -.607E+01 0.688E+01 -.334E+03   -.388E+00 0.354E+01 -.239E+01   -.269E-04 -.116E-04 -.339E-04
   -.337E+02 -.127E+02 0.221E+03   0.338E+02 0.132E+02 -.220E+03   -.366E-01 -.452E+00 -.550E+00   -.311E-05 0.218E-04 -.220E-04
   -.155E+02 0.375E+02 -.280E+03   0.158E+02 -.350E+02 0.277E+03   -.708E-01 -.230E+01 0.303E+01   -.110E-04 0.138E-04 -.285E-04
   -.222E+01 -.319E+02 -.374E+03   0.983E+00 0.283E+02 0.371E+03   0.932E+00 0.321E+01 0.334E+01   -.391E-04 0.481E-06 -.102E-04
   0.229E+02 0.109E+02 -.402E+03   -.230E+02 -.142E+02 0.404E+03   0.511E-01 0.279E+01 -.156E+01   -.143E-04 -.863E-05 -.199E-04
   0.157E+02 0.693E+01 0.223E+03   -.161E+02 -.756E+01 -.223E+03   0.218E+00 0.635E+00 -.223E-01   -.615E-06 0.299E-05 -.374E-04
   0.130E+02 0.268E+02 0.224E+03   -.106E+02 -.262E+02 -.224E+03   -.241E+01 -.586E+00 0.343E-01   -.201E-04 0.747E-05 -.381E-04
   -.179E+01 0.103E+02 -.132E+03   0.265E+01 -.110E+02 0.133E+03   -.942E+00 0.454E+00 -.757E+00   0.552E-05 0.965E-05 -.395E-04
   -.684E+01 -.104E+02 -.742E+02   0.537E+01 0.104E+02 0.751E+02   0.147E+01 -.253E-01 -.832E+00   -.384E-04 -.135E-04 -.617E-04
   0.903E+00 -.990E+01 0.198E+03   -.201E+01 0.921E+01 -.199E+03   0.956E+00 0.505E+00 0.451E+00   -.679E-05 -.540E-05 -.332E-04
   0.552E+01 0.263E+01 0.102E+03   -.520E+01 -.163E+01 -.105E+03   -.341E+00 -.842E+00 0.286E+01   -.146E-05 -.722E-05 -.435E-04
   -.104E+02 -.272E+01 0.345E+02   0.912E+01 0.228E+01 -.340E+02   0.110E+01 0.500E+00 -.597E+00   0.179E-04 -.839E-05 -.484E-04
   -.854E+01 -.335E+02 0.386E+03   0.628E+01 0.333E+02 -.386E+03   0.226E+01 0.310E+00 -.162E+00   0.115E-04 -.440E-05 -.149E-04
   0.292E+02 -.131E+02 0.309E+03   -.297E+02 0.125E+02 -.309E+03   0.167E+00 0.290E+00 -.740E+00   -.261E-05 -.153E-04 -.254E-04
   0.143E+02 0.152E+02 -.223E+03   -.130E+02 -.155E+02 0.221E+03   -.131E+01 0.306E+00 0.187E+01   0.340E-04 -.720E-05 -.357E-04
   0.396E+02 0.790E+00 0.391E+03   -.420E+02 -.132E+01 -.394E+03   0.176E+01 0.646E+00 0.291E+01   -.190E-04 -.721E-05 -.303E-04
   -.130E+02 -.113E+01 -.385E+03   0.109E+02 0.169E+01 0.386E+03   0.191E+01 -.658E+00 -.815E+00   0.879E-05 0.288E-05 -.390E-04
   -.237E+02 0.135E+02 0.395E+03   0.254E+02 -.137E+02 -.395E+03   -.125E+01 0.363E+00 -.678E+00   -.232E-04 -.246E-05 -.203E-04
   0.251E+01 -.243E+01 0.246E+02   -.103E+01 0.189E+01 -.261E+02   -.143E+01 0.348E+00 0.136E+01   0.272E-04 -.532E-05 -.476E-04
   -.178E+01 0.286E+02 0.186E+03   0.713E+00 -.262E+02 -.184E+03   0.898E+00 -.241E+01 -.201E+01   0.219E-04 0.119E-04 -.202E-04
   -.362E+02 0.850E+01 0.406E+03   0.378E+02 -.910E+01 -.406E+03   -.121E+01 0.540E+00 -.237E+00   -.177E-04 0.948E-05 -.699E-05
   -.299E+02 0.175E+01 0.124E+03   0.281E+02 -.991E+00 -.124E+03   0.177E+01 -.708E+00 0.150E+00   0.214E-04 0.158E-04 -.501E-04
 -----------------------------------------------------------------------------------------------
   0.156E+02 -.836E+01 -.456E+01   0.888E-13 -.386E-13 -.853E-13   -.156E+02 0.835E+01 0.456E+01   -.773E-04 -.592E-04 -.340E-02


 POSITION                                       TOTAL-FORCE (eV/Angst)
 -----------------------------------------------------------------------------------
      6.78165      5.18190     18.29078         0.025527     -0.019462      0.183861
      9.52122      1.97437     17.75949        -0.002744      0.029766      0.046206
     11.39340      0.45985     19.19826        -0.352872     -0.696573     -0.368436
      0.05504      0.66389     11.42134        -0.044310      0.045296      0.095175
      7.16021      2.64837     17.48498         0.109454      0.044939     -0.082876
      8.60386      3.54113     19.34060        -0.067978      0.009848      0.055494
     10.93069      3.09461     19.34607         0.196369     -0.079802      0.070111
      8.18598      3.04869     10.99885         0.203788      0.095400      0.122539
      3.62045      6.67064     15.71822        -0.029872      0.013918     -0.089082
      7.05472      4.88586     18.91856        -0.042490      0.017589      0.004863
      4.18891      4.50987     19.02388         0.066352     -0.068246      0.044135
     12.03384      1.89637     16.92837         0.030844      0.097843      0.044214
     11.06869     14.41185     18.80533         0.602082      1.193853      0.803592
     12.14748     11.38150     17.42760         0.128491     -0.045679      0.125514
      2.48205      0.05699     18.22840         0.203105      0.028022     -0.153738
      3.90954     11.13412     19.08251        -0.067489      0.110625     -0.124386
     13.81996     14.01138     14.50271         0.056914     -0.139025     -0.222619
      9.75743      3.26136     18.46933         0.016454     -0.265864     -0.076055
     14.18387      1.95849     12.34401         0.086620      0.038263     -0.342030
      8.80616      9.36900     12.96822         0.270957     -0.127191      0.190833
      7.57146      6.68394     10.49102        -0.175268     -0.153876     -0.010920
     14.31777      5.37999     11.06483         0.088803     -0.200051      0.075967
      6.52201      6.60138     16.06855         0.095322      0.039527     -0.046126
      6.81612     13.57490     18.52463         0.090683      0.112027     -0.201965
      4.36974     13.50416     16.00613         0.015594      0.070406     -0.107105
      6.68645      2.31545     16.10662        -0.082313      0.102493      0.073801
      6.45852     12.95661     15.24454         0.269094      0.224752     -0.009383
     10.12415      1.46389     14.50309        -0.022759      0.037295     -0.111661
     13.94224      6.84248     12.80513         0.193644      0.159292      0.009355
     12.08609      6.48292     14.18331         0.088209      0.031965     -0.024781
      8.24027      2.86268     14.29880         0.009725      0.020142     -0.003239
     12.13015      2.58233     11.62036        -0.155954      0.552164      0.019676
      6.92634      6.05312     12.61774        -0.003689      0.118676     -0.095354
      5.68427      7.95519     10.26533        -0.180184      0.138739      0.171295
      2.22144     10.20189     14.73858        -0.148289      0.080873     -0.015810
      1.25677     13.39441     13.47618        -0.366614     -0.182409      0.038768
      1.72487     10.69637     18.20356        -0.148542      0.009334      0.105778
      4.19035      3.93525     13.96142         0.003307     -0.001569      0.040321
     10.42015     12.95959     17.73862        -0.470669     -0.808274     -0.705014
     12.00017      4.73945     10.97009         0.205952     -0.471015      0.120440
      3.04467      9.66739     12.61474         0.229343     -0.176261     -0.177426
      0.25001      8.92893     10.20240         0.284423     -0.330857      0.224674
     10.71850      9.27643     10.52294         0.134585      0.034221      0.436869
      0.70851      6.83078     16.19965         0.001023      0.288308     -0.165335
      9.68933     14.07547     15.75011         0.034396      0.031217      0.358521
      8.72431     12.81586     12.03082         0.155363     -0.245289      0.058069
      1.40147      6.66398     13.96772        -0.120484     -0.095393      0.060626
      1.25317      6.91906     10.06520        -0.136265      0.179875      0.091834
      2.86574      6.76102     17.00592         0.024696     -0.378958     -0.050695
      5.39368      4.44796     16.00408        -0.444014     -0.099902     -0.099220
      5.52644      4.32425     12.09966         0.018519     -0.188560      0.103751
      1.75956     10.47330     10.83442        -0.032281      0.189641      0.265087
      8.45720     11.94329     18.55126         0.057005      0.221574     -0.408246
      5.07780      9.90685     17.43041         0.084110     -0.127523     -0.106901
      2.85315      0.75149     10.39014         0.302445     -0.006729     -0.301125
      8.85885      6.39402     15.76615         0.024208      0.411167     -0.020561
      8.67461     10.65733     11.03661         0.008039      0.135484     -0.251872
      0.58176     12.34970     11.47333         0.044566     -0.168758      0.303826
      8.40099      9.91715     17.30017         0.297259     -0.183310      0.038352
      9.06692      0.18620     10.80611        -0.341897      0.059270     -0.245634
      5.67931      7.46817     13.99743        -0.133996     -0.080507     -0.045437
     10.74132      0.89608     12.28544        -0.163337     -0.105815      0.307045
      4.29989      1.59358     13.64637         0.352406      0.141190     -0.123105
     11.89629      7.75511     16.21670         0.267822      0.078327      0.016580
      2.95112      9.20424     16.78409         0.160751     -0.157909      0.229351
      3.44218      7.40069     12.94470        -0.069819      0.213367      0.163617
      2.77065      3.01844     10.53988         0.149267      0.131302      0.363171
      9.43747      7.62317     11.52223         0.205480      0.084794     -0.116238
      6.69496     10.70549     15.87717        -0.085008      0.110424      0.187523
      1.88821      4.35863     13.99699         0.197678      0.217789     -0.024346
     14.43446     10.35607     14.89735         0.051476     -0.072403     -0.005129
      2.74127      2.26555     17.10244        -0.185117     -0.014579      0.110125
      3.03085     14.56040     12.58250         0.182488      0.001374      0.279382
      3.68125      4.47314     17.62972         0.232951      0.120274      0.259085
     13.99162      8.73989     16.54599        -0.080550      0.047020      0.005993
     13.84382     12.31938     16.10380        -0.019352      0.223831      0.001634
      7.53366     14.54436     16.53129        -0.078694     -0.116065     -0.029922
     12.03591     13.64697     12.99045        -0.053624      0.095060     -0.020958
      7.27939      2.76810     12.14140        -0.205360     -0.114243      0.166368
      8.73508      5.12720     13.83187         0.144966     -0.023545     -0.074636
      1.28840     12.78466     17.18408        -0.099019      0.214633      0.101370
     14.05755      1.69550     14.67200        -0.194402     -0.138832      0.163471
     12.98998      8.66005     11.58996        -0.338506      0.357406     -0.332385
      0.93856      3.13232     15.81907        -0.101744     -0.169227     -0.051629
      6.69646      8.25592     17.80756         0.029418     -0.003013     -0.059311
     10.25413      5.05890     17.07459        -0.409911     -0.142601      0.326914
     10.60189     10.34581     14.18452         0.021836     -0.013136     -0.014949
      4.49693      1.23591     15.89484         0.129190      0.068299     -0.059416
     12.06729      4.65775     15.60322        -0.149884      0.320583     -0.000470
      3.60028      6.70141     10.66987        -0.069826     -0.216258      0.022707
      6.02298      0.88133     12.15022        -0.000122     -0.075550     -0.112230
     14.10612      4.90763     16.71667         0.204573      0.214754      0.073316
      4.46676     13.26657     18.32017        -0.259628     -0.215546      0.445213
     13.99813     10.05596     18.51298         0.000568     -0.287090     -0.020732
      1.06509      3.66171     11.90906        -0.237325      0.018894     -0.318759
      4.66408     12.86251     12.03424        -0.037742      0.066111     -0.053372
     12.01045      2.36910     15.51074        -0.122641     -0.217646     -0.114962
      2.47957     12.45294     15.21327         0.064051     -0.013956      0.059476
      5.13674     10.58881     12.20426        -0.097471     -0.153201      0.141217
     12.78595     10.34384     13.15837        -0.051270      0.097400      0.110321
      6.58993      9.61040     13.82129        -0.175915      0.082543     -0.046418
      6.36280     10.13161     10.27245         0.114129     -0.055648     -0.085004
     12.84433     12.03141     11.55580        -0.201200     -0.195625     -0.252587
     10.65879      9.74056     16.44582        -0.089052     -0.000524      0.141461
      0.79033     14.30482     10.16803        -0.403278      0.173704     -0.378702
     12.21239      6.04510     17.88121        -0.118844     -0.200239     -0.398161
      4.38587      4.54883     10.12184         0.241871      0.156651     -0.466186
     10.13804     12.62370     13.94072        -0.001780     -0.160516     -0.081867
     10.56843      5.85298     12.53033        -0.111430     -0.039231     -0.239117
      4.99977     14.39667     10.26377         0.199557      0.011648      0.076057
      6.70080     13.43210     13.00454         0.075083      0.022305      0.008681
 -----------------------------------------------------------------------------------
    total drift:                                0.004433     -0.005773     -0.007344


--------------------------------------------------------------------------------------------------------



  FREE ENERGIE OF THE ION-ELECTRON SYSTEM (eV)
  ---------------------------------------------------
  free  energy   TOTEN  =      -972.67225952 eV

  energy  without entropy=     -972.51036048  energy(sigma->0) =     -972.59131000



--------------------------------------------------------------------------------------------------------


    POTLOK:  cpu time      3.9475: real time      3.9500


--------------------------------------------------------------------------------------------------------


     LOOP+:  cpu time   6676.6650: real time   6681.1861
    4ORBIT:  cpu time      0.0000: real time      0.0000



 total charge

# of ion       s       p       d       tot
------------------------------------------
    1        0.615   0.033   0.000   0.647
    2        0.576   0.015   0.000   0.591
    3        0.550   0.023   0.000   0.573
    4        0.556   0.016   0.000   0.572
    5        0.565   0.016   0.000   0.581
    6        0.582   0.016   0.000   0.597
    7        0.582   0.015   0.000   0.598
    8        0.561   0.016   0.000   0.577
    9        0.573   0.018   0.000   0.591
   10        0.610   0.032   0.000   0.643
   11        0.570   0.016   0.000   0.586
   12        0.565   0.015   0.000   0.581
   13        0.582   0.028   0.000   0.610
   14        0.755   0.894   0.000   1.649
   15        0.800   0.786   0.000   1.586
   16        0.813   0.829   0.000   1.642
   17        0.757   0.953   0.000   1.710
   18        0.734   1.032   0.000   1.766
   19        0.769   0.929   0.000   1.699
   20        0.759   0.923   0.000   1.682
   21        0.810   0.871   0.000   1.681
   22        0.750   0.929   0.000   1.680
   23        0.757   0.887   0.000   1.643
   24        0.782   0.866   0.000   1.648
   25        0.765   0.953   0.000   1.718
   26        0.724   0.926   0.000   1.650
   27        0.765   0.968   0.000   1.734
   28        0.754   0.940   0.000   1.694
   29        0.765   0.930   0.000   1.694
   30        0.762   0.931   0.000   1.693
   31        0.752   0.923   0.000   1.674
   32        0.778   0.927   0.000   1.705
   33        0.761   0.966   0.000   1.727
   34        0.789   0.844   0.000   1.633
   35        0.761   0.921   0.000   1.682
   36        0.768   0.948   0.000   1.716
   37        0.761   0.894   0.000   1.655
   38        0.754   0.938   0.000   1.692
   39        0.790   0.844   0.000   1.634
   40        0.784   0.858   0.000   1.642
   41        0.754   0.951   0.000   1.704
   42        0.777   0.919   0.000   1.696
   43        0.828   0.750   0.000   1.578
   44        0.754   0.969   0.000   1.723
   45        0.749   0.916   0.000   1.665
   46        0.755   0.941   0.000   1.697
   47        0.757   0.926   0.000   1.683
   48        0.781   0.863   0.000   1.644
   49        0.756   0.928   0.000   1.685
   50        0.775   0.878   0.000   1.653
   51        0.761   0.958   0.000   1.719
   52        0.776   0.904   0.000   1.680
   53        0.780   0.861   0.000   1.641
   54        0.754   0.935   0.000   1.689
   55        0.758   0.975   0.000   1.733
   56        0.781   0.884   0.000   1.666
   57        0.779   0.861   0.000   1.641
   58        0.758   0.939   0.000   1.698
   59        0.760   0.873   0.000   1.633
   60        0.880   0.726   0.000   1.606
   61        0.756   0.914   0.000   1.670
   62        0.757   0.961   0.000   1.718
   63        0.758   0.958   0.000   1.715
   64        0.754   0.913   0.000   1.668
   65        0.771   0.879   0.000   1.650
   66        0.759   0.900   0.000   1.658
   67        0.779   0.912   0.000   1.691
   68        0.763   0.944   0.000   1.707
   69        0.762   0.914   0.000   1.676
   70        0.757   0.934   0.000   1.691
   71        0.758   0.921   0.000   1.679
   72        0.753   0.880   0.000   1.633
   73        0.771   0.892   0.000   1.662
   74        0.748   0.913   0.000   1.661
   75        0.754   0.956   0.000   1.710
   76        0.759   0.928   0.000   1.688
   77        0.776   0.908   0.000   1.683
   78        0.760   0.940   0.000   1.701
   79        0.751   0.986   0.000   1.737
   80        0.760   0.931   0.000   1.691
   81        0.763   0.913   0.000   1.676
   82        0.753   0.968   0.000   1.721
   83        0.774   0.880   0.000   1.654
   84        0.755   0.904   0.000   1.659
   85        0.809   0.820   0.000   1.629
   86        0.756   0.940   0.000   1.696
   87        0.749   0.935   0.000   1.683
   88        0.772   0.922   0.000   1.694
   89        0.758   0.970   0.000   1.728
   90        0.751   0.874   0.000   1.625
   91        0.764   0.933   0.000   1.697
   92        0.766   0.892   0.000   1.657
   93        0.756   0.916   0.000   1.672
   94        0.814   0.789   0.000   1.603
   95        0.751   0.990   0.000   1.741
   96        0.764   0.927   0.000   1.691
   97        0.752   0.989   0.000   1.740
   98        0.761   0.970   0.000   1.731
   99        0.757   0.931   0.000   1.689
  100        0.760   0.924   0.000   1.684
  101        0.758   0.929   0.000   1.687
  102        0.804   0.836   0.000   1.640
  103        0.801   0.880   0.000   1.681
  104        0.756   0.903   0.000   1.658
  105        0.852   0.778   0.000   1.630
  106        0.831   0.792   0.000   1.624
  107        0.792   0.899   0.000   1.691
  108        0.760   0.938   0.000   1.698
  109        0.756   0.927   0.000   1.682
  110        0.824   0.817   0.000   1.641
  111        0.759   0.967   0.000   1.726
--------------------------------------------------
tot         82.862  89.363   0.000 172.224


 total amount of memory used by VASP MPI-rank0   383877. kBytes
=======================================================================

   base                                    :      30000. kBytes
   nonl-proj                               :      82404. kBytes
   fftplans                                :     110229. kBytes
   grid                                    :      85039. kBytes
   one-center                              :         21. kBytes
   wavefun                                 :      76184. kBytes

  
  
 General timing and accounting informations for this job:
 ========================================================
  
                  Total CPU time used (sec):     6830.742
                            User time (sec):     6090.400
                          System time (sec):      740.342
                         Elapsed time (sec):     6835.668
  
                   Maximum memory used (kb):      653612.
                   Average memory used (kb):          N/A
  
                          Minor page faults:     10551125
                          Major page faults:         1179
                 Voluntary context switches:         3022
