 vasp.6.5.0 16Dec24 (build Jan 20 2025 08:32:48) complex                         
 executed on        HPECrayEX_GCC date 2025.07.22  11:32:13
 running  128 mpi-ranks, with    1 threads/rank, on    1 nodes
 distrk:  each k-point on  128 cores,    1 groups
 distr:  one band on NCORE=  16 cores,    8 groups


--------------------------------------------------------------------------------------------------------


 INCAR:
   SYSTEM = a-Si SPC
   NCORE = 16
   ISTART = 1
   ICHARG = 1
   ISPIN = 1
   ISYM = 1
   EDIFF = 1E-6
   NELM = 150
   EDIFFG = -0.01
   NSW = 0
   ISIF = 2
   IBRION = -1
   PREC = Accurate
   ENCUT = 1200
   KSPACING = 0.23
   KGAMMA = .TRUE.
   METAGGA = SCAN
   LASPH = .TRUE.
   LDIAG = .FALSE.
   LMIXTAU = .TRUE.
   ADDGRID = .TRUE.
   ALGO = Normal
   ISMEAR = 0
   SIGMA = 0.1
   LORBIT = 11
   NEDOS = 2000
   LWAVE = .FALSE.
   LCHARG = .FALSE.

 POTCAR:    PAW_PBE H 15Jun2001                   
 POTCAR:    PAW_PBE Si 05Jan2001                  
 POTCAR:    PAW_PBE H 15Jun2001                   
   SHA256 =  030f79b5d3ab3cf0e668861823c8fb652ff669f3e15e46930bd03bfd63a607b6 H/POTCAR              
   COPYR  = (c) Copyright 15Jun2001 Georg Kresse                                                    
   COPYR  = This file is part of the software VASP. Any use, copying, and all other rights are regul
   COPYR  = If you do not have a valid VASP license, you may not use, copy or distribute this file. 
   VRHFIN =H: ultrasoft test                                                                        
   LEXCH  = PE                                                                                      
   EATOM  =    12.4884 eV,    0.9179 Ry                                                             
                                                                                                    
   TITEL  = PAW_PBE H 15Jun2001                                                                     
   LULTRA =        F    use ultrasoft PP ?                                                          
   IUNSCR =        0    unscreen: 0-lin 1-nonlin 2-no                                               
   RPACOR =    0.000    partial core radius                                                         
   POMASS =    1.000; ZVAL   =    1.000    mass and valenz                                          
   RCORE  =    1.100    outmost cutoff radius                                                       
   RWIGS  =    0.700; RWIGS  =    0.370    wigner-seitz radius (au A)                               
   ENMAX  =  250.000; ENMIN  =  200.000 eV                                                          
   RCLOC  =    0.701    cutoff for local pot                                                        
   LCOR   =        T    correct aug charges                                                         
   LPAW   =        T    paw PP                                                                      
   EAUG   =  400.000                                                                                
   RMAX   =    1.123    core radius for proj-oper                                                   
   RAUG   =    1.200    factor for augmentation sphere                                              
   RDEP   =    1.112    radius for radial grids                                                     
   RDEPT  =    0.926    core radius for aug-charge                                                  
                                                                                                    
   Atomic configuration                                                                             
    2 entries                                                                                       
     n  l   j            E        occ.                                                              
     1  0  0.50        -6.4927   1.0000                                                             
     2  1  0.50        -3.4015   0.0000                                                             
   Description                                                                                      
     l       E           TYP  RCUT    TYP  RCUT                                                     
     0     -6.4927494     23  1.100                                                                 
     0      6.8029130     23  1.100                                                                 
     1     -4.0817478     23  1.100                                                                 
  local pseudopotential read in
  atomic valenz-charges read in
  non local Contribution for L=           0  read in
    real space projection operators read in
  non local Contribution for L=           0  read in
    real space projection operators read in
  non local Contribution for L=           1  read in
    real space projection operators read in
    PAW grid and wavefunctions read in

   number of l-projection  operators is LMAX  =           3
   number of lm-projection operators is LMMAX =           5

 POTCAR:    PAW_PBE Si 05Jan2001                  
   SHA256 =  79d9987ad8750f624c4d6acb2a16d13abf6a777132adc04dc6c8399be72b42bb Si/POTCAR             
   COPYR  = (c) Copyright 05Jan2001 Georg Kresse                                                    
   COPYR  = This file is part of the software VASP. Any use, copying, and all other rights are regul
   COPYR  = If you do not have a valid VASP license, you may not use, copy or distribute this file. 
   VRHFIN =Si: s2p2                                                                                 
   LEXCH  = PE                                                                                      
   EATOM  =   103.0669 eV,    7.5752 Ry                                                             
                                                                                                    
   TITEL  = PAW_PBE Si 05Jan2001                                                                    
   LULTRA =        F    use ultrasoft PP ?                                                          
   IUNSCR =        1    unscreen: 0-lin 1-nonlin 2-no                                               
   RPACOR =    1.500    partial core radius                                                         
   POMASS =   28.085; ZVAL   =    4.000    mass and valenz                                          
   RCORE  =    1.900    outmost cutoff radius                                                       
   RWIGS  =    2.480; RWIGS  =    1.312    wigner-seitz radius (au A)                               
   ENMAX  =  245.345; ENMIN  =  184.009 eV                                                          
   ICORE  =        2    local potential                                                             
   LCOR   =        T    correct aug charges                                                         
   LPAW   =        T    paw PP                                                                      
   EAUG   =  322.069                                                                                
   DEXC   =    0.000                                                                                
   RMAX   =    1.950    core radius for proj-oper                                                   
   RAUG   =    1.300    factor for augmentation sphere                                              
   RDEP   =    1.993    radius for radial grids                                                     
   RDEPT  =    1.837    core radius for aug-charge                                                  
                                                                                                    
   Atomic configuration                                                                             
    6 entries                                                                                       
     n  l   j            E        occ.                                                              
     1  0  0.50     -1785.8828   2.0000                                                             
     2  0  0.50      -139.4969   2.0000                                                             
     2  1  1.50       -95.5546   6.0000                                                             
     3  0  0.50       -10.8127   2.0000                                                             
     3  1  0.50        -4.0811   2.0000                                                             
     3  2  1.50        -4.0817   0.0000                                                             
   Description                                                                                      
     l       E           TYP  RCUT    TYP  RCUT                                                     
     0    -10.8127223     23  1.900                                                                 
     0     -7.6451159     23  1.900                                                                 
     1     -4.0811372     23  1.900                                                                 
     1      2.4879257     23  1.900                                                                 
     2     -4.0817478      7  1.900                                                                 
  local pseudopotential read in
  partial core-charges read in
  partial kinetic energy density read in
  atomic valenz-charges read in
  non local Contribution for L=           0  read in
    real space projection operators read in
  non local Contribution for L=           0  read in
    real space projection operators read in
  non local Contribution for L=           1  read in
    real space projection operators read in
  non local Contribution for L=           1  read in
    real space projection operators read in
    PAW grid and wavefunctions read in

   number of l-projection  operators is LMAX  =           4
   number of lm-projection operators is LMMAX =           8

 -----------------------------------------------------------------------------
|                                                                             |
|               ----> ADVICE to this user running VASP <----                  |
|                                                                             |
|     You have a (more or less) 'large supercell' and for larger cells it     |
|     might be more efficient to use real-space projection operators.         |
|     Therefore, try LREAL= Auto in the INCAR file.                           |
|     Mind: For very accurate calculation, you might also keep the            |
|     reciprocal projection scheme (i.e. LREAL=.FALSE.).                      |
|                                                                             |
 -----------------------------------------------------------------------------

 -----------------------------------------------------------------------------
|                                                                             |
|               ----> ADVICE to this user running VASP <----                  |
|                                                                             |
|     You enforced a specific xc type in the INCAR file but a different       |
|     type was found in the POTCAR file.                                      |
|     I HOPE YOU KNOW WHAT YOU ARE DOING!                                     |
|                                                                             |
 -----------------------------------------------------------------------------

  PAW_PBE H 15Jun2001                   :
 energy of atom  1       EATOM=  -12.4884
 kinetic energy error for atom=    0.0000 (will be added to EATOM!!)
  PAW_PBE Si 05Jan2001                  :
 energy of atom  2       EATOM= -103.0669
 kinetic energy error for atom=    0.0001 (will be added to EATOM!!)


 POSCAR:  H Si
  positions in cartesian coordinates
  No initial velocities read in


 exchange-correlation table for SCAN
   RHO(1)=    0.500       N(1)  =     2000
   RHO(2)=  100.500       N(2)  =     4000



--------------------------------------------------------------------------------------------------------


 ion  position               nearest neighbor table
   1  0.631  0.937  0.262-  64 1.55
   2  0.787  0.771  0.157-  24 1.47
   3  0.024  0.096  0.786-  26 1.44
   4  0.736  0.862  0.384-  24 1.42
   5  0.987  0.236  0.653-  26 1.52
   6  0.673  0.104  0.991-  17 0.74
   7  0.895  0.102  0.252-  18 0.75
   8  0.019  0.073  0.114-  60 1.53
   9  0.742  0.094  0.375-  10 0.74
  10  0.711  0.069  0.312-   9 0.74
  11  0.901  0.078  0.849-  12 0.75
  12  0.865  0.042  0.865-  11 0.75
  13  0.869  0.870  0.995-  67 1.54
  14  0.594  0.165  0.610-  28 1.43
  15  0.993  0.095  0.462-  26 1.52
  16  0.837  0.134  0.626-  21 0.73
  17  0.690  0.067  0.052-   6 0.74
  18  0.847  0.118  0.267-   7 0.75
  19  0.884  0.966  0.604-  66 1.48
  20  0.716  0.376  0.458-  39 1.51
  21  0.810  0.169  0.578-  16 0.73
  22  0.210  0.475  0.164-  55 2.30  45 2.43  56 2.43  51 2.45
  23  0.362  0.345  0.678-  59 2.23  61 2.30  70 2.34  71 2.37
  24  0.761  0.769  0.352-   4 1.42   2 1.47  46 2.41  27 2.48
  25  0.061  0.751  0.013-  53 2.35  67 2.36  49 2.43  34 2.55
  26  0.039  0.147  0.619-   3 1.44  15 1.52   5 1.52  31 2.26
  27  0.606  0.697  0.347-  58 2.29  48 2.37  62 2.41  24 2.48
  28  0.498  0.171  0.651-  14 1.43  57 2.35  59 2.37  71 2.48
  29  0.387  0.608  0.811-  45 2.35  37 2.35  33 2.44  70 2.47
  30  0.443  0.026  0.067-  50 2.28  64 2.41  57 2.49
  31  0.193  0.167  0.646-  61 2.26  26 2.26  40 2.33  42 2.39
  32  0.343  0.732  0.175-  34 2.30  45 2.41  48 2.43  68 2.45
  33  0.280  0.729  0.723-  68 2.27  29 2.44  69 2.45  34 2.49
  34  0.228  0.805  0.014-  32 2.30  54 2.47  33 2.49  25 2.55
  35  0.449  0.484  0.289-  62 2.23  45 2.33  47 2.40  70 2.50
  36  0.569  0.430  0.761-  71 2.29  52 2.30  39 2.39
  37  0.529  0.678  0.871-  58 2.25  48 2.26  29 2.35  52 2.40
  38  0.242  0.943  0.445-  40 2.24  43 2.35  50 2.45  68 2.47
  39  0.673  0.466  0.515-  20 1.51  36 2.39  62 2.40  44 2.49
  40  0.267  0.028  0.698-  38 2.24  31 2.33  54 2.38  57 2.43
  41  0.890  0.646  0.735-  46 2.29  44 2.41  53 2.43
  42  0.262  0.194  0.351-  59 2.30  31 2.39  56 2.41  50 2.46
  43  0.086  0.908  0.404-  60 2.32  38 2.35  49 2.42  66 2.42
  44  0.770  0.532  0.765-  41 2.41  52 2.44  39 2.49
  45  0.345  0.570  0.115-  35 2.33  29 2.35  32 2.41  22 2.43
  46  0.909  0.745  0.493-  41 2.29  24 2.41  49 2.44  66 2.47
  47  0.426  0.332  0.171-  59 2.32  35 2.40  56 2.42  71 2.45
  48  0.505  0.764  0.127-  37 2.26  64 2.31  27 2.37  32 2.43
  49  0.060  0.747  0.348-  69 2.40  43 2.42  25 2.43  46 2.44
  50  0.306  0.047  0.212-  30 2.28  54 2.29  38 2.45  42 2.46
  51  0.082  0.481  0.945-  53 2.30  65 2.44  22 2.45
  52  0.627  0.549  0.935-  36 2.30  37 2.40  44 2.44  62 2.46
  53  0.050  0.622  0.818-  51 2.30  25 2.35  41 2.43  69 2.44
  54  0.219  0.974  0.993-  50 2.29  40 2.38  60 2.39  34 2.47
  55  0.202  0.507  0.475-  70 2.23  22 2.30  69 2.40  65 2.50
  56  0.261  0.317  0.128-  61 2.35  42 2.41  47 2.42  22 2.43
  57  0.433  0.028  0.725-  28 2.35  40 2.43  30 2.49  63 2.50
  58  0.580  0.762  0.630-  37 2.25  27 2.29  63 2.46
  59  0.401  0.252  0.445-  23 2.23  42 2.30  47 2.32  28 2.37
  60  0.068  0.980  0.120-   8 1.53  43 2.32  54 2.39  67 2.44
  61  0.230  0.292  0.814-  31 2.26  23 2.30  56 2.35  65 2.38
  62  0.592  0.537  0.266-  35 2.23  39 2.40  27 2.41  52 2.46
  63  0.485  0.893  0.536-  64 2.30  58 2.46  68 2.49  57 2.50
  64  0.529  0.912  0.234-   1 1.55  63 2.30  48 2.31  30 2.41
  65  0.122  0.391  0.671-  61 2.38  51 2.44  55 2.50
  66  0.958  0.896  0.615-  19 1.48  67 2.34  43 2.42  46 2.47
  67  0.970  0.879  0.935-  13 1.54  66 2.34  25 2.36  60 2.44
  68  0.340  0.806  0.479-  33 2.27  32 2.45  38 2.47  63 2.49
  69  0.151  0.658  0.558-  49 2.40  55 2.40  53 2.44  33 2.45
  70  0.348  0.496  0.567-  55 2.23  23 2.34  29 2.47  35 2.50
  71  0.490  0.304  0.864-  36 2.29  23 2.37  47 2.45  28 2.48

  LATTYP: Found a simple tetragonal cell.
 ALAT       =    14.5595896387
 C/A-ratio  =     0.4976621123
  
  Lattice vectors:
  
 A1 = (  14.5595896387,   0.0000000000,   0.0000000000)
 A2 = (   0.0000000000,  14.5595896387,   0.0000000000)
 A3 = (   0.0000000000,   0.0000000000,   7.2457561338)


Analysis of symmetry for initial positions (statically):
=====================================================================
 Subroutine PRICEL returns:
 Original cell was already a primitive cell.
 

 Routine SETGRP: Setting up the symmetry group for a 
 simple tetragonal supercell.


 Subroutine GETGRP returns: Found  1 space group operations
 (whereof  1 operations were pure point group operations)
 out of a pool of 16 trial point group operations.


The static configuration has the point symmetry C_1 .


Analysis of symmetry for dynamics (positions and initial velocities):
=====================================================================
 Subroutine PRICEL returns:
 Original cell was already a primitive cell.
 

 Routine SETGRP: Setting up the symmetry group for a 
 simple tetragonal supercell.


 Subroutine GETGRP returns: Found  1 space group operations
 (whereof  1 operations were pure point group operations)
 out of a pool of 16 trial point group operations.


The dynamic configuration has the point symmetry C_1 .


 Subroutine INISYM returns: Found  1 space group operations
 (whereof  1 operations are pure point group operations),
 and found     1 'primitive' translations


----------------------------------------------------------------------------------------

                                     Primitive cell                                     

  volume of cell :    1535.9673

  direct lattice vectors                    reciprocal lattice vectors
    14.559589639  0.000000000  0.000000000     0.068683254  0.000000000  0.000000000
     0.000000000 14.559589639  0.000000000     0.000000000  0.068683254  0.000000000
     0.000000000  0.000000000  7.245756134     0.000000000  0.000000000  0.138011821

  length of vectors
    14.559589639 14.559589639  7.245756134     0.068683254  0.068683254  0.138011821

  position of ions in fractional coordinates (direct lattice)
     0.631278781  0.936901406  0.262234881
     0.787213121  0.771292343  0.157098856
     0.024278432  0.095548709  0.785913836
     0.736119648  0.861652032  0.383707366
     0.986662424  0.235649499  0.653439049
     0.672786132  0.104377255  0.991243684
     0.894990884  0.101949989  0.252102053
     0.019173411  0.073281598  0.113804272
     0.741689860  0.094385902  0.374980878
     0.710878552  0.069390692  0.311524423
     0.901144904  0.078408803  0.848676092
     0.865326586  0.042313280  0.865321698
     0.869296478  0.870223702  0.994783112
     0.593932261  0.165268394  0.610395923
     0.992610393  0.095216969  0.462127063
     0.837180189  0.134245542  0.625912592
     0.689916423  0.067444346  0.051721448
     0.846885132  0.118418173  0.267439307
     0.884090851  0.965975027  0.603964572
     0.716380081  0.375754409  0.458087457
     0.810043435  0.169490354  0.578161882
     0.210051937  0.474552523  0.164021529
     0.362284249  0.345065357  0.678184569
     0.760570887  0.768792272  0.352326238
     0.061129608  0.750728576  0.013021029
     0.039343829  0.146780236  0.619075486
     0.605874906  0.697032008  0.347320549
     0.497761969  0.171300844  0.650734018
     0.386514328  0.608049418  0.811176900
     0.443326368  0.026388793  0.067367848
     0.192517789  0.167112540  0.645795955
     0.342995244  0.732348937  0.174665001
     0.279769561  0.729107088  0.723045311
     0.227971398  0.804658668  0.013745688
     0.448800424  0.484175734  0.289370766
     0.569336788  0.430033411  0.761044106
     0.529148842  0.678064440  0.870996744
     0.241738956  0.943412578  0.445496638
     0.673232573  0.465548835  0.515305778
     0.267316600  0.027776950  0.698386739
     0.890052558  0.645727677  0.735354586
     0.261916723  0.194214265  0.351332553
     0.085663129  0.908418460  0.404289069
     0.770179674  0.532263628  0.765144437
     0.344916315  0.569574432  0.114917475
     0.908713798  0.745185838  0.492888518
     0.425724911  0.332013478  0.171481068
     0.505392678  0.763757790  0.127449086
     0.060263031  0.746793026  0.347769088
     0.305597212  0.046772472  0.212300824
     0.082220724  0.480591842  0.944750261
     0.626501861  0.549219463  0.934562229
     0.050370307  0.621891841  0.817922918
     0.218809052  0.974079651  0.993069580
     0.202396501  0.506604938  0.474875215
     0.261417395  0.316698486  0.127971185
     0.433449030  0.027590269  0.724744237
     0.579953846  0.761580530  0.630208900
     0.400910338  0.252462473  0.445020498
     0.067619694  0.979711678  0.120136116
     0.229982443  0.292037077  0.813908154
     0.591880693  0.537339320  0.265707259
     0.484554179  0.893239461  0.535812954
     0.528850070  0.911612231  0.233988002
     0.121635296  0.391296743  0.671221873
     0.957602539  0.895815083  0.615311904
     0.970192179  0.879296760  0.935151539
     0.340313850  0.806355144  0.478739546
     0.151045466  0.657619496  0.558078401
     0.347955549  0.495702158  0.567366597
     0.489671768  0.304201568  0.863510983

  ion indices of the primitive-cell ions
   primitive index   ion index
                 1           1
                 2           2
                 3           3
                 4           4
                 5           5
                 6           6
                 7           7
                 8           8
                 9           9
                10          10
                11          11
                12          12
                13          13
                14          14
                15          15
                16          16
                17          17
                18          18
                19          19
                20          20
                21          21
                22          22
                23          23
                24          24
                25          25
                26          26
                27          27
                28          28
                29          29
                30          30
                31          31
                32          32
                33          33
                34          34
                35          35
                36          36
                37          37
                38          38
                39          39
                40          40
                41          41
                42          42
                43          43
                44          44
                45          45
                46          46
                47          47
                48          48
                49          49
                50          50
                51          51
                52          52
                53          53
                54          54
                55          55
                56          56
                57          57
                58          58
                59          59
                60          60
                61          61
                62          62
                63          63
                64          64
                65          65
                66          66
                67          67
                68          68
                69          69
                70          70
                71          71

----------------------------------------------------------------------------------------


 -----------------------------------------------------------------------------
|                                                                             |
|           W    W    AA    RRRRR   N    N  II  N    N   GGGG   !!!           |
|           W    W   A  A   R    R  NN   N  II  NN   N  G    G  !!!           |
|           W    W  A    A  R    R  N N  N  II  N N  N  G       !!!           |
|           W WW W  AAAAAA  RRRRR   N  N N  II  N  N N  G  GGG   !            |
|           WW  WW  A    A  R   R   N   NN  II  N   NN  G    G                |
|           W    W  A    A  R    R  N    N  II  N    N   GGGG   !!!           |
|                                                                             |
|     The requested file  could not be found or opened for reading            |
|     k-point information. Automatic k-point generation is used as a          |
|     fallback, which may lead to unwanted results.                           |
|                                                                             |
 -----------------------------------------------------------------------------



Automatic generation of k-mesh.
 Grid dimensions derived from KSPACING:
 generate k-points for:    2    2    4

 Generating k-lattice:

  Cartesian coordinates                     Fractional coordinates (reciprocal lattice)
     0.034341627  0.000000000  0.000000000     0.500000000  0.000000000  0.000000000
     0.000000000  0.034341627  0.000000000     0.000000000  0.500000000  0.000000000
     0.000000000  0.000000000  0.034502955     0.000000000  0.000000000  0.250000000

  Length of vectors
     0.034341627  0.034341627  0.034502955

  Shift w.r.t. Gamma in fractional coordinates (k-lattice)
     0.000000000  0.000000000  0.000000000

 
 Subroutine IBZKPT returns following result:
 ===========================================
 
 Found     12 irreducible k-points:
 
 Following reciprocal coordinates:
            Coordinates               Weight
  0.000000  0.000000  0.000000      1.000000
  0.500000  0.000000  0.000000      1.000000
  0.000000  0.500000  0.000000      1.000000
  0.500000  0.500000  0.000000      1.000000
  0.000000  0.000000  0.250000      2.000000
  0.500000  0.000000  0.250000      2.000000
  0.000000  0.500000  0.250000      2.000000
  0.500000  0.500000  0.250000      2.000000
  0.000000  0.000000  0.500000      1.000000
  0.500000  0.000000  0.500000      1.000000
  0.000000  0.500000  0.500000      1.000000
  0.500000  0.500000  0.500000      1.000000
 
 Following cartesian coordinates:
            Coordinates               Weight
  0.000000  0.000000  0.000000      1.000000
  0.034342  0.000000  0.000000      1.000000
  0.000000  0.034342  0.000000      1.000000
  0.034342  0.034342  0.000000      1.000000
  0.000000  0.000000  0.034503      2.000000
  0.034342  0.000000  0.034503      2.000000
  0.000000  0.034342  0.034503      2.000000
  0.034342  0.034342  0.034503      2.000000
  0.000000  0.000000  0.069006      1.000000
  0.034342  0.000000  0.069006      1.000000
  0.000000  0.034342  0.069006      1.000000
  0.034342  0.034342  0.069006      1.000000
 


--------------------------------------------------------------------------------------------------------




 Dimension of arrays:
   k-points           NKPTS =     12   k-points in BZ     NKDIM =     12   number of bands    NBANDS=    152
   number of dos      NEDOS =   2000   number of ions     NIONS =     71
   non local maximal  LDIM  =      4   non local SUM 2l+1 LMDIM =      8
   total plane-waves  NPLWV = ******
   max r-space proj   IRMAX =      1   max aug-charges    IRDMAX= 413015
   dimension x,y,z NGX =   168 NGY =  168 NGZ =   84
   dimension x,y,z NGXF=   336 NGYF=  336 NGZF=  168
   support grid    NGXF=   672 NGYF=  672 NGZF=  336
   ions per type =              21  50
   NGX,Y,Z   is equivalent  to a cutoff of  19.18, 19.18, 19.27 a.u.
   NGXF,Y,Z  is equivalent  to a cutoff of  38.37, 38.37, 38.55 a.u.

 SYSTEM =  a-Si SPC                                
 POSCAR =   H Si                                   

 Startparameter for this run:
   NWRITE =      2    write-flag & timer
   PREC   = accura    normal or accurate (medium, high low for compatibility)
   ISTART =      1    job   : 0-new  1-cont  2-samecut
   ICHARG =      1    charge: 1-file 2-atom 10-const
   ISPIN  =      1    spin polarized calculation?
   LNONCOLLINEAR =      F non collinear calculations
   LSORBIT =      F    spin-orbit coupling
   INIWAV =      1    electr: 0-lowe 1-rand  2-diag
   LASPH  =      T    aspherical Exc in radial PAW
 Electronic Relaxation 1
   ENCUT  = 1200.0 eV  88.20 Ry    9.39 a.u.  41.12 41.12 20.47*2*pi/ulx,y,z
   ENINI  = 1200.0     initial cutoff
   ENAUG  =  400.0 eV  augmentation charge cutoff
   NELM   =    150;   NELMIN=  2; NELMDL=  0     # of ELM steps 
   EDIFF  = 0.1E-05   stopping-criterion for ELM
   LREAL  =      F    real-space projection
   NLSPLINE    = F    spline interpolate recip. space projectors
   LCOMPAT=      F    compatible to vasp.4.4
   GGA_COMPAT  = T    GGA compatible to vasp.4.4-vasp.4.6
   LMAXPAW     = -100 max onsite density
   LMAXMIX     =    2 max onsite mixed and CHGCAR
   VOSKOWN=      0    Vosko Wilk Nusair interpolation
   ROPT   =    0.00000   0.00000
 Ionic relaxation
   EDIFFG = -.1E-01   stopping-criterion for IOM
   NSW    =      0    number of steps for IOM
   NBLOCK =      1;   KBLOCK =      1    inner block; outer block 
   IBRION =     -1    ionic relax: 0-MD 1-quasi-New 2-CG
   NFREE  =      0    steps in history (QN), initial steepest desc. (CG)
   ISIF   =      2    stress and relaxation
   IWAVPR =     10    prediction:  0-non 1-charg 2-wave 3-comb
   ISYM   =      1    0-nonsym 1-usesym 2-fastsym
   LCORR  =      T    Harris-Foulkes like correction to forces

   POTIM  = 0.5000    time-step for ionic-motion
   TEIN   =    0.0    initial temperature
   TEBEG  =    0.0;   TEEND  =   0.0 temperature during run
   SMASS  =  -3.00    Nose mass-parameter (am)
   estimated Nose-frequenzy (Omega)   =  0.10E-29 period in steps = 0.13E+47 mass=  -0.484E-26a.u.
   SCALEE = 1.0000    scale energy and forces
   NPACO  =    256;   APACO  = 10.0  distance and # of slots for P.C.
   PSTRESS=    0.0 pullay stress

  Mass of Ions in am
   POMASS =   1.00 28.09
  Ionic Valenz
   ZVAL   =   1.00  4.00
  Atomic Wigner-Seitz radii
   RWIGS  =  -1.00 -1.00
  virtual crystal weights 
   VCA    =   1.00  1.00
   NELECT =     221.0000    total number of electrons
   NUPDOWN=      -1.0000    fix difference up-down

 DOS related values:
   EMIN   =  10.00;   EMAX   =-10.00  energy-range for DOS
   EFERMI =   0.00;   METHOD = LEGACY      
   ISMEAR =     0;   SIGMA  =   0.10  broadening in eV -4-tet -1-fermi 0-gaus
   EFERMI_NEDOS =   21; number of points for ismear=-14 and -15

 Electronic relaxation 2 (details)
   IALGO  =     38    algorithm
   LDIAG  =      F    sub-space diagonalisation (order eigenvalues)
   LSUBROT=      F    optimize rotation matrix (better conditioning)
   TURBO    =      0    0=normal 1=particle mesh
   IRESTART =      0    0=no restart 2=restart with 2 vectors
   NREBOOT  =      0    no. of reboots
   NMIN     =      0    reboot dimension
   EREF     =   0.00    reference energy to select bands
   IMIX   =      4    mixing-type and parameters
     AMIX     =   0.40;   BMIX     =  1.00
     AMIX_MAG =   1.60;   BMIX_MAG =  1.00
     AMIN     =   0.10
     WC   =   100.;   INIMIX=   1;  MIXPRE=   1;  MAXMIX= -45

 Intra band minimization:
   WEIMIN = 0.0000     energy-eigenvalue tresh-hold
   EBREAK =  0.16E-08  absolut break condition
   DEPER  =   0.30     relativ break condition  

   TIME   =   0.40     timestep for ELM

  volume/ion in A,a.u.               =      21.63       145.99
  Fermi-wavevector in a.u.,A,eV,Ry     =   0.857850  1.621102 10.012628  0.735907
  Thomas-Fermi vector in A             =   1.974966

 Write flags
   LWAVE        =      F    write WAVECAR
   LDOWNSAMPLE  =      F    k-point downsampling of WAVECAR
   LCHARG       =      F    write CHGCAR
   LVTOT        =      F    write LOCPOT, total local potential
   LVHAR        =      F    write LOCPOT, Hartree potential only
   WRT_POTENTIAL= false  ! write potential to hdf5 file
   LELF         =      F    write electronic localiz. function (ELF)
   LORBIT       =     11    0 simple, 1 ext, 2 COOP (PROOUT), +10 PAW based schemes


 Python interface
   PLUGINS active      =      F    recompile with -DPLUGINS to activate

 Dipole corrections
   LMONO      =      F    monopole corrections only (constant potential shift)
   LDIPOL     =      F    correct potential (dipole corrections)
   IDIPOL     =      0    1-x, 2-y, 3-z, 4-all directions 
   EPSILON    =  1.0000000 bulk dielectric constant
   LVACPOTAV  =      F  vacuum potentials using an averaging scheme for the charge density
   VACPOTFLAT =  0.1000000 required flatness to determine vacuum potential

Coulomb truncation method
  LTRUNCATE          =      F  Coulomb kernel truncation to be used
  IDIMENSIONALITY    =      3  Dimensionality of cutoff (0 molecules / 2 surfaces)
  ISURFACE           =     -1  Direction of surface normal
  LCOARSEN           =      F  Coarsen the charge grid before padding, preferred


 Exchange correlation treatment:
   METAGGA = SCAN    functional components
   XC_C    = 1    coefficients multiplying the functional components
   LIBXC   =     F    Libxc                    
   VOSKOWN =     0    Vosko Wilk Nusair interpolation
   LHFCALC =     F    Hartree Fock is set to
   LHFONE  =     F    Hartree Fock one center treatment
   AEXX    =    0.0000 exact exchange contribution

 Parameters of functionals:
   SCAN:
     P1 =  0.000000E+00
     P2 =  0.000000E+00
     P3 =  0.000000E+00

 Accuracy and mixing parameters for tau-dependent meta-GGA functionals:
   LMAXTAU = 6
   LMIXTAU = T

 Van der Waals corrections
   IVDW    =     0    specifies the selected vdW correction

 Linear response parameters
   LEPSILON=     F    determine dielectric tensor
   LRPA    =     F    only Hartree local field effects (RPA)
   LNABLA  =     F    use nabla operator in PAW spheres
   LVEL    =     F    velocity operator in full k-point grid
   CSHIFT  =0.1000    complex shift for real part using Kramers Kronig
   OMEGAMAX=  -1.0    maximum frequency
   DEG_THRESHOLD= 0.2000000E-02 threshold for treating states as degnerate
   RTIME   =   -0.100 relaxation time in fs
  (WPLASMAI=    0.000 imaginary part of plasma frequency in eV, 0.658/RTIME)
   DFIELD  = 0.0000000 0.0000000 0.0000000 field for delta impulse in time

  Optional k-point grid parameters
   LKPOINTS_OPT  =     F    use optional k-point grid
   KPOINTS_OPT_MODE=     1    mode for optional k-point grid

 Orbital magnetization related:
   ORBITALMAG=     F  switch on orbital magnetization
   LCHIMAG   =     F  perturbation theory with respect to B field
   DQ        =  0.001000  dq finite difference perturbation B field
   LLRAUG    =     F  two centre corrections for induced B field
   LBONE     =     F  B-component reconstruction in AE one-centre
   LVGVCALC  =     T  calculate vGv susceptibility
   LVGVAPPL  =     F  apply vGv susceptibility instead of pGv for G=0

 Random number generation:
   RANDOM_GENERATOR = DEFAULT
   PCG_SEED         = not used


--------------------------------------------------------------------------------------------------------


 Static calculation
 charge density and potential will be updated during run
 non-spin polarized calculation
 Variant of blocked Davidson
 perform Loewdin sub-space diagonalisation
    ordering is kept fixed
    before iterative eigenvector-optimisation
 modified Broyden-mixing scheme, WC =      100.0
 initial mixing is a Kerker type mixing with AMIX =  0.4000 and BMIX =      1.0000
 Hartree-type preconditioning will be used
 using additional bands           41
 reciprocal scheme for non local part
 use partial core corrections
 calculate Harris-corrections to forces   (improved forces if not selfconsistent)
 use gradient corrections 
 use of overlap-Matrix (Vanderbilt PP)
 Gauss-broadening in eV      SIGMA  =   0.10


--------------------------------------------------------------------------------------------------------


  energy-cutoff  :     1200.00
  volume of cell :     1535.97
      direct lattice vectors                 reciprocal lattice vectors
    14.559589639  0.000000000  0.000000000     0.068683254  0.000000000  0.000000000
     0.000000000 14.559589639  0.000000000     0.000000000  0.068683254  0.000000000
     0.000000000  0.000000000  7.245756134     0.000000000  0.000000000  0.138011821

  length of vectors
    14.559589639 14.559589639  7.245756134     0.068683254  0.068683254  0.138011821



 old parameters found on file WAVECAR:
  energy-cutoff  :     1200.00
  volume of cell :     1535.97
      direct lattice vectors                 reciprocal lattice vectors
    14.559589639  0.000000000  0.000000000     0.068683254  0.000000000  0.000000000
     0.000000000 14.559589639  0.000000000     0.000000000  0.068683254  0.000000000
     0.000000000  0.000000000  7.245756134     0.000000000  0.000000000  0.138011821

  length of vectors


 k-points in units of 2pi/SCALE and weight: read from INCAR                         
   0.00000000  0.00000000  0.00000000       0.062
   0.03434163  0.00000000  0.00000000       0.062
   0.00000000  0.03434163  0.00000000       0.062
   0.03434163  0.03434163  0.00000000       0.062
   0.00000000  0.00000000  0.03450296       0.125
   0.03434163  0.00000000  0.03450296       0.125
   0.00000000  0.03434163  0.03450296       0.125
   0.03434163  0.03434163  0.03450296       0.125
   0.00000000  0.00000000  0.06900591       0.062
   0.03434163  0.00000000  0.06900591       0.062
   0.00000000  0.03434163  0.06900591       0.062
   0.03434163  0.03434163  0.06900591       0.062

 k-points in reciprocal lattice and weights: read from INCAR                         
   0.00000000  0.00000000  0.00000000       0.062
   0.50000000  0.00000000  0.00000000       0.062
   0.00000000  0.50000000  0.00000000       0.062
   0.50000000  0.50000000  0.00000000       0.062
   0.00000000  0.00000000  0.25000000       0.125
   0.50000000  0.00000000  0.25000000       0.125
   0.00000000  0.50000000  0.25000000       0.125
   0.50000000  0.50000000  0.25000000       0.125
   0.00000000  0.00000000  0.50000000       0.062
   0.50000000  0.00000000  0.50000000       0.062
   0.00000000  0.50000000  0.50000000       0.062
   0.50000000  0.50000000  0.50000000       0.062

 position of ions in fractional coordinates (direct lattice) 
   0.63127878  0.93690141  0.26223488
   0.78721312  0.77129234  0.15709886
   0.02427843  0.09554871  0.78591384
   0.73611965  0.86165203  0.38370737
   0.98666242  0.23564950  0.65343905
   0.67278613  0.10437725  0.99124368
   0.89499088  0.10194999  0.25210205
   0.01917341  0.07328160  0.11380427
   0.74168986  0.09438590  0.37498088
   0.71087855  0.06939069  0.31152442
   0.90114490  0.07840880  0.84867609
   0.86532659  0.04231328  0.86532170
   0.86929648  0.87022370  0.99478311
   0.59393226  0.16526839  0.61039592
   0.99261039  0.09521697  0.46212706
   0.83718019  0.13424554  0.62591259
   0.68991642  0.06744435  0.05172145
   0.84688513  0.11841817  0.26743931
   0.88409085  0.96597503  0.60396457
   0.71638008  0.37575441  0.45808746
   0.81004343  0.16949035  0.57816188
   0.21005194  0.47455252  0.16402153
   0.36228425  0.34506536  0.67818457
   0.76057089  0.76879227  0.35232624
   0.06112961  0.75072858  0.01302103
   0.03934383  0.14678024  0.61907549
   0.60587491  0.69703201  0.34732055
   0.49776197  0.17130084  0.65073402
   0.38651433  0.60804942  0.81117690
   0.44332637  0.02638879  0.06736785
   0.19251779  0.16711254  0.64579595
   0.34299524  0.73234894  0.17466500
   0.27976956  0.72910709  0.72304531
   0.22797140  0.80465867  0.01374569
   0.44880042  0.48417573  0.28937077
   0.56933679  0.43003341  0.76104411
   0.52914884  0.67806444  0.87099674
   0.24173896  0.94341258  0.44549664
   0.67323257  0.46554884  0.51530578
   0.26731660  0.02777695  0.69838674
   0.89005256  0.64572768  0.73535459
   0.26191672  0.19421426  0.35133255
   0.08566313  0.90841846  0.40428907
   0.77017967  0.53226363  0.76514444
   0.34491631  0.56957443  0.11491748
   0.90871380  0.74518584  0.49288852
   0.42572491  0.33201348  0.17148107
   0.50539268  0.76375779  0.12744909
   0.06026303  0.74679303  0.34776909
   0.30559721  0.04677247  0.21230082
   0.08222072  0.48059184  0.94475026
   0.62650186  0.54921946  0.93456223
   0.05037031  0.62189184  0.81792292
   0.21880905  0.97407965  0.99306958
   0.20239650  0.50660494  0.47487521
   0.26141740  0.31669849  0.12797119
   0.43344903  0.02759027  0.72474424
   0.57995385  0.76158053  0.63020890
   0.40091034  0.25246247  0.44502050
   0.06761969  0.97971168  0.12013612
   0.22998244  0.29203708  0.81390815
   0.59188069  0.53733932  0.26570726
   0.48455418  0.89323946  0.53581295
   0.52885007  0.91161223  0.23398800
   0.12163530  0.39129674  0.67122187
   0.95760254  0.89581508  0.61531190
   0.97019218  0.87929676  0.93515154
   0.34031385  0.80635514  0.47873955
   0.15104547  0.65761950  0.55807840
   0.34795555  0.49570216  0.56736660
   0.48967177  0.30420157  0.86351098

 position of ions in cartesian coordinates  (Angst):
   9.19116000 13.64090000  1.90009000
  11.46150000 11.22970000  1.13830000
   0.35348400  1.39115000  5.69454000
  10.71760000 12.54530000  2.78025000
  14.36540000  3.43096000  4.73466000
   9.79549000  1.51969000  7.18231000
  13.03070000  1.48435000  1.82667000
   0.27915700  1.06695000  0.82459800
  10.79870000  1.37422000  2.71702000
  10.35010000  1.01030000  2.25723000
  13.12030000  1.14160000  6.14930000
  12.59880000  0.61606400  6.26991000
  12.65660000 12.67010000  7.20795583
   8.64741000  2.40624000  4.42278000
  14.45200000  1.38632000  3.34846000
  12.18900000  1.95456000  4.53521000
  10.04490000  0.98196200  0.37476100
  12.33030000  1.72412000  1.93780000
  12.87200000 14.06420000  4.37618000
  10.43020000  5.47083000  3.31919000
  11.79390000  2.46771000  4.18922000
   3.05827000  6.90929000  1.18846000
   5.27471000  5.02401000  4.91396000
  11.07360000 11.19330000  2.55287000
   0.89002200 10.93030000  0.09434720
   0.57283000  2.13706000  4.48567000
   8.82129000 10.14850000  2.51660000
   7.24721000  2.49407000  4.71506000
   5.62749000  8.85295000  5.87759000
   6.45465000  0.38421000  0.48813100
   2.80298000  2.43309000  4.67928000
   4.99387000 10.66270000  1.26558000
   4.07333000 10.61550000  5.23901000
   3.31917000 11.71550000  0.09959790
   6.53435000  7.04940000  2.09671000
   8.28931000  6.26111000  5.51434000
   7.70419000  9.87234000  6.31103000
   3.51962000 13.73570000  3.22796000
   9.80199000  6.77820000  3.73378000
   3.89202000  0.40442100  5.06034000
  12.95880000  9.40153000  5.32820000
   3.81340000  2.82768000  2.54567000
   1.24722000 13.22620000  2.92938000
  11.21350000  7.74954000  5.54405000
   5.02184000  8.29277000  0.83266400
  13.23050000 10.84960000  3.57135000
   6.19838000  4.83398000  1.24251000
   7.35831000 11.12000000  0.92346500
   0.87740500 10.87300000  2.51985000
   4.44937000  0.68098800  1.53828000
   1.19710000  6.99722000  6.84543000
   9.12161000  7.99641000  6.77161000
   0.73337100  9.05449000  5.92647000
   3.18577000 14.18220000  7.19554000
   2.94681000  7.37596000  3.44083000
   3.80613000  4.61100000  0.92724800
   6.31084000  0.40170300  5.25132000
   8.44389000 11.08830000  4.56634000
   5.83709000  3.67575000  3.22451000
   0.98451500 14.26420000  0.87047700
   3.34845000  4.25194000  5.89738000
   8.61754000  7.82344000  1.92525000
   7.05491000 13.00520000  3.88237000
   7.69984000 13.27270000  1.69542000
   1.77096000  5.69712000  4.86351000
  13.94230000 13.04270000  4.45840000
  14.12560000 12.80220000  6.77588000
   4.95483000 11.74020000  3.46883000
   2.19916000  9.57467000  4.04370000
   5.06609000  7.21722000  4.11100000
   7.12942000  4.42905000  6.25679000



--------------------------------------------------------------------------------------------------------


 k-point     1 :   0.0000 0.0000 0.0000  plane waves:  145009
 k-point     2 :   0.5000 0.0000 0.0000  plane waves:  144970
 k-point     3 :   0.0000 0.5000 0.0000  plane waves:  144970
 k-point     4 :   0.5000 0.5000 0.0000  plane waves:  145164
 k-point     5 :   0.0000 0.0000 0.2500  plane waves:  144913
 k-point     6 :   0.5000 0.0000 0.2500  plane waves:  145000
 k-point     7 :   0.0000 0.5000 0.2500  plane waves:  145000
 k-point     8 :   0.5000 0.5000 0.2500  plane waves:  145052
 k-point     9 :   0.0000 0.0000 0.5000  plane waves:  144896
 k-point    10 :   0.5000 0.0000 0.5000  plane waves:  144984
 k-point    11 :   0.0000 0.5000 0.5000  plane waves:  144984
 k-point    12 :   0.5000 0.5000 0.5000  plane waves:  144816

 maximum and minimum number of plane-waves per node :      9150     8986

 maximum number of plane-waves:    145164
 maximum index in each direction: 
   IXMAX=   41   IYMAX=   41   IZMAX=   20
   IXMIN=  -41   IYMIN=  -41   IZMIN=  -20


 parallel 3D FFT for wavefunctions:
    minimum data exchange during FFTs selected (reduces bandwidth)
 parallel 3D FFT for charge:
    minimum data exchange during FFTs selected (reduces bandwidth)


 total amount of memory used by VASP MPI-rank0   138513. kBytes
=======================================================================

   base                                    :      30000. kBytes
   nonl-proj                               :      24304. kBytes
   fftplans                                :      28726. kBytes
   grid                                    :      22140. kBytes
   one-center                              :         15. kBytes
   wavefun                                 :      33328. kBytes

     INWAV:  cpu time      5.9262: real time      5.9279
 Broyden mixing: mesh for mixing (old mesh)
   NGX = 83   NGY = 83   NGZ = 41
  (NGX  =336   NGY  =336   NGZ  =168)
  gives a total of 282449 points

 initial charge density was supplied:
 number of electron     220.9999999 magnetization 
 keeping initial charge density in first step


--------------------------------------------------------------------------------------------------------


 Maximum index for augmentation-charges        11444 (set IRDMAX)


--------------------------------------------------------------------------------------------------------


 First call to EWALD:  gamma=   0.154
 Maximum number of real-space cells   2x   2x   4
 Maximum number of reciprocal cells   3x   3x   2

    FEWALD:  cpu time      0.0124: real time      0.0125


--------------------------------------- Ionic step        1  -------------------------------------------




--------------------------------------- Iteration      1(   1)  ---------------------------------------


    POTLOK:  cpu time      0.5034: real time      0.5042
    SETDIJ:  cpu time      0.9794: real time      0.9802
    EDDIAG:  cpu time     11.3615: real time     11.3718
     EDDAV:  cpu time     55.1052: real time     55.1550
       DOS:  cpu time      0.0093: real time      0.0097
    CHARGE:  cpu time      4.1873: real time      4.1906
    MIXING:  cpu time      0.0186: real time      0.0186
    --------------------------------------------
      LOOP:  cpu time     72.1649: real time     72.2302

 eigenvalue-minimisations  :  3936
 total energy-change (2. order) :-0.5895418E+03  (-0.6510313E+00)
 number of electron     220.9999999 magnetization 
 augmentation part      -10.7466687 magnetization 

 Broyden mixing:
  rms(total) = 0.89950E+00    rms(broyden)= 0.43363E+02
  rms(prec ) = 0.10035E+01
  weight for this iteration     100.00
  WARNING: grid for Broyden might be to small

 Free energy of the ion-electron system (eV)
  ---------------------------------------------------
  alpha Z        PSCENC =        67.90551415
  Ewald energy   TEWEN  =     -2759.48799255
  -Hartree energ DENC   =     -2963.39981598
  -exchange      EXHF   =         0.00000000
  -V(xc)+E(xc)   XCENC  =      -179.96599392
  PAW double counting   =     19344.31768870   -18846.21273056
  entropy T*S    EENTRO =        -0.10165477
  eigenvalues    EBANDS =      -668.19416652
  atomic energy  EATOM  =      5415.59739267
  Solvation  Ediel_sol  =         0.00000000
  ---------------------------------------------------
  free energy    TOTEN  =      -589.54175878 eV

  energy without entropy =     -589.44010401  energy(sigma->0) =     -589.49093140


--------------------------------------------------------------------------------------------------------




--------------------------------------- Iteration      1(   2)  ---------------------------------------


    POTLOK:  cpu time      0.4994: real time      0.5223
    SETDIJ:  cpu time      1.0017: real time      1.0021
    EDDIAG:  cpu time     11.4564: real time     11.4655
     EDDAV:  cpu time     53.4203: real time     53.4670
       DOS:  cpu time      0.0037: real time      0.0037
    CHARGE:  cpu time      4.1476: real time      4.1507
    MIXING:  cpu time      0.0112: real time      0.0115
    --------------------------------------------
      LOOP:  cpu time     70.5404: real time     70.6229

 eigenvalue-minimisations  :  3728
 total energy-change (2. order) : 0.3984797E+02  (-0.6170084E+00)
 number of electron     220.9999999 magnetization 
 augmentation part      -10.7072873 magnetization 

 Broyden mixing:
  rms(total) = 0.60484E+00    rms(broyden)= 0.25010E+02
  rms(prec ) = 0.66319E+00
  weight for this iteration     100.00
  WARNING: grid for Broyden might be to small

 eigenvalues of (default mixing * dielectric matrix)
  average eigenvalue GAMMA=   0.6342
  0.6342

 Free energy of the ion-electron system (eV)
  ---------------------------------------------------
  alpha Z        PSCENC =        67.90551415
  Ewald energy   TEWEN  =     -2759.48799255
  -Hartree energ DENC   =     -2956.45839698
  -exchange      EXHF   =         0.00000000
  -V(xc)+E(xc)   XCENC  =      -175.57536886
  PAW double counting   =     23131.22182900   -22632.95494498
  entropy T*S    EENTRO =        -0.10330510
  eigenvalues    EBANDS =      -639.83851207
  atomic energy  EATOM  =      5415.59739267
  Solvation  Ediel_sol  =         0.00000000
  ---------------------------------------------------
  free energy    TOTEN  =      -549.69378473 eV

  energy without entropy =     -549.59047963  energy(sigma->0) =     -549.64213218


--------------------------------------------------------------------------------------------------------




--------------------------------------- Iteration      1(   3)  ---------------------------------------


    POTLOK:  cpu time      0.5105: real time      0.5379
    SETDIJ:  cpu time      0.9786: real time      0.9799
    EDDIAG:  cpu time     11.4886: real time     11.4984
     EDDAV:  cpu time     52.9291: real time     52.9756
       DOS:  cpu time      0.0036: real time      0.0036
    CHARGE:  cpu time      4.1251: real time      4.1284
    MIXING:  cpu time      0.0094: real time      0.0094
    --------------------------------------------
      LOOP:  cpu time     70.0449: real time     70.1332

 eigenvalue-minimisations  :  3648
 total energy-change (2. order) :-0.1681436E+01  (-0.4863195E+00)
 number of electron     220.9999999 magnetization 
 augmentation part      -10.6708086 magnetization 

 Broyden mixing:
  rms(total) = 0.40298E+00    rms(broyden)= 0.14104E+02
  rms(prec ) = 0.47691E+00
  weight for this iteration     100.00
  WARNING: grid for Broyden might be to small

 eigenvalues of (default mixing * dielectric matrix)
  average eigenvalue GAMMA=   0.5029
  0.6410  0.3648

 Free energy of the ion-electron system (eV)
  ---------------------------------------------------
  alpha Z        PSCENC =        67.90551415
  Ewald energy   TEWEN  =     -2759.48799255
  -Hartree energ DENC   =     -2957.69399661
  -exchange      EXHF   =         0.00000000
  -V(xc)+E(xc)   XCENC  =      -178.05817337
  PAW double counting   =     25850.99819970   -25352.77517713
  entropy T*S    EENTRO =        -0.08215136
  eigenvalues    EBANDS =      -637.77883604
  atomic energy  EATOM  =      5415.59739267
  Solvation  Ediel_sol  =         0.00000000
  ---------------------------------------------------
  free energy    TOTEN  =      -551.37522053 eV

  energy without entropy =     -551.29306917  energy(sigma->0) =     -551.33414485


--------------------------------------------------------------------------------------------------------




--------------------------------------- Iteration      1(   4)  ---------------------------------------


    POTLOK:  cpu time      0.4901: real time      0.5181
    SETDIJ:  cpu time      0.9801: real time      0.9812
    EDDIAG:  cpu time     11.4852: real time     11.4946
     EDDAV:  cpu time     58.8368: real time     58.8876
       DOS:  cpu time      0.0033: real time      0.0033
    CHARGE:  cpu time      4.1376: real time      4.1413
    MIXING:  cpu time      0.0095: real time      0.0095
    --------------------------------------------
      LOOP:  cpu time     75.9426: real time     76.0356

 eigenvalue-minimisations  :  4352
 total energy-change (2. order) :-0.3096292E+00  (-0.3752832E+00)
 number of electron     220.9999999 magnetization 
 augmentation part      -10.6721191 magnetization 

 Broyden mixing:
  rms(total) = 0.25042E+00    rms(broyden)= 0.62249E+01
  rms(prec ) = 0.48081E+00
  weight for this iteration     100.00
  WARNING: grid for Broyden might be to small

 eigenvalues of (default mixing * dielectric matrix)
  average eigenvalue GAMMA=   0.6065
  0.8692  0.6266  0.3235

 Free energy of the ion-electron system (eV)
  ---------------------------------------------------
  alpha Z        PSCENC =        67.90551415
  Ewald energy   TEWEN  =     -2759.48799255
  -Hartree energ DENC   =     -2961.48631676
  -exchange      EXHF   =         0.00000000
  -V(xc)+E(xc)   XCENC  =      -178.31613514
  PAW double counting   =     29423.12742612   -28924.93559346
  entropy T*S    EENTRO =        -0.06555228
  eigenvalues    EBANDS =      -634.02359248
  atomic energy  EATOM  =      5415.59739267
  Solvation  Ediel_sol  =         0.00000000
  ---------------------------------------------------
  free energy    TOTEN  =      -551.68484973 eV

  energy without entropy =     -551.61929744  energy(sigma->0) =     -551.65207358


--------------------------------------------------------------------------------------------------------




--------------------------------------- Iteration      1(   5)  ---------------------------------------


    POTLOK:  cpu time      0.5200: real time      0.5460
    SETDIJ:  cpu time      0.9781: real time      0.9789
    EDDIAG:  cpu time     11.4568: real time     11.4667
     EDDAV:  cpu time     57.2326: real time     57.2839
       DOS:  cpu time      0.0035: real time      0.0035
    CHARGE:  cpu time      4.1497: real time      4.1533
    MIXING:  cpu time      0.0099: real time      0.0099
    --------------------------------------------
      LOOP:  cpu time     74.3506: real time     74.4422

 eigenvalue-minimisations  :  4168
 total energy-change (2. order) : 0.1771749E+00  (-0.1308005E+00)
 number of electron     220.9999999 magnetization 
 augmentation part      -10.6686836 magnetization 

 Broyden mixing:
  rms(total) = 0.41996E-01    rms(broyden)= 0.15885E+01
  rms(prec ) = 0.66958E-01
  weight for this iteration     100.00
  WARNING: grid for Broyden might be to small

 eigenvalues of (default mixing * dielectric matrix)
  average eigenvalue GAMMA=   0.8540
  1.7342  0.7291  0.6197  0.3331

 Free energy of the ion-electron system (eV)
  ---------------------------------------------------
  alpha Z        PSCENC =        67.90551415
  Ewald energy   TEWEN  =     -2759.48799255
  -Hartree energ DENC   =     -2962.35854581
  -exchange      EXHF   =         0.00000000
  -V(xc)+E(xc)   XCENC  =      -178.37625532
  PAW double counting   =     30870.57654647   -30372.39509825
  entropy T*S    EENTRO =        -0.10146719
  eigenvalues    EBANDS =      -632.86776898
  atomic energy  EATOM  =      5415.59739267
  Solvation  Ediel_sol  =         0.00000000
  ---------------------------------------------------
  free energy    TOTEN  =      -551.50767481 eV

  energy without entropy =     -551.40620763  energy(sigma->0) =     -551.45694122


--------------------------------------------------------------------------------------------------------




--------------------------------------- Iteration      1(   6)  ---------------------------------------


    POTLOK:  cpu time      0.4924: real time      0.5203
    SETDIJ:  cpu time      0.9773: real time      0.9779
    EDDIAG:  cpu time     11.4617: real time     11.4713
     EDDAV:  cpu time     55.6731: real time     55.7224
       DOS:  cpu time      0.0034: real time      0.0034
    CHARGE:  cpu time      4.1610: real time      4.1642
    MIXING:  cpu time      0.0096: real time      0.0096
    --------------------------------------------
      LOOP:  cpu time     72.7785: real time     72.8691

 eigenvalue-minimisations  :  3976
 total energy-change (2. order) :-0.6271175E-02  (-0.1116968E-01)
 number of electron     220.9999999 magnetization 
 augmentation part      -10.6687490 magnetization 

 Broyden mixing:
  rms(total) = 0.38099E-01    rms(broyden)= 0.29179E+00
  rms(prec ) = 0.69012E-01
  weight for this iteration     100.00
  WARNING: grid for Broyden might be to small

 eigenvalues of (default mixing * dielectric matrix)
  average eigenvalue GAMMA=   0.9543
  2.2938  0.8697  0.3398  0.6340  0.6340

 Free energy of the ion-electron system (eV)
  ---------------------------------------------------
  alpha Z        PSCENC =        67.90551415
  Ewald energy   TEWEN  =     -2759.48799255
  -Hartree energ DENC   =     -2962.32894678
  -exchange      EXHF   =         0.00000000
  -V(xc)+E(xc)   XCENC  =      -178.61258732
  PAW double counting   =     30720.47912061   -30222.28710820
  entropy T*S    EENTRO =        -0.10613148
  eigenvalues    EBANDS =      -632.67320709
  atomic energy  EATOM  =      5415.59739267
  Solvation  Ediel_sol  =         0.00000000
  ---------------------------------------------------
  free energy    TOTEN  =      -551.51394599 eV

  energy without entropy =     -551.40781451  energy(sigma->0) =     -551.46088025


--------------------------------------------------------------------------------------------------------




--------------------------------------- Iteration      1(   7)  ---------------------------------------


    POTLOK:  cpu time      0.4976: real time      0.5214
    SETDIJ:  cpu time      0.9775: real time      0.9781
    EDDIAG:  cpu time     11.5207: real time     11.5303
     EDDAV:  cpu time     55.4365: real time     55.4868
       DOS:  cpu time      0.0037: real time      0.0037
    CHARGE:  cpu time      4.1875: real time      4.1906
    MIXING:  cpu time      0.0098: real time      0.0098
    --------------------------------------------
      LOOP:  cpu time     72.6333: real time     72.7207

 eigenvalue-minimisations  :  3928
 total energy-change (2. order) : 0.2443048E-02  (-0.1576608E-02)
 number of electron     220.9999999 magnetization 
 augmentation part      -10.6694299 magnetization 

 Broyden mixing:
  rms(total) = 0.15917E-01    rms(broyden)= 0.20401E+00
  rms(prec ) = 0.19374E-01
  weight for this iteration     100.00
  WARNING: grid for Broyden might be to small

 eigenvalues of (default mixing * dielectric matrix)
  average eigenvalue GAMMA=   0.9765
  2.5485  1.0181  0.3400  0.6831  0.6346  0.6346

 Free energy of the ion-electron system (eV)
  ---------------------------------------------------
  alpha Z        PSCENC =        67.90551415
  Ewald energy   TEWEN  =     -2759.48799255
  -Hartree energ DENC   =     -2962.46267622
  -exchange      EXHF   =         0.00000000
  -V(xc)+E(xc)   XCENC  =      -178.66762740
  PAW double counting   =     30657.72991788   -30159.53279289
  entropy T*S    EENTRO =        -0.10527422
  eigenvalues    EBANDS =      -632.48796435
  atomic energy  EATOM  =      5415.59739267
  Solvation  Ediel_sol  =         0.00000000
  ---------------------------------------------------
  free energy    TOTEN  =      -551.51150294 eV

  energy without entropy =     -551.40622872  energy(sigma->0) =     -551.45886583


--------------------------------------------------------------------------------------------------------




--------------------------------------- Iteration      1(   8)  ---------------------------------------


    POTLOK:  cpu time      0.4924: real time      0.5178
    SETDIJ:  cpu time      0.9784: real time      0.9796
    EDDIAG:  cpu time     11.5050: real time     11.5145
     EDDAV:  cpu time     54.8319: real time     54.8795
       DOS:  cpu time      0.0038: real time      0.0038
    CHARGE:  cpu time      4.1474: real time      4.1505
    MIXING:  cpu time      0.0102: real time      0.0102
    --------------------------------------------
      LOOP:  cpu time     71.9691: real time     72.0561

 eigenvalue-minimisations  :  3864
 total energy-change (2. order) :-0.8088331E-04  (-0.3924582E-03)
 number of electron     220.9999999 magnetization 
 augmentation part      -10.6688823 magnetization 

 Broyden mixing:
  rms(total) = 0.11555E-01    rms(broyden)= 0.56018E-01
  rms(prec ) = 0.13048E-01
  weight for this iteration     100.00
  WARNING: grid for Broyden might be to small

 eigenvalues of (default mixing * dielectric matrix)
  average eigenvalue GAMMA=   0.9531
  2.5839  1.2119  0.8634  0.6401  0.6401  0.3423  0.3901

 Free energy of the ion-electron system (eV)
  ---------------------------------------------------
  alpha Z        PSCENC =        67.90551415
  Ewald energy   TEWEN  =     -2759.48799255
  -Hartree energ DENC   =     -2962.55003493
  -exchange      EXHF   =         0.00000000
  -V(xc)+E(xc)   XCENC  =      -178.63079765
  PAW double counting   =     30658.16332282   -30159.96220135
  entropy T*S    EENTRO =        -0.10562974
  eigenvalues    EBANDS =      -632.44115723
  atomic energy  EATOM  =      5415.59739267
  Solvation  Ediel_sol  =         0.00000000
  ---------------------------------------------------
  free energy    TOTEN  =      -551.51158382 eV

  energy without entropy =     -551.40595408  energy(sigma->0) =     -551.45876895


--------------------------------------------------------------------------------------------------------




--------------------------------------- Iteration      1(   9)  ---------------------------------------


    POTLOK:  cpu time      0.5174: real time      0.5186
    SETDIJ:  cpu time      0.9800: real time      0.9803
    EDDIAG:  cpu time     11.5346: real time     11.5441
     EDDAV:  cpu time     60.6702: real time     60.7229
       DOS:  cpu time      0.0038: real time      0.0038
    CHARGE:  cpu time      4.2105: real time      4.2135
    MIXING:  cpu time      0.0102: real time      0.0103
    --------------------------------------------
      LOOP:  cpu time     77.9268: real time     77.9936

 eigenvalue-minimisations  :  4568
 total energy-change (2. order) :-0.3592517E-03  (-0.1106246E-03)
 number of electron     220.9999999 magnetization 
 augmentation part      -10.6679320 magnetization 

 Broyden mixing:
  rms(total) = 0.38930E-02    rms(broyden)= 0.10051E+00
  rms(prec ) = 0.59326E-02
  weight for this iteration     100.00
  WARNING: grid for Broyden might be to small

 eigenvalues of (default mixing * dielectric matrix)
  average eigenvalue GAMMA=   0.9782
  2.6080  1.2125  1.2125  0.8265  0.6337  0.6337  0.3494  0.3494

 Free energy of the ion-electron system (eV)
  ---------------------------------------------------
  alpha Z        PSCENC =        67.90551415
  Ewald energy   TEWEN  =     -2759.48799255
  -Hartree energ DENC   =     -2962.69556991
  -exchange      EXHF   =         0.00000000
  -V(xc)+E(xc)   XCENC  =      -178.54996499
  PAW double counting   =     30663.22887341   -30165.02003305
  entropy T*S    EENTRO =        -0.10538959
  eigenvalues    EBANDS =      -632.38477321
  atomic energy  EATOM  =      5415.59739267
  Solvation  Ediel_sol  =         0.00000000
  ---------------------------------------------------
  free energy    TOTEN  =      -551.51194308 eV

  energy without entropy =     -551.40655349  energy(sigma->0) =     -551.45924828


--------------------------------------------------------------------------------------------------------




--------------------------------------- Iteration      1(  10)  ---------------------------------------


    POTLOK:  cpu time      0.4926: real time      0.5185
    SETDIJ:  cpu time      0.9793: real time      0.9796
    EDDIAG:  cpu time     11.5167: real time     11.5263
     EDDAV:  cpu time     57.7172: real time     57.7711
       DOS:  cpu time      0.0035: real time      0.0035
    CHARGE:  cpu time      4.1888: real time      4.1921
    MIXING:  cpu time      0.0102: real time      0.0102
    --------------------------------------------
      LOOP:  cpu time     74.9081: real time     75.0012

 eigenvalue-minimisations  :  4216
 total energy-change (2. order) :-0.5399517E-04  (-0.1634285E-04)
 number of electron     220.9999999 magnetization 
 augmentation part      -10.6680061 magnetization 

 Broyden mixing:
  rms(total) = 0.16142E-02    rms(broyden)= 0.55062E-01
  rms(prec ) = 0.19528E-02
  weight for this iteration     100.00
  WARNING: grid for Broyden might be to small

 eigenvalues of (default mixing * dielectric matrix)
  average eigenvalue GAMMA=   1.0901
  2.7680  2.3826  1.0676  0.9433  0.3459  0.3561  0.7051  0.6328  0.6093

 Free energy of the ion-electron system (eV)
  ---------------------------------------------------
  alpha Z        PSCENC =        67.90551415
  Ewald energy   TEWEN  =     -2759.48799255
  -Hartree energ DENC   =     -2962.72010152
  -exchange      EXHF   =         0.00000000
  -V(xc)+E(xc)   XCENC  =      -178.54940087
  PAW double counting   =     30663.21466148   -30165.00334004
  entropy T*S    EENTRO =        -0.10550271
  eigenvalues    EBANDS =      -632.36322767
  atomic energy  EATOM  =      5415.59739267
  Solvation  Ediel_sol  =         0.00000000
  ---------------------------------------------------
  free energy    TOTEN  =      -551.51199707 eV

  energy without entropy =     -551.40649436  energy(sigma->0) =     -551.45924572


--------------------------------------------------------------------------------------------------------




--------------------------------------- Iteration      1(  11)  ---------------------------------------


    POTLOK:  cpu time      0.4903: real time      0.5166
    SETDIJ:  cpu time      0.9793: real time      0.9793
    EDDIAG:  cpu time     11.5143: real time     11.5253
     EDDAV:  cpu time     55.6382: real time     55.6910
       DOS:  cpu time      0.0036: real time      0.0036
    CHARGE:  cpu time      4.2446: real time      4.2476
    MIXING:  cpu time      0.0106: real time      0.0106
    --------------------------------------------
      LOOP:  cpu time     72.8809: real time     72.9740

 eigenvalue-minimisations  :  3968
 total energy-change (2. order) :-0.1695630E-04  (-0.5282889E-05)
 number of electron     220.9999999 magnetization 
 augmentation part      -10.6679746 magnetization 

 Broyden mixing:
  rms(total) = 0.71009E-03    rms(broyden)= 0.25653E-01
  rms(prec ) = 0.10576E-02
  weight for this iteration     100.00
  WARNING: grid for Broyden might be to small

 eigenvalues of (default mixing * dielectric matrix)
  average eigenvalue GAMMA=   1.1365
  3.1343  2.5323  1.0920  1.0920  0.9114  0.3452  0.3581  0.6573  0.6347  0.6080

 Free energy of the ion-electron system (eV)
  ---------------------------------------------------
  alpha Z        PSCENC =        67.90551415
  Ewald energy   TEWEN  =     -2759.48799255
  -Hartree energ DENC   =     -2962.71834556
  -exchange      EXHF   =         0.00000000
  -V(xc)+E(xc)   XCENC  =      -178.54836478
  PAW double counting   =     30661.49673246   -30163.28400341
  entropy T*S    EENTRO =        -0.10549883
  eigenvalues    EBANDS =      -632.36744818
  atomic energy  EATOM  =      5415.59739267
  Solvation  Ediel_sol  =         0.00000000
  ---------------------------------------------------
  free energy    TOTEN  =      -551.51201403 eV

  energy without entropy =     -551.40651519  energy(sigma->0) =     -551.45926461


--------------------------------------------------------------------------------------------------------




--------------------------------------- Iteration      1(  12)  ---------------------------------------


    POTLOK:  cpu time      0.4927: real time      0.5182
    SETDIJ:  cpu time      0.9771: real time      0.9782
    EDDIAG:  cpu time     11.4724: real time     11.4816
     EDDAV:  cpu time     56.6008: real time     56.6515
       DOS:  cpu time      0.0037: real time      0.0037
    CHARGE:  cpu time      4.1896: real time      4.1928
    MIXING:  cpu time      0.0107: real time      0.0107
    --------------------------------------------
      LOOP:  cpu time     73.7469: real time     73.8367

 eigenvalue-minimisations  :  4088
 total energy-change (2. order) :-0.7934777E-05  (-0.1315670E-05)
 number of electron     220.9999999 magnetization 
 augmentation part      -10.6679815 magnetization 

 Broyden mixing:
  rms(total) = 0.36737E-03    rms(broyden)= 0.12837E-01
  rms(prec ) = 0.56685E-03
  weight for this iteration     100.00
  WARNING: grid for Broyden might be to small

 eigenvalues of (default mixing * dielectric matrix)
  average eigenvalue GAMMA=   1.1729
  3.5434  2.5684  1.4286  1.0221  1.0221  0.3455  0.3574  0.7558  0.6408  0.6258
  0.5918

 Free energy of the ion-electron system (eV)
  ---------------------------------------------------
  alpha Z        PSCENC =        67.90551415
  Ewald energy   TEWEN  =     -2759.48799255
  -Hartree energ DENC   =     -2962.70361941
  -exchange      EXHF   =         0.00000000
  -V(xc)+E(xc)   XCENC  =      -178.54911097
  PAW double counting   =     30660.31348477   -30162.10020252
  entropy T*S    EENTRO =        -0.10546904
  eigenvalues    EBANDS =      -632.38201906
  atomic energy  EATOM  =      5415.59739267
  Solvation  Ediel_sol  =         0.00000000
  ---------------------------------------------------
  free energy    TOTEN  =      -551.51202196 eV

  energy without entropy =     -551.40655292  energy(sigma->0) =     -551.45928744


--------------------------------------------------------------------------------------------------------




--------------------------------------- Iteration      1(  13)  ---------------------------------------


    POTLOK:  cpu time      0.4893: real time      0.5157
    SETDIJ:  cpu time      0.9782: real time      0.9796
    EDDIAG:  cpu time     11.5175: real time     11.5274
     EDDAV:  cpu time     54.7315: real time     54.7817
       DOS:  cpu time      0.0033: real time      0.0033
    CHARGE:  cpu time      4.1833: real time      4.1866
    MIXING:  cpu time      0.0109: real time      0.0109
    --------------------------------------------
      LOOP:  cpu time     71.9140: real time     72.0052

 eigenvalue-minimisations  :  3864
 total energy-change (2. order) :-0.3504207E-05  (-0.5018972E-06)
 number of electron     220.9999999 magnetization 
 augmentation part      -10.6680050 magnetization 

 Broyden mixing:
  rms(total) = 0.18759E-03    rms(broyden)= 0.51932E-02
  rms(prec ) = 0.28914E-03
  weight for this iteration     100.00
  WARNING: grid for Broyden might be to small

 eigenvalues of (default mixing * dielectric matrix)
  average eigenvalue GAMMA=   1.1938
  3.6548  2.6051  1.7212  1.0624  1.0023  1.0023  0.3455  0.3573  0.7175  0.6423
  0.6287  0.5856

 Free energy of the ion-electron system (eV)
  ---------------------------------------------------
  alpha Z        PSCENC =        67.90551415
  Ewald energy   TEWEN  =     -2759.48799255
  -Hartree energ DENC   =     -2962.68685372
  -exchange      EXHF   =         0.00000000
  -V(xc)+E(xc)   XCENC  =      -178.55191371
  PAW double counting   =     30659.69647448   -30161.48305508
  entropy T*S    EENTRO =        -0.10547670
  eigenvalues    EBANDS =      -632.39611500
  atomic energy  EATOM  =      5415.59739267
  Solvation  Ediel_sol  =         0.00000000
  ---------------------------------------------------
  free energy    TOTEN  =      -551.51202547 eV

  energy without entropy =     -551.40654876  energy(sigma->0) =     -551.45928712


--------------------------------------------------------------------------------------------------------




--------------------------------------- Iteration      1(  14)  ---------------------------------------


    POTLOK:  cpu time      0.5150: real time      0.5151
    SETDIJ:  cpu time      0.9836: real time      0.9849
    EDDIAG:  cpu time     11.5046: real time     11.5142
     EDDAV:  cpu time     45.9094: real time     45.9507
       DOS:  cpu time      0.0034: real time      0.0034
    CHARGE:  cpu time      4.1996: real time      4.2033
    MIXING:  cpu time      0.0109: real time      0.0109
    --------------------------------------------
      LOOP:  cpu time     63.1264: real time     63.1825

 eigenvalue-minimisations  :  2760
 total energy-change (2. order) :-0.1447905E-05  (-0.1747124E-06)
 number of electron     220.9999999 magnetization 
 augmentation part      -10.6680201 magnetization 

 Broyden mixing:
  rms(total) = 0.11401E-03    rms(broyden)= 0.43454E-02
  rms(prec ) = 0.21982E-03
  weight for this iteration     100.00
  WARNING: grid for Broyden might be to small

 eigenvalues of (default mixing * dielectric matrix)
  average eigenvalue GAMMA=   1.2401
  3.7890  2.5874  2.3733  1.2865  1.0133  1.0133  0.3455  0.3573  0.8270  0.6745
  0.6366  0.6267  0.5914

 Free energy of the ion-electron system (eV)
  ---------------------------------------------------
  alpha Z        PSCENC =        67.90551415
  Ewald energy   TEWEN  =     -2759.48799255
  -Hartree energ DENC   =     -2962.67760905
  -exchange      EXHF   =         0.00000000
  -V(xc)+E(xc)   XCENC  =      -178.55318820
  PAW double counting   =     30659.69361350   -30161.48027395
  entropy T*S    EENTRO =        -0.10548674
  eigenvalues    EBANDS =      -632.40399674
  atomic energy  EATOM  =      5415.59739267
  Solvation  Ediel_sol  =         0.00000000
  ---------------------------------------------------
  free energy    TOTEN  =      -551.51202691 eV

  energy without entropy =     -551.40654018  energy(sigma->0) =     -551.45928355


--------------------------------------------------------------------------------------------------------




--------------------------------------- Iteration      1(  15)  ---------------------------------------


    POTLOK:  cpu time      0.4888: real time      0.5173
    SETDIJ:  cpu time      0.9809: real time      0.9813
    EDDIAG:  cpu time     11.5399: real time     11.5503
     EDDAV:  cpu time     45.2396: real time     45.2818
       DOS:  cpu time      0.0033: real time      0.0033
    --------------------------------------------
      LOOP:  cpu time     58.2530: real time     58.3346

 eigenvalue-minimisations  :  2696
 total energy-change (2. order) :-0.5465699E-06  (-0.9391454E-07)
 number of electron     220.9999999 magnetization 
 augmentation part      -10.6680201 magnetization 

 Free energy of the ion-electron system (eV)
  ---------------------------------------------------
  alpha Z        PSCENC =        67.90551415
  Ewald energy   TEWEN  =     -2759.48799255
  -Hartree energ DENC   =     -2962.67220070
  -exchange      EXHF   =         0.00000000
  -V(xc)+E(xc)   XCENC  =      -178.55389360
  PAW double counting   =     30659.79409955   -30161.58083009
  entropy T*S    EENTRO =        -0.10548093
  eigenvalues    EBANDS =      -632.40863595
  atomic energy  EATOM  =      5415.59739267
  Solvation  Ediel_sol  =         0.00000000
  ---------------------------------------------------
  free energy    TOTEN  =      -551.51202746 eV

  energy without entropy =     -551.40654653  energy(sigma->0) =     -551.45928699


--------------------------------------------------------------------------------------------------------




 average (electrostatic) potential at core
  the test charge radii are     0.5201  0.9892
  (the norm of the test charge is              1.0000)
       1 -35.8344       2 -35.7563       3 -36.1777       4 -36.2659       5 -35.7079
       6 -36.6002       7 -36.2709       8 -35.8215       9 -36.6146      10 -36.5461
      11 -36.6290      12 -36.4697      13 -36.0168      14 -36.5506      15 -36.0783
      16 -36.6611      17 -36.6887      18 -36.3780      19 -36.1320      20 -35.8682
      21 -36.5663      22 -89.8874      23 -89.5277      24 -89.5295      25 -89.7974
      26 -89.4211      27 -89.7965      28 -89.9899      29 -89.8850      30 -89.8901
      31 -89.6367      32 -89.9289      33 -89.6385      34 -89.8863      35 -89.8190
      36 -90.2395      37 -89.8284      38 -89.6353      39 -89.8448      40 -89.5671
      41 -90.0497      42 -89.7787      43 -89.7245      44 -89.9711      45 -89.8001
      46 -89.6877      47 -89.9328      48 -89.8150      49 -89.8491      50 -89.7057
      51 -89.6177      52 -90.0408      53 -89.6351      54 -89.7108      55 -89.7592
      56 -89.8730      57 -90.1504      58 -89.9638      59 -89.4650      60 -89.6494
      61 -89.6428      62 -89.8729      63 -90.0192      64 -89.7647      65 -89.5291
      66 -89.8605      67 -89.6347      68 -89.7062      69 -89.8840      70 -89.8097
      71 -90.0609



 E-fermi :   2.3898     XC(G=0):  -7.8645     alpha+bet : -8.1851

 WARNING: Could not determine fundamental gap because eigenvalues are not
     sorted.

 Fermi energy:         2.3897967764

 k-point     1 :       0.0000    0.0000    0.0000
  band No.  band energies     occupation 
      1      -9.9577      2.00000
      2      -9.4850      2.00000
      3      -9.3571      2.00000
      4      -9.0166      2.00000
      5      -8.7490      2.00000
      6      -8.4118      2.00000
      7      -8.3364      2.00000
      8      -8.0440      2.00000
      9      -7.9821      2.00000
     10      -7.6975      2.00000
     11      -7.5425      2.00000
     12      -7.4380      2.00000
     13      -7.3992      2.00000
     14      -7.2636      2.00000
     15      -7.1787      2.00000
     16      -7.0302      2.00000
     17      -6.9195      2.00000
     18      -6.8862      2.00000
     19      -6.7863      2.00000
     20      -6.6076      2.00000
     21      -6.4583      2.00000
     22      -6.4050      2.00000
     23      -6.2206      2.00000
     24      -6.0670      2.00000
     25      -5.9660      2.00000
     26      -5.8290      2.00000
     27      -5.7515      2.00000
     28      -5.5735      2.00000
     29      -5.4203      2.00000
     30      -5.3958      2.00000
     31      -5.3532      2.00000
     32      -5.2564      2.00000
     33      -5.0107      2.00000
     34      -4.9755      2.00000
     35      -4.9083      2.00000
     36      -4.4597      2.00000
     37      -4.4592      2.00000
     38      -4.4186      2.00000
     39      -4.2436      2.00000
     40      -4.0288      2.00000
     41      -3.9749      2.00000
     42      -3.8620      2.00000
     43      -3.5574      2.00000
     44      -3.5449      2.00000
     45      -3.3183      2.00000
     46      -3.2176      2.00000
     47      -3.0705      2.00000
     48      -2.9820      2.00000
     49      -2.9047      2.00000
     50      -2.8164      2.00000
     51      -2.6947      2.00000
     52      -2.6834      2.00000
     53      -2.5529      2.00000
     54      -2.4791      2.00000
     55      -2.3852      2.00000
     56      -2.1852      2.00000
     57      -2.0955      2.00000
     58      -2.0057      2.00000
     59      -1.9347      2.00000
     60      -1.9008      2.00000
[...]
   -.123E+02 -.197E+02 -.121E+02   0.153E+02 0.223E+02 0.157E+02   -.325E+01 -.262E+01 -.337E+01   0.339E-05 -.523E-05 0.209E-04
   0.423E+01 -.204E+01 0.105E+02   -.769E+01 -.659E+00 -.137E+02   0.325E+01 0.264E+01 0.333E+01   0.318E-04 -.439E-05 0.180E-04
   0.804E+01 -.298E+02 -.355E+01   -.475E+01 0.332E+02 0.302E+01   -.362E+01 -.365E+01 0.798E+00   -.340E-04 -.672E-04 -.205E-05
   0.319E+02 -.198E+01 -.742E+01   -.355E+02 -.137E+01 0.838E+01   0.362E+01 0.360E+01 -.844E+00   -.243E-05 -.260E-04 0.735E-05
   0.338E+02 -.652E+01 -.519E+01   -.358E+02 0.629E+01 0.589E+01   0.275E+01 0.252E+00 -.793E+00   0.255E-04 0.119E-04 0.248E-04
   -.465E+02 0.912E+00 0.518E+01   0.509E+02 -.128E+01 -.622E+01   -.340E+01 0.172E+00 0.684E+00   0.483E-04 0.579E-04 -.140E-04
   0.278E+02 -.861E+01 0.167E+02   -.286E+02 0.758E+01 -.184E+02   0.144E+01 0.145E+01 0.220E+01   -.441E-04 -.850E-04 0.167E-04
   0.240E+01 -.109E+01 -.102E+02   0.529E+00 -.281E+01 0.129E+02   -.290E+01 0.380E+01 -.258E+01   -.530E-04 -.808E-04 -.766E-05
   -.181E+02 0.373E+01 -.650E+01   0.200E+02 -.777E+01 0.964E+01   -.183E+01 0.391E+01 -.318E+01   0.487E-04 0.400E-04 0.258E-04
   0.236E+02 -.223E+02 0.263E+01   -.280E+02 0.239E+02 -.206E+01   0.487E+01 -.166E+01 -.752E+00   -.618E-04 -.114E-03 0.202E-04
   0.323E+02 -.235E+02 0.268E+01   -.347E+02 0.257E+02 -.314E+01   0.230E+01 -.217E+01 0.126E+00   0.127E-05 -.114E-05 -.218E-04
   -.291E+02 0.312E+02 0.103E+02   0.303E+02 -.336E+02 -.111E+02   -.124E+01 0.262E+01 0.777E+00   -.183E-03 -.642E-04 0.432E-04
   0.158E+02 -.268E+02 0.727E+01   -.188E+02 0.308E+02 -.988E+01   0.289E+01 -.381E+01 0.252E+01   -.100E-03 -.716E-04 -.116E-04
   0.896E+02 0.236E+02 0.775E+01   -.891E+02 -.236E+02 -.632E+01   -.918E+00 -.379E+00 -.217E+01   0.377E-03 0.155E-03 -.132E-04
   -.179E+02 0.484E+01 -.132E+02   0.175E+02 -.618E+01 0.118E+02   0.377E+00 0.254E+01 0.186E+01   0.231E-03 0.211E-03 0.592E-04
   -.224E+02 0.933E+01 -.188E+01   0.234E+02 -.343E+01 -.270E+01   -.756E+00 -.691E+01 0.375E+01   -.118E-03 0.496E-04 0.140E-03
   0.657E+02 0.314E+02 -.576E+01   -.669E+02 -.315E+02 0.512E+01   0.205E+01 -.175E+00 0.137E+01   -.764E-04 0.639E-04 -.459E-04
   0.926E+02 -.559E+02 0.168E+02   -.942E+02 0.552E+02 -.130E+02   0.285E+00 0.128E+01 -.407E+01   -.288E-04 -.330E-03 0.671E-04
   -.806E+02 0.987E+01 0.591E+00   0.788E+02 -.964E+01 0.411E-01   0.208E+01 -.920E+00 -.634E+00   0.632E-04 -.501E-04 0.315E-03
   -.105E+03 0.133E+02 -.363E+01   0.107E+03 -.137E+02 0.105E+01   -.279E+01 0.760E+00 0.281E+01   0.185E-03 0.213E-03 -.421E-04
   -.215E+02 0.210E+02 0.172E+02   0.204E+02 -.199E+02 -.152E+02   0.847E-01 -.121E+01 -.273E+01   0.236E-03 -.958E-04 -.721E-04
   -.926E+02 -.418E+02 0.719E+01   0.929E+02 0.430E+02 -.570E+01   0.677E+00 -.141E+01 -.163E+01   -.499E-05 0.327E-04 -.459E-04
   0.656E+02 -.188E+02 -.774E+01   -.660E+02 0.186E+02 0.775E+01   0.116E+01 -.326E+00 -.112E+01   0.342E-04 0.103E-05 0.755E-04
   -.283E+01 -.111E+01 -.730E+01   0.261E+01 0.144E+01 0.740E+01   0.841E+00 -.525E+00 0.155E+01   0.968E-05 -.215E-03 -.205E-04
   0.140E+02 -.312E+01 -.666E+01   -.129E+02 0.358E+01 0.570E+01   -.155E+01 -.795E+00 0.147E+01   0.123E-03 -.125E-03 0.773E-05
   0.252E+02 -.687E+01 0.456E+01   -.248E+02 0.648E+01 -.486E+01   -.107E+01 0.735E+00 -.134E+01   -.413E-05 -.157E-03 -.175E-04
   -.594E+02 0.312E+02 -.907E+01   0.594E+02 -.304E+02 0.731E+01   -.157E+01 -.919E+00 0.193E+01   0.109E-03 0.325E-04 0.359E-04
   -.854E+02 0.554E+02 -.619E-01   0.880E+02 -.549E+02 0.912E+00   -.188E+01 -.529E+00 -.129E+01   -.169E-03 0.968E-04 -.168E-04
   -.752E+02 -.980E+01 0.102E+02   0.750E+02 0.107E+02 -.103E+02   0.618E+00 -.146E+01 -.317E+00   0.829E-04 -.119E-03 -.330E-03
   0.192E+02 -.124E+02 0.208E+01   -.183E+02 0.131E+02 0.315E+00   -.190E-01 -.167E+01 -.266E+01   -.533E-04 -.114E-03 0.556E-04
   -.987E+02 0.541E+02 0.224E+02   0.991E+02 -.559E+02 -.220E+02   -.259E+00 0.156E+01 -.787E-01   -.519E-03 0.861E-04 0.170E-03
   0.723E+01 -.228E+02 -.179E+02   -.859E+01 0.219E+02 0.159E+02   0.156E+01 0.105E+01 0.294E+01   -.366E-05 -.330E-05 0.573E-04
   0.472E+02 0.520E+02 -.192E+02   -.468E+02 -.495E+02 0.193E+02   -.211E+00 -.273E+01 0.386E+00   -.151E-03 0.403E-03 -.151E-04
   0.607E+02 -.364E+01 0.265E+02   -.577E+02 0.425E+01 -.245E+02   -.295E+01 -.108E+01 -.223E+01   0.743E-04 0.318E-04 -.843E-05
   0.635E+02 -.346E+02 -.158E+02   -.631E+02 0.335E+02 0.140E+02   -.777E+00 0.439E+00 0.199E+01   -.232E-03 -.699E-04 0.492E-04
   -.668E+02 0.595E+02 -.147E+02   0.683E+02 -.631E+02 0.153E+02   -.188E+01 0.326E+01 -.917E+00   -.524E-03 0.401E-03 -.109E-03
   0.121E+02 0.162E+02 0.116E+01   -.104E+02 -.170E+02 -.150E+01   -.206E+01 0.103E+01 0.380E-01   0.174E-03 0.147E-04 -.583E-04
   0.551E+02 0.267E+02 0.194E+02   -.545E+02 -.274E+02 -.174E+02   -.699E+00 0.103E+01 -.203E+01   -.157E-03 0.183E-03 0.587E-04
   -.874E+02 0.388E+02 0.131E+02   0.843E+02 -.383E+02 -.113E+02   0.298E+01 -.158E+00 -.215E+01   0.196E-03 0.177E-03 -.645E-04
   -.635E+02 -.329E+02 0.178E+02   0.643E+02 0.324E+02 -.178E+02   -.116E+01 0.732E+00 0.494E+00   0.651E-04 -.291E-03 -.878E-04
   0.613E+02 0.453E+02 0.119E+02   -.618E+02 -.435E+02 -.119E+02   0.145E+00 -.167E+01 -.462E+00   -.342E-04 0.113E-03 0.841E-05
   -.164E+02 -.431E+02 0.129E+01   0.160E+02 0.406E+02 -.310E+01   -.338E+00 0.245E+01 0.254E+01   -.557E-04 0.768E-04 -.233E-04
   0.122E+03 0.572E+02 -.336E+02   -.121E+03 -.569E+02 0.314E+02   0.486E+00 -.783E+00 0.161E+01   0.499E-03 0.323E-03 -.248E-03
   -.103E+03 0.313E+02 -.189E+02   0.102E+03 -.320E+02 0.167E+02   0.177E+01 0.920E+00 0.265E+01   -.312E-03 0.624E-04 -.216E-03
   0.777E+02 0.527E+02 -.804E+01   -.769E+02 -.531E+02 0.880E+01   -.133E+01 0.869E+00 -.767E+00   0.952E-04 0.284E-03 -.338E-04
   0.297E+02 -.289E+02 0.161E+02   -.291E+02 0.306E+02 -.149E+02   -.102E+01 -.230E+01 -.156E+01   -.810E-04 -.169E-04 -.516E-04
   0.934E+02 0.275E+02 0.760E+01   -.909E+02 -.272E+02 -.830E+01   -.427E+01 -.161E+00 0.105E+01   0.314E-03 0.133E-03 0.888E-04
   0.686E+02 0.231E+02 -.127E+01   -.668E+02 -.222E+02 0.733E+00   -.155E+01 -.496E+00 0.729E+00   0.256E-03 0.835E-04 -.751E-04
   -.850E+02 -.124E+02 -.708E+01   0.836E+02 0.138E+02 0.755E+01   0.106E+01 -.177E+01 0.388E+00   0.443E-04 0.569E-04 -.986E-04
   -.886E+02 -.397E+02 -.263E+02   0.880E+02 0.379E+02 0.259E+02   0.432E-01 0.281E+01 0.189E-01   0.144E-03 -.289E-03 0.456E-04
   -.775E+02 0.299E+02 0.212E+02   0.748E+02 -.288E+02 -.200E+02   0.368E+01 -.220E+01 -.185E+01   0.226E-03 0.168E-03 0.689E-04
   0.781E+02 -.625E+02 0.412E+01   -.789E+02 0.629E+02 -.454E+01   -.405E+00 -.714E-03 -.845E+00   -.241E-03 -.289E-04 -.124E-04
   0.685E+02 0.156E+02 -.294E+02   -.678E+02 -.144E+02 0.271E+02   -.117E+01 -.453E+00 0.242E+01   0.206E-03 0.600E-04 -.197E-04
   -.104E+03 0.460E+02 0.447E+01   0.103E+03 -.460E+02 -.357E+01   0.312E+01 0.815E+00 -.639E+00   -.196E-03 0.581E-04 0.676E-04
   -.784E+02 -.489E+02 -.327E+02   0.780E+02 0.469E+02 0.294E+02   -.308E+00 0.118E+01 0.409E+01   0.158E-03 -.297E-03 0.128E-03
   -.836E+02 -.602E+02 0.231E+02   0.844E+02 0.601E+02 -.216E+02   -.823E-01 0.164E+01 -.217E+01   0.227E-03 -.123E-03 0.143E-03
   0.133E+03 0.281E+02 0.208E+02   -.133E+03 -.291E+02 -.210E+02   -.382E+00 0.190E+01 0.998E+00   0.456E-03 0.802E-04 0.770E-04
   0.675E+02 -.361E+02 0.130E+01   -.700E+02 0.373E+02 0.738E-01   0.251E+01 -.152E+01 -.144E+01   -.104E-03 0.197E-04 -.557E-05
   0.811E+02 -.287E+02 -.537E+01   -.811E+02 0.291E+02 0.534E+01   0.526E+00 -.976E-01 0.614E+00   -.152E-03 0.534E-06 -.132E-04
   -.194E+02 -.497E+01 -.244E+01   0.180E+02 0.478E+01 0.330E+01   0.138E+01 0.120E+01 -.134E+01   0.988E-04 -.228E-03 0.869E-04
   0.582E+02 0.250E+02 0.153E+02   -.579E+02 -.259E+02 -.139E+02   -.337E+00 0.638E+00 -.838E+00   0.114E-03 0.561E-04 0.151E-04
   -.190E+02 0.234E+01 -.711E+01   0.166E+02 -.443E+01 0.708E+01   0.454E+01 0.196E+01 0.731E+00   0.236E-03 0.706E-04 0.103E-03
   -.109E+03 0.483E+02 -.334E+02   0.108E+03 -.469E+02 0.309E+02   0.815E+00 -.178E+01 0.290E+01   0.136E-03 0.253E-03 -.534E-04
 -----------------------------------------------------------------------------------------------
   -.360E+01 0.881E+01 -.578E+01   -.568E-13 0.711E-14 -.249E-13   0.359E+01 -.882E+01 0.577E+01   0.172E-02 0.669E-03 0.362E-03


 POSITION                                       TOTAL-FORCE (eV/Angst)
 -----------------------------------------------------------------------------------
      9.19116     13.64090      1.90009        -0.832937     -0.262431     -0.555675
     11.46150     11.22970      1.13830         0.042676     -0.090769     -0.581344
      0.35348      1.39115      5.69454        -0.269280     -0.647621      0.674522
     10.71760     12.54530      2.78025        -0.277927      1.296439      0.457044
     14.36540      3.43096      4.73466         0.413289     -0.483624     -0.279260
      9.79549      1.51969      7.18231        -0.076243      0.141708     -0.205966
     13.03070      1.48435      1.82667        -0.179934      0.145154     -0.057966
      0.27916      1.06695      0.82460         0.615260     -0.522205      0.241705
     10.79870      1.37422      2.71702        -0.197981     -0.066835      0.178699
     10.35010      1.01030      2.25723        -0.208480     -0.058959      0.122811
     13.12030      1.14160      6.14930        -0.330534     -0.227980      0.264845
     12.59880      0.61606      6.26991         0.031767      0.255025      0.115642
     12.65660     12.67010      7.20796         0.778684      0.020689     -0.083785
      8.64741      2.40624      4.42278         1.001255     -0.200399     -0.354519
     14.45200      1.38632      3.34846         0.667068      0.419529      0.471952
     12.18900      1.95456      4.53521         0.021169     -0.109743      0.090428
     10.04490      0.98196      0.37476         0.039017     -0.124681     -0.044559
     12.33030      1.72412      1.93780         0.427648     -0.059898     -0.181803
     12.87200     14.06420      4.37618        -0.046962      0.036068     -0.332999
     10.43020      5.47083      3.31919        -0.019837      0.293726     -0.064535
     11.79390      2.46771      4.18922        -0.156607      0.257533     -0.085998
      3.05827      6.90929      1.18846        -0.453081     -0.394308     -0.839575
      5.27471      5.02401      4.91396         0.050828      1.309710      0.501071
     11.07360     11.19330      2.55287         0.205202     -1.256785     -0.729024
      0.89002     10.93030      0.09435         1.052501     -0.267629      0.815709
      0.57283      2.13706      4.48567        -1.349687      0.618997     -0.379684
      8.82129     10.14850      2.51660         0.347767     -0.703237     -0.019409
      7.24721      2.49407      4.71506        -0.824378      0.499519      0.374444
      5.62749      8.85295      5.87759        -0.977759     -0.146004     -0.883947
      6.45465      0.38421      0.48813         0.872343     -0.477416     -0.206780
      2.80298      2.43309      4.67928         0.815007     -0.588789     -1.197997
      4.99387     10.66270      1.26558         0.672323     -0.210070      1.747980
      4.07333     10.61550      5.23901        -0.556219     -0.391642      0.542060
      3.31917     11.71550      0.09960        -0.653708      0.361503     -1.743790
      6.53435      7.04940      2.09671        -1.622579     -0.193906      0.238874
      8.28931      6.26111      5.51434         0.597219     -0.049802     -0.484846
      7.70419      9.87234      6.31103         0.397510     -0.593150     -0.432222
      3.51962     13.73570      3.22796         0.897434     -0.946308     -0.393197
      9.80199      6.77820      3.73378         0.177131     -0.241359      0.403848
      3.89202      0.40442      5.06034         0.284719      0.233964      1.131234
     12.95880      9.40153      5.32820         0.247945     -0.491681      0.402270
      3.81340      2.82768      2.54567        -0.008817     -0.508821     -0.340362
      1.24722     13.22620      2.92938        -0.377173     -0.615517      0.238768
     11.21350      7.74954      5.54405        -0.598356      0.025154     -0.359199
      5.02184      8.29277      0.83266        -0.434528      0.261068     -0.310491
     13.23050     10.84960      3.57135        -0.151250      0.357171     -0.083390
      6.19838      4.83398      1.24251        -0.022858      0.298803     -0.464974
      7.35831     11.12000      0.92347        -0.444853      0.195336      0.525486
      0.87741     10.87300      2.51985        -0.376705      0.133125     -0.511573
      4.44937      0.68099      1.53828        -0.851566      0.100209      0.832075
      1.19710      6.99722      6.84543         1.200383     -0.485338     -0.636945
      9.12161      7.99641      6.77161         0.349039      0.176202      0.599328
      0.73337      9.05449      5.92647        -0.664394      0.497188     -0.025215
      3.18577     14.18220      7.19554        -0.538428     -0.690632     -0.416582
      2.94681      7.37596      3.44083        -1.935800      0.129218      0.409669
      3.80613      4.61100      0.92725         0.161129      0.368909      0.214494
      6.31084      0.40170      5.25132        -0.365529     -0.440344      0.895230
      8.44389     11.08830      4.56634        -0.703075      1.068657     -0.437355
      5.83709      3.67575      3.22451         1.046809     -1.185680     -0.700400
      0.98451     14.26420      0.87048        -1.232243      0.414383     -1.305655
      3.34845      4.25194      5.89738        -0.466629      0.787847      0.166038
      8.61754      7.82344      1.92525         1.744591      0.897846      0.250519
      7.05491     13.00520      3.88237        -0.731836     -0.753494      0.944766
      7.69984     13.27270      1.69542         0.715579      1.537558     -0.756422
      1.77096      5.69712      4.86351         0.398049      1.167649      1.022759
     13.94230     13.04270      4.45840         0.077058     -0.411882     -0.152659
     14.12560     12.80220      6.77588         0.532878      0.193015      0.630275
      4.95483     11.74020      3.46883         0.094675      1.114300     -0.536122
      2.19916      9.57467      4.04370        -0.125614     -0.295053      0.523660
      5.06609      7.21722      4.11100         2.337789     -0.059043      0.728421
      7.12942      4.42905      6.25679        -0.249954     -0.360166      0.419594
 -----------------------------------------------------------------------------------
    total drift:                               -0.004466     -0.006246     -0.007657


--------------------------------------------------------------------------------------------------------



  FREE ENERGIE OF THE ION-ELECTRON SYSTEM (eV)
  ---------------------------------------------------
  free  energy   TOTEN  =      -551.51202746 eV

  energy  without entropy=     -551.40654653  energy(sigma->0) =     -551.45928699



--------------------------------------------------------------------------------------------------------


    POTLOK:  cpu time      1.4690: real time      1.4706


--------------------------------------------------------------------------------------------------------


     LOOP+:  cpu time   1175.5595: real time   1176.9220
    4ORBIT:  cpu time      0.0000: real time      0.0000



 total charge

# of ion       s       p       d       tot
------------------------------------------
    1        0.542   0.013   0.000   0.556
    2        0.583   0.016   0.000   0.600
    3        0.604   0.018   0.000   0.622
    4        0.605   0.019   0.000   0.625
    5        0.555   0.014   0.000   0.569
    6        0.619   0.033   0.000   0.652
    7        0.614   0.032   0.000   0.646
    8        0.548   0.014   0.000   0.562
    9        0.620   0.034   0.000   0.654
   10        0.621   0.034   0.000   0.655
   11        0.608   0.033   0.000   0.642
   12        0.615   0.032   0.000   0.647
   13        0.540   0.014   0.000   0.554
   14        0.591   0.018   0.000   0.609
   15        0.553   0.014   0.000   0.567
   16        0.620   0.035   0.000   0.654
   17        0.617   0.034   0.000   0.650
   18        0.612   0.033   0.000   0.644
   19        0.571   0.016   0.000   0.587
   20        0.560   0.014   0.000   0.574
   21        0.624   0.034   0.000   0.658
   22        0.752   0.895   0.000   1.647
   23        0.770   0.975   0.000   1.745
   24        0.740   0.993   0.000   1.733
   25        0.755   0.891   0.000   1.646
   26        0.736   1.042   0.000   1.778
   27        0.751   0.925   0.000   1.677
   28        0.747   0.952   0.000   1.699
   29        0.755   0.902   0.000   1.657
   30        0.780   0.852   0.000   1.632
   31        0.751   0.989   0.000   1.740
   32        0.748   0.909   0.000   1.656
   33        0.754   0.910   0.000   1.663
   34        0.755   0.879   0.000   1.634
   35        0.754   0.942   0.000   1.696
   36        0.783   0.871   0.000   1.654
   37        0.757   0.968   0.000   1.725
   38        0.756   0.933   0.000   1.689
   39        0.746   0.906   0.000   1.653
   40        0.750   0.965   0.000   1.715
   41        0.793   0.831   0.000   1.624
   42        0.757   0.914   0.000   1.671
   43        0.744   0.944   0.000   1.688
   44        0.797   0.793   0.000   1.590
   45        0.757   0.918   0.000   1.675
   46        0.753   0.920   0.000   1.673
   47        0.756   0.903   0.000   1.658
   48        0.752   0.956   0.000   1.709
   49        0.755   0.886   0.000   1.641
   50        0.745   0.940   0.000   1.685
   51        0.786   0.840   0.000   1.627
   52        0.756   0.889   0.000   1.645
   53        0.753   0.918   0.000   1.670
   54        0.750   0.922   0.000   1.672
   55        0.760   0.935   0.000   1.695
   56        0.753   0.904   0.000   1.658
   57        0.747   0.877   0.000   1.624
   58        0.792   0.875   0.000   1.666
   59        0.758   0.993   0.000   1.751
   60        0.740   0.944   0.000   1.683
   61        0.753   0.973   0.000   1.726
   62        0.753   0.934   0.000   1.687
   63        0.753   0.885   0.000   1.638
   64        0.739   0.956   0.000   1.695
   65        0.805   0.810   0.000   1.615
   66        0.746   0.933   0.000   1.679
   67        0.736   0.953   0.000   1.689
   68        0.757   0.897   0.000   1.654
   69        0.754   0.886   0.000   1.640
   70        0.762   0.920   0.000   1.682
   71        0.756   0.905   0.000   1.661
--------------------------------------------------
tot         50.279  46.358   0.000  96.637


 total amount of memory used by VASP MPI-rank0   138513. kBytes
=======================================================================

   base                                    :      30000. kBytes
   nonl-proj                               :      24304. kBytes
   fftplans                                :      28726. kBytes
   grid                                    :      22140. kBytes
   one-center                              :         15. kBytes
   wavefun                                 :      33328. kBytes

  
  
 General timing and accounting informations for this job:
 ========================================================
  
                  Total CPU time used (sec):     1222.015
                            User time (sec):     1216.256
                          System time (sec):        5.759
                         Elapsed time (sec):     1223.319
  
                   Maximum memory used (kb):      307280.
                   Average memory used (kb):          N/A
  
                          Minor page faults:       242901
                          Major page faults:         1140
                 Voluntary context switches:         2656
