NVT_2.58/Hconc-50/1/SiH.data (written by ASE) 

1000 	 atoms 
2  atom types
0.0      21.158707884739954  xlo xhi
0.0      21.158707884739954  ylo yhi
0.0      21.158707884739954  zlo zhi


Atoms 

     1   1      7.9247849658071283      20.115886291170568      15.488045988186856
     2   1      12.666839989846308      3.3011528376957893       3.300642487413838
     3   1      6.1676626481610741      20.114936611538646      18.916879227088916
     4   1      14.981900834781332     0.43554130175997985      20.522039236426952
     5   1      17.613410667497632       4.492821215347111      3.8471813672874635
     6   1      3.8806024487327169      6.4373727449789397      11.103168047545033
     7   1      9.1393984717170813      6.1620323049743471      12.946016667863375
     8   1       2.951509849251174      6.1814032784467026      7.7517432223660983
     9   1      9.7613394107002769      16.435583563483597      4.6572838856730003
    10   1      10.880536266666907      12.534726809216119     0.98283071386804088
    11   1      7.1655004433741665      4.0737140479313387      11.058442561317024
    12   1       20.07719189879781      20.431526111972151      17.104643343594635
    13   1      6.4452337596089544      2.0666157287460942      14.477486733062255
    14   1      9.3130580397760561       2.582171361849968        10.4773035923125
    15   1     0.72761667286511789      19.240044761219231      5.4754500370931378
    16   1      14.018115481776524      6.5954036034137955       11.00396734029605
    17   1      11.567683098209034      3.9112814256572803      20.515157908404618
    18   1      16.400808981371558       19.87858366257905      18.933390514974455
    19   1      12.650790995955958      19.505667645322234      1.8723870009063157
    20   1      4.1467441363418729     0.95695099447681364      6.8835694346657386
    21   1      8.2239092339721989       5.741394898110884      17.535014869272675
    22   1      7.5484394264188559       5.944211225217936      11.482747893737921
    23   1      2.9817745101243776      16.973451581795086      1.5773952922396057
    24   1      20.881252406796225      16.339701489066371      4.2045670576985676
    25   1      0.1168408631236236      17.254110155948606      14.956188054654916
    26   1      15.424849714460782      16.319083965690037      1.5666891564689216
    27   1      7.5846716369587526      2.4516395833717652      18.262153262419986
    28   1      13.188182990649894      7.0013746474946252      1.3448125673379523
    29   1      6.5799841024999184      6.8804589197532646      15.437523998356582
    30   1      13.489892296138414      18.772275251791481      9.9914576603160246
    31   1      2.5304597145042735      15.091338103164855      16.097228606762616
    32   1      11.875900265738444      16.312669349380297      10.448076778245103
    33   1      11.060351238657223      9.0462155161927935     0.53783587746349104
    34   1       2.282843187019076     0.66500095900086009      13.465621986737547
    35   1      6.6513663754148373      10.760698693094245      19.202933907785663
    36   1      5.2747014544966992      8.6831723893966082      15.986485832415052
    37   1      19.671201047045024      17.098783046908672      13.402005057101002
    38   1      18.953345206103688      16.992733651412664      3.7387734212104968
    39   1      18.885395118945489      11.411784946594002      17.084390377525501
    40   1      18.960134053138091      6.7285426332618812      2.3285565232345604
    41   1      1.4795356371078161      4.5239531664428192      12.114988949336803
    42   1      6.8385564261186254      10.976939218810504      14.874972788697074
    43   1      7.6939325349876215      20.561653215917005      20.364141168138289
    44   1      5.3273880479180598      10.521135882300378      6.3661962662673153
    45   1      6.0268568142777506     0.78048014383434061      12.897593679636701
    46   1      15.939350133750864      8.3870123306374733      12.611940537202784
    47   1      19.217732562842954        5.06882006493848      3.0657882725749492
    48   1      16.114886960028347      5.0281033757822247      15.408116997170293
    49   1      7.7818158701412239      13.378774363347416      13.404670086293565
    50   1       11.33630003237665      1.9104148695615664      17.673921499566969
    51   1      6.7872916899848619      3.9464906766473469     0.86274930911617098
    52   1       12.50253117607425      14.336386405331096     0.35097702672654746
    53   1      10.835227430357593      4.7923579445408979      13.651022607456104
    54   1      3.6893683362218619      14.619349767053036      8.1828202210768168
    55   1      7.7680450304275528      5.8280705034901823      7.8432114994126785
    56   1      2.4009530885824586      19.565322152039343      18.563367093974815
    57   1      5.4577115521393207      13.964409638625961      17.291365810981997
    58   1      11.747331790003566      11.206721868418311       5.117281974417808
    59   1      3.4198547473140839      19.012245593654022      12.831255326154801
    60   1     0.19459772855714208      2.1470067341162418      14.038840113565529
    61   1     0.10709657403625972      3.4024905854570968      11.610497955694019
    62   1      14.639608374834097      13.794657841982666      4.7452488063883314
    63   1      15.068792106074069       5.019884138265903       6.885037159134499
    64   1      15.794793579361345      13.745392743256776      17.968470071528916
    65   1      11.391547171527044      11.778019717761557      18.947805619644971
    66   1      7.7803912615371198      5.6113394281190283      5.1625055911599054
    67   1      20.964006007109283      8.3497049870944657      19.267909756717067
    68   1      10.421038011579133      4.1310893453626711       15.28615326753067
    69   1      19.898888464019382      20.183896103703411      19.357348386825215
    70   1      8.1481703465650028      18.008952202615042      6.7056601293477289
    71   1      3.5862475157132567      11.781195262210653      19.807825401372668
    72   1      15.673706793243802      14.747952454784437      14.863655526762372
    73   1      18.346129903780593      19.322990080040881      10.819344446580766
    74   1      10.611436778723617      16.890894497554196      13.752396946944073
    75   1      14.821697897280879      16.858304585504115        19.0369810700033
    76   1      7.1515407902785082      7.9468499813966957      1.9885364115341508
    77   1      12.235660578884278     0.76049207197860902      9.8514524573785813
    78   1      11.188301810331208      12.801006806437238      6.1044891607201759
    79   1      3.0537293012070212      7.6843625154101485       4.120811769380972
    80   1      4.5664940761901338      13.179557622040901      1.8058420805062061
    81   1      1.0935184411871515      11.242777432554066      11.439140610379104
    82   1      6.8333416704497463      16.825112409088931      5.7304604902207217
    83   1      9.2880680604598425      1.6600356545147674     0.53638897458866031
    84   1      18.747288271982857      0.5845434009787347      7.8903207777415503
    85   1      11.620926561026819      15.119926384036832      13.968923440242094
    86   1      5.1639552679482801      20.237021378939307      15.660308531166821
    87   1       11.72941546181052      12.943220576607798      8.8781951493282545
    88   1      2.4559470938962749     0.97335646446452939      0.8617688307624084
    89   1      18.100440603997946      14.888491097423344      10.032905536247323
    90   1      2.0700444263632605      10.401956693097853      10.018050889616543
    91   1       3.664727770516742      9.1797403115389322      8.4318452657999057
    92   1      13.242387133365495      10.645713121517062      18.122218355951027
    93   1      5.6621305270667355      15.830904832665979      18.854275355185365
    94   1      12.176290024886603      8.2131740782448617      13.611147499716536
    95   1      9.6960390472477282      11.544546262145571      19.920178872665055
    96   1      14.451540802015465      1.5062598174794279      6.7491121837365036
    97   1       17.87646990383152     0.49240409014678027        17.2331007044267
    98   1      18.566174011253498      15.553153490377307      17.000618296972089
    99   1      5.9674871344337657      3.7543914740366815      15.882038263945551
   100   1      17.169368874496591      21.145571423813998      8.8982971121305035
   101   1      18.162904660782054      9.0769593095261492      15.887461582503065
   102   1      15.965152259269914       2.181967816643736       19.09685330295591
   103   1      10.690487356696043      17.486772104536076       6.771836016834281
   104   1      15.850953804035807     0.57191678472038732      6.0205856384817542
   105   1       20.11361893519782      12.133204764842802      13.368859003009243
   106   1      9.4885278017589982      6.2039610670185246      6.9541171075529133
   107   1      13.650621367372418      15.517893274648998      17.678598482722897
   108   1      16.707299623880846      1.9298032917127297      10.461294799486041
   109   1      7.4249082429592876       2.476986803529766      3.0255192305035665
   110   1      16.112581007633782      13.080695410778437      2.1396251646052868
   111   1      1.7795913417056908      14.831601088763399       1.539571196475445
   112   1      17.389496916659706      14.943172980272461      1.7212350863817454
   113   1       1.795056409937664      20.876018629029325      7.9190864371929202
   114   1      14.324128960933757      14.647101431051471      6.4829961930580904
   115   1      20.862508483470961      15.940508948629446      7.9611666590819743
   116   1      1.7667672727935599      16.443424577635195      11.815112401757277
   117   1      8.9759895719342229      19.177287674272623      2.3527950456343958
   118   1      10.349842424987463     0.11438830352165458      9.5354637443528052
   119   1       14.39074484882083      11.467094169007398      1.4918226882156207
   120   1      13.736451138237562       15.78534566928318      12.343329289772281
   121   1      20.358327887888624      7.9317770867252326      6.0452985727775088
   122   1      18.378435222300585      4.7309990314765837      20.380544340021302
   123   1      11.165473617610312      21.009852060918639      1.5614399561336063
   124   1      13.303769750633496      10.841226275539386      10.554074309020066
   125   1      13.317261927357169      14.721143271416306      9.6175016110399767
   126   1       13.27831809720694      12.363335838853702      19.067339101972259
   127   1     0.96158668606369546      5.9448180549468104      20.109478961878086
   128   1      18.836831343711157      9.6411081279020685      13.121204486687645
   129   1      5.8690274234213877      3.9804006655335726      9.8112590967449407
   130   1      7.4764765732252743      12.349409175795712      1.6447644760684226
   131   1      20.616935099815787      20.866945055235835      14.772199763253143
   132   1       11.34310641354578      6.5492044152622855      17.218851100035522
   133   1         14.488026859643      3.4407643167090303      19.274042200973831
   134   1      17.403825247330719      20.096538914295159      15.355287084246395
   135   1      15.393812720593838      18.534347211512422      17.786650306956655
   136   1      18.324792847460841     0.95676863171328463     0.55789111119174328
   137   1      20.154741875676233      2.0986957689284891      3.3208984919225339
   138   1      5.7849403686038974      1.1928326654941024      18.296408160578864
   139   1      9.5329317482090197       2.732846335754338      20.186486992903383
   140   1      12.825872017485194      4.8377863315951801      14.212318567323424
   141   1      2.8355890708937981     0.60900424025496325      15.977728605682293
   142   1      13.124948595202056       14.89741814076692      4.5060464832856226
   143   1      8.2993771697940009       9.256404081999472      19.130829698241058
   144   1      13.162550769103367      18.246501803773345      20.090629506508151
   145   1      3.1118848205693861      19.605396890406979      10.412544890591024
   146   1      15.289358924956247      3.7891848227921097       3.677025023491463
   147   1      2.9374035925532289      13.560081515998483      3.8483475758533539
   148   1      7.3138730731612638      18.974883999621738      10.028415894894319
   149   1      3.5744476510340495      5.8946116030878795      3.7453131293480406
   150   1      1.8768310004018245       2.552499157038755      9.7494833522947975
   151   1      16.114374985432178      18.074091363419523       14.44034909086462
   152   1      5.8583732769604939      17.058177375444888      15.832208210753789
   153   1      3.9042263471560346      4.4295611783494264      7.8387110024082043
   154   1      10.251880307099002      13.081472109156172      7.8057359343530566
   155   1      9.7866369452123934      15.815519232304684     0.77616917423880927
   156   1       9.030329131386198      9.6232883264792051      4.3380382469713661
   157   1      10.826433528936317      11.258833796259692      2.2676212813583594
   158   1      9.4666675736375936       11.26949315529054      5.1303625570730222
   159   1      5.6968388736015276       7.982845396669294     0.42468061067575397
   160   1      6.8147789803352596      4.4739666128503384      6.9294208077582997
   161   1      16.697843708731085      10.546392884567364        1.83912098489924
   162   1      11.364480421321517      12.416799790957985      15.772536080020387
   163   1      9.1333582443331878      2.6994343586980056      6.0043314955226936
   164   1      20.873387973052218      12.817412446703489      5.0194123887759492
   165   1      2.3705984027007774      8.4181104005170706      20.512741700565808
   166   1      9.3015750010971026      2.2478979330466506      12.383897535933107
   167   1      6.8486344114330784      9.0016853282088629      10.740379721846612
   168   1      5.1290767165886608      2.4297988290678862      12.919931106590017
   169   1      6.1070495626214552      12.298249738526854       3.266115600782133
   170   1      12.602946117355771      9.9779428189318509      8.7140215974263207
   171   1      7.3816017420388347      19.667635633492054      17.574833412776254
   172   1      17.812009176396241      2.9574028873915141      16.826828741925805
   173   1      4.2661735664731983      3.4627482886971332      3.4756520338756003
   174   1      7.9756570709815948      9.7897064291572935      6.3767664023629989
   175   1      15.818448487040794      10.636913881669283      4.9133205837396785
   176   1      19.033835616456191      8.1226422125518187      11.500876208225511
   177   1      19.179778601562429      13.208069406099652      2.4734114956467148
   178   1      20.037741439434456       12.94838212571115      6.8500947176788447
   179   1      5.2577091218645853      15.740942286480557     0.70950299123846317
   180   1      12.058129368718692       16.13264060577001      18.551227991619875
   181   1      7.2380077937809029         17.376743407764      2.3408246050166195
   182   1      17.909836779179354      2.6974953648986659      8.4060857272866158
   183   1      16.869739742386468      3.1720590521044292      4.8506633038965266
   184   1      11.483347958699886      5.3277427330646416      7.3144805434743922
   185   1      14.964255668239625      3.2275290500406677      12.193517070145408
   186   1        12.8373064356913      8.9740569790458444      15.582208454984112
   187   1      19.769998722634089      19.583833791907644      9.5391785624798153
   188   1       8.442381656409486      1.1586855191249958      7.0923405197562079
   189   1      11.370596581107211      19.462956283815007      7.3282337218391636
   190   1      7.3410814485974862       15.60457347338529      9.5683473115260291
   191   1      4.7523478380908175       9.573035557364749      2.9803525477310475
   192   1      12.597577660425644      1.4192515909991017      15.868194518278369
   193   1      20.042614455753437      5.6859532858533903      4.7382781391365398
   194   1      4.0347057787294114     0.77334374528211147      9.9883265936240448
   195   1       8.985554149532426      12.180217600756833      0.5167182117635295
   196   1      8.6482869287759421     0.53714248367535156      3.3039871931146352
   197   1      15.149047243768269      13.941979205138251     0.57331619022831082
   198   1      4.6966441328834714      4.8892441205327071      14.216382291681976
   199   1      13.811264218938778      5.0396398873426627      2.1040513810466788
   200   1      8.4038902798268449        14.1358182468349      4.3372028276625949
   201   1      18.924570151823605      19.805122581487247      7.9450673977207042
   202   1      1.8092500260029634      4.3986045458873102     0.56138715130451711
   203   1      3.8389393710057185      12.336406073220516      8.9167989614444778
   204   1      18.887779971648694      17.296049535085061      7.2324134945107783
   205   1      5.4890646464289992      8.0338007504646516      12.489878254510181
   206   1      5.6718802706910907      13.206184417759303      8.6626215533232109
   207   1      11.680605038241257      9.2278738307596946      6.2305149882055124
   208   1      10.313414337670228      18.927569256495698      16.923903710663151
   209   1      20.828678182607455      11.122925005218223      3.6325118591250236
   210   1      6.2867115870835359      11.984390328603256      10.072611398543716
   211   1      14.042424319433216      19.822106792109633      15.500279009383007
   212   1      16.311506123838978      2.2554812990810431      1.5898183748553265
   213   1      15.407533177464162      10.483956019032268      14.565705213169418
   214   1      14.698879695368579      5.7582394609012484      12.488518264898275
   215   1       20.10579459066264      9.4369058649250359      3.9171735611427025
   216   1      11.465923848042518      18.470405940509071      15.492932477476799
   217   1      14.756511707573157      6.2915207868131882      19.559029067737008
   218   1      17.869574017836378      6.7517536992363238      17.538780378694895
   219   1      1.6282303140679313      14.732570812228726       7.191315075705087
   220   1       16.73068046252471       6.744391097069383      13.243052801608487
   221   1      18.746144367309164      13.030869295714014      4.9291214752945889
   222   1     0.92434605237742273      10.142362053027941      1.0956439816271111
   223   1      18.507557178618395      11.191626308273324      19.869459116829418
   224   1      8.5043387909046047      10.153548071018792      13.277204792315924
   225   1      21.050963991618591      3.6793987807791853      8.3839691296209633
   226   1      16.043346414393362      14.726896939156349      3.2562385269022927
   227   1      1.8405274428055349      8.6423422199463609       7.885607463460488
   228   1      5.4960544325406513      15.306634863482136      10.492089825662408
   229   1      1.7148332075534871       4.658792051182763      14.456872589961964
   230   1       1.610830616969444      18.010438443828846      10.476660725232183
   231   1      10.168591002981534      12.534583264256664      17.449183656115416
   232   1      14.390899910177785       13.08901744583147      15.926511496383226
   233   1      3.4014716800673144      17.307125322685277      17.606883992316074
   234   1       11.42539291143817      16.500520911262647       2.263572086262482
   235   1      16.102367081176769      11.452501425980433      20.375666504992839
   236   1      7.2335732951358738      13.385461838312384      19.720510424854048
   237   1       2.168973389898933      19.830543782692796      14.554773056246258
   238   1       1.435344517366171      6.3680001969770617      14.984006355771681
   239   1      1.4250517023392781        12.3179747059944      7.3184385643484839
   240   1      13.137770061544108     0.96784233149285726      18.440592692177361
   241   1      5.7895867013289921      21.097866023554349      9.0174456799490219
   242   1      9.5507661907536097      3.4620686355794512      16.817143066001737
   243   1      9.1476457636675796       19.96569361021632      8.8808876900854887
   244   1      13.510384003451138      8.4125837231038112      5.8020393640503665
   245   1      2.4820897027431803      2.6487696085335215      14.505675648395648
   246   1      18.199078547248654       16.50063926761997     0.83828315228241945
   247   1      18.546709918587261      19.199120983895885      1.4975241874210519
   248   1      1.1898990600060713      7.9810316694814727      2.5258788379722876
   249   1       13.29335662767075      13.654340878239132      17.472611320872616
   250   1      13.617272453797479      11.138000132497032      15.479488982357672
   251   1      1.7779269518444523      1.1646158349061473      5.1864855427853023
   252   1      15.345514977893801      10.297285968180907      18.480507154313532
   253   1      19.304429514647602      4.4573397195307756      13.181167963574174
   254   1      13.362998208559715      15.511724287783744      2.7838022166791356
   255   1      15.145931324312606      19.233953562493134      3.8018624124073761
   256   1      10.415963362709917      5.2310900833272322      18.423942801691222
   257   1      10.234747971637065      10.515937895620633      6.9827643011567933
   258   1      12.546073855519468      3.4599538522079327       8.274779993129826
   259   1       4.999103927380105     0.96419928817203449     0.80549185110883059
   260   1      5.2624726404472471      13.057990494086424      14.954492671668643
   261   1      3.5343909337858328      3.5466060333135587     0.77592001020342083
   262   1      15.581315122507759      14.045246092517568      10.042576053068617
   263   1      17.861555934669017      17.046939417723934      12.385342005328503
   264   1      10.732433146009651     0.87962798058071401      3.1387504558441131
   265   1       10.34336199211026      14.109986024192013      2.9548401051262259
   266   1      14.248960136831542      20.522085657474165      1.9868178155562923
   267   1      2.2553707908360083      13.919156633443414      21.146303079581138
   268   1      5.7505775201401885      7.7950686695289715      9.5598710783585723
   269   1      18.588254133773574       8.551087010259053       6.919599134139534
   270   1      9.2163801175935713      17.304315278192551      2.5434682876872343
   271   1      8.3825022536714027      14.715187469766859      8.2213873610284498
   272   1      1.5487311693701931      12.768192510813796      14.138519409470172
   273   1      8.0444480369478999      8.4385747187771631      12.275697683278615
   274   1      19.614853132407926      1.2751801061124313       19.77145892815491
   275   1      7.4398817249507037      2.1459336825852957      10.280418622068181
   276   1      5.4330603880443737      6.0275425168904881      6.5018586037872836
   277   1      16.990990396122356      11.407955955935167      6.5868686687123876
   278   1      11.642082675914896     0.91855310121179456      13.396665003015189
   279   1      20.130465398315938      12.729328762482933      17.332977779044757
   280   1      5.0118749638361342      16.514911373631016      5.8145406311264756
   281   1      17.405456067235352      8.9657539285440162      14.124493317595798
   282   1      2.0214037981046995      13.200057212002749      9.5588203461680763
   283   1       12.41187711504609      3.5549635421595784      15.591296317208323
   284   1      13.583287448207271      12.845325368170288      11.567410856960127
   285   1      9.0601505685692167      15.183441502303427      14.651054254705928
   286   1      16.934509552663936      4.9450456702772687      11.425954355395977
   287   1      11.897474071680101      20.262113657890328      3.7091837486811268
   288   1      9.5292670800637769      15.999438989247054      7.3541643504264345
   289   1      2.4621626204582099      17.296179592430953      8.0534970807986053
   290   1      10.262600879422894      11.802929383330744      11.449796138640201
   291   1      16.716023221874767      6.4466169027494971      1.7121474723240335
   292   1      8.5265398858323387      3.6715545234407174      14.704267084269134
   293   1      14.500715581714575      12.348100951648783      20.978178850549781
   294   1       14.68825651939401      21.147361608599887      18.314003338941728
   295   1      10.778713999543962      21.088817580314487      17.222559159340907
   296   1      2.9010642116825469      11.326470699147132      4.5533935462619217
   297   1    0.017617101671989082      13.743462890101112      8.3097225610883232
   298   1      10.071928547154084      7.9533104226951696      8.3466083457226805
   299   1      9.7212999612900415      16.609935735736443      18.875359341735528
   300   1      18.939534798058006       13.47110782404617      12.990041380569384
   301   1      1.4102710561454779      10.968843901444433      3.1773820216310598
   302   1      20.478667750600234      6.2512297427167329      16.275767883287205
   303   1      19.637050638264949      4.7525761173561989      7.8745733417109953
   304   1      13.664522333778025      6.0494182357753017      17.264382931084711
   305   1      18.225476133733459      17.911149612591412      19.443298092815997
   306   1      2.1480963264757369      18.869029402566674      4.2219544840034473
   307   1      15.505133823195285      11.473038635239728      12.490994332848059
   308   1      18.577412075213605       13.40085253555087      16.235919067722421
   309   1      3.3869089646365391      9.7659597732666672     0.19744501801291461
   310   1      11.880288378419138      11.862843160382482      12.769019249557726
   311   1      14.313187477165203      17.032527094674432      5.7090577984430615
   312   1      10.961877276133572      6.3206471492662377      19.903557360633183
   313   1      5.4863843763007614      9.0909829914315434      18.465844432179619
   314   1      10.218997281876367      2.8242637448121011      1.7054238846548493
   315   1      15.402255154077944      10.504476498807165      9.2431964058779883
   316   1      2.8639174879206051       15.89812595715993      13.900322244830093
   317   1      20.240729325776087      1.4590625243966355      1.2072041782846841
   318   1      5.2800751463626368      5.7541048144907361       16.06788600268079
   319   1     0.71122034723251859      1.3256608299550263      19.179045291101993
   320   1      19.039310906345225      0.4617548774253582      14.044932066692496
   321   1      8.8611255023708733      5.5046027029052809      15.463227314071029
   322   1      20.762978485976468      5.4278446549119392      13.841489298206117
   323   1      4.7674151023245974      5.3101302761078246      17.997936689929698
   324   1       15.29381669650016      1.4317751024810002      14.976876052851178
   325   1      9.7815767316238276      8.7124268113883581        13.7737574321634
   326   1      18.420314586305437      5.0526192806046035       9.547641469627159
   327   1       20.84110840377523      16.334786469617811     0.57482752969330408
   328   1     0.49414089527891997      19.264426541549327      9.8203132735521681
   329   1      5.8589411604007209       20.81004353955062      2.9772741179990718
   330   1      18.670790171843954      17.003212461551712      10.689522543500049
   331   1      3.4326492420979622     0.26675883231810926      11.843706996927448
   332   1      11.442497087630764      15.027819903310833      6.6512422183898741
   333   1      9.9693039381861031      17.384775105979831      9.7174581486155311
   334   1      7.5705489776877029      10.456896804371549      17.524683988073345
   335   1      2.1293590103362323      5.0754262809142086      3.0039438591681615
   336   1      7.3619906886711384       9.528844808266312       15.84419772020645
   337   1      13.777441538365256      13.138046176566165      7.4557985612145146
   338   1      1.4735167107262377      3.7002652436696266      18.106294687275618
   339   1      14.687329212919222      10.847112167519645       6.459979422318419
   340   1      18.293048861666552      11.566370006666423       8.048784094859613
   341   1      15.655415154022831       19.42531358381104      5.9252280527814616
   342   1      15.820284821575846      11.377468129491438      3.2252217386507391
   343   1      18.466343546664902      2.3820555942761539      14.889086039680681
   344   1      2.4318337111010506      1.9858988724322304      19.246528156583953
   345   1      10.318405049964767      13.800222583063466      20.112008877045874
   346   1     0.96586847138977427      2.9627289769549794      5.8570330768727343
   347   1      20.556376407250685      7.0108745317763059      10.199365937044512
   348   1      4.1491742206973052      12.923317105712888      5.9388941652520089
   349   1      16.981675946704762       12.10381014091282       10.84738665544573
   350   1      15.340990899414873      15.565298531936312      20.941703380116977
   351   1      2.4224104902503205      8.1215348011535848      9.6533750193438568
   352   1      14.558551509718825      4.3508527856957562      14.563465846073427
   353   1      19.925699239693692      14.146133331737582       14.35977936338392
   354   1      2.5508603157325234      19.094745908478586      1.4058658934629684
   355   1      6.2426801473612512      10.283142480102853      12.212803794521349
   356   1      16.693906524158905       9.445660141587954      16.892696405947035
   357   1      2.4867749110160489      16.953666868971588      4.6553349706859519
   358   1      5.5165379821591323      14.294429575029412      12.805927036824134
   359   1      20.336384973396999      8.2409336406352995       8.156933778418237