NVT_2.58/Hconc-50/2/SiH.data (written by ASE) 

1000 	 atoms 
2  atom types
0.0      21.158707884739954  xlo xhi
0.0      21.158707884739954  ylo yhi
0.0      21.158707884739954  zlo zhi


Atoms 

     1   1      19.113880087856927      19.009629629323957      20.841914816809854
     2   1      20.791792460778066       3.491088775122293      19.833082221440112
     3   1      17.924052373395142       17.05016093813034      15.462214885357049
     4   1      16.966904441983097      9.5841784261373615      2.1165021325607039
     5   1      21.013570518894952      15.461719380418348      18.715282935517649
     6   1      3.4800636878378004      16.495548148489974      8.5296013075907702
     7   1      9.2758082479619457      5.7333406365694559      17.761722696901177
     8   1      2.0491131512343288      16.909387982735709      1.0564721177875853
     9   1      17.480358045044223      2.4106106821101139      5.8629673227521009
    10   1      20.581951995265605      17.306078132887116      8.1442256802708659
    11   1      7.7204249454169354      5.2032854426385935      8.9975216089799428
    12   1      6.8154682067841801      12.473051436856395      4.9392890924922863
    13   1      17.214110544420443      18.888631900734012      12.566501655317531
    14   1      16.259454198854865       17.63076819307506      14.794933941978208
    15   1      2.5038369829438079      2.3412182209533801      18.118637378765786
    16   1      13.645587815022269      16.746347360127938      4.3327980407366757
    17   1       6.727960567966468      2.4607328600794256      2.8198820700533291
    18   1      1.1350668232067489      11.510863912604437      20.091023279098685
    19   1      4.4869481038576646      13.932609613147468      12.826602915204827
    20   1      13.085456369121236      8.3938675324009431      4.9147471335130977
    21   1      10.719008958653699      4.2415194185274485      20.428200275447487
    22   1      10.429236147722435      18.301723702166672     0.42480446972815433
    23   1      15.988565280339147        7.61721762505121      6.4443082971886625
    24   1      3.9689675427574964      10.336137887148491     0.23584284692673413
    25   1      19.672351173765854      16.860741816000054      11.148982888375379
    26   1      7.4485636098264196      19.662427191817727      10.225841566041808
    27   1      2.7185579722578685      13.189964055510526      4.2547575217393989
    28   1      5.6685445844275426      18.360316555932918     0.69364735187974491
    29   1      9.5560649419061505      0.6596889491653517      13.421211599012826
    30   1      9.9313398529914103      16.352587129546336      7.7588907780887544
    31   1    0.028253785785521495      8.5319008199838091      13.465661333342871
    32   1      18.006915613053398      3.3977430725643636      12.171566104852296
    33   1      17.723732392473565      20.432250955569319      8.7759667203813247
    34   1      17.248706193569515      13.449047517827026      19.134064294272736
    35   1      10.699614750290738      5.4395708944241425       13.20009427711255
    36   1      7.3092159207245819      3.2554249251384335     0.75637900502675603
    37   1      6.0514353666579508      7.9639103342538942      14.222037189302592
    38   1      20.093797719124737      16.572658575767914      19.876819199625807
    39   1      19.026334248148014      2.4636628151420208      7.7705118448531909
    40   1      20.678467669063554      13.314724848789487      19.861744094045992
    41   1       13.69687586637556      6.7196725162300011       11.04292331580381
    42   1      2.2757584866248033      7.8813777220966568      15.674651582596677
    43   1      8.4399061556111636      9.5403641590684565      16.558567278006315
    44   1      9.4336323997387606      10.775488579451499      20.451101876652842
    45   1      14.925296043678891      4.0461205398181015      9.3136101858375575
    46   1     0.34196027490273012      10.427842894720682      8.6953117087779326
    47   1      9.9015099560651265       7.278099751901979        15.0042246208222
    48   1      17.300292927631578     0.86398709439883359      7.8565626622772262
    49   1      13.399162788950898      19.585329878112738      12.290021964374619
    50   1      14.511114941142724      13.043447172610996      6.6953538684078771
    51   1      6.1078178976364343      17.339225680762524      19.249298966288013
    52   1     0.97356813003624076       4.219594834342824      14.289579943161506
    53   1      4.0328161764069375      18.665003297567743        11.7034435185167
    54   1      9.2206775312334877      3.0817850352105935      2.4724978706138092
    55   1       2.905069634173949      2.7872713589379172      10.381773608029986
    56   1      8.2355581464806047      1.0119473476209175      6.6001038851265754
    57   1      16.613663676863666      17.467450278102902       2.232448862889012
    58   1      3.3084283055231833      10.120418734871633      12.595902492609657
    59   1       14.53704547786362      18.977885208759115     0.36892945368717578
    60   1      8.9247809396982163      7.7798346069700655      17.339992055070173
    61   1      5.4155254115763931      13.227160659648794      11.220749388728642
    62   1      3.2570377841312359      7.2497885077880948      7.2040045503597865
    63   1      10.836657766556627      20.819160938243421      1.4397242052121122
    64   1      17.967499331689204       16.85805561630885      21.021470192734586
    65   1      2.6881923483407619      7.7695388288277876      17.699939245760902
    66   1      20.949232041323466      1.0735405833236735      11.900379857839079
    67   1      2.9580615347514265      13.020541712205315      16.749409279773506
    68   1      16.253928903238805      2.1387492480054289     0.30108286944317092
    69   1      16.000570826976155      4.3506906893785793      12.025869866120855
    70   1      7.2311929241563107      12.243969152024542      8.5433397487275666
    71   1      18.756611889788033      10.039638226311613      15.357482003677328
    72   1      4.3575789126504745      20.404544855245025       10.73915113039024
    73   1      4.5037825678592389       5.639577761361025        5.61755123329272
    74   1      19.320962294656891      6.6939433637442969      1.1952504984525483
    75   1      14.172416186289338      1.8086031481557177      3.1601273328535209
    76   1      4.5938072121089801      5.1323050619000243      16.433471894567937
    77   1       21.00112680057649      3.6477473769554889      8.0661903812336426
    78   1      3.9699875111933509      11.572451293465784      9.6353224925587639
    79   1      16.044671707874262       5.927275321433223      3.9379126010787151
    80   1      17.808866571586258      12.401836119138613      9.5961287137826918
    81   1      5.8713598273707985      5.3382169647254409      20.481140129514518
    82   1      13.420598766120667      4.9012328700792667      19.385638837520347
    83   1      10.461989026897122      3.3351226791076081      12.506088664263515
    84   1      19.914774801068621     0.32478708572213194      15.289100648872314
    85   1      8.4915642894245327      4.8028697740866768      4.3461013711149628
    86   1      19.212734229065177       2.605746107334233      13.554801844318304
    87   1      16.286795289569177      0.7222525380453112      9.5082384823225343
    88   1      16.097872615314351      14.902011683364298      3.9965552767893762
    89   1      11.579599889522218       5.952930717025092      16.870518205406537
    90   1      10.728113962468028      3.4062000767008831      14.900608132073632
    91   1      3.5758742477588434       16.07193839458035      14.065101924143498
    92   1      18.676466784916137      13.633194447050055      12.430754247845657
    93   1      16.764030493116252     0.82825832197893323      19.254260813856366
    94   1      5.8958349907404761      9.2928378606144033      2.5227075069073748
    95   1      7.4376775184082815      16.165075486532906      15.161471054274557
    96   1      3.9947240352211741      1.0241811255157343      3.0871627127332077
    97   1      19.230473090801418      20.876419075319589      18.158449807187772
    98   1      3.5976473778086162      3.7546929239302949      15.311746587360393
    99   1       8.644371153535829      9.5685454994291863      13.645231759168205
   100   1      15.349410129882621     0.99126316837810524      5.4207159607461683
   101   1      2.8049288963239332      8.3654599621282877        8.55632041336162
   102   1      6.9940311528486534      19.331881668006279       8.322711349423356
   103   1      1.7045119042669024      3.5317618527161128      19.595951786254915
   104   1      12.876218012108151      4.0547055918916515      9.6933289464957273
   105   1      5.0261693924715729      9.9599475227768952      19.073488548690158
   106   1      10.725082064127355     0.33075390088104895      6.2524859198669409
   107   1      15.609309039292686      6.9009343119491424      20.382195317206033
   108   1      16.101775669560155      5.7016160922093624      16.994258582911428
   109   1      12.423567743580303      19.621579266211839      19.585650099818832
   110   1     0.33569579004342831      18.267932050212849      16.511040183038105
   111   1      14.489455304924693      7.7968138762939194       9.718821308417656
   112   1      4.1740591886723921      17.404633285523392      1.6781484251845344
   113   1      7.5982116601732095      11.185236241791349       3.160682645916653
   114   1      13.351048339501139      19.534496349816465      5.4237501642560435
   115   1        2.04838923911093       13.39376133541422      11.957783660484779
   116   1      17.724476636423436      18.084248900217421      10.600712475458629
   117   1      11.094314958666342      6.0643191055003021      5.0798572161482083
   118   1      13.004137553766817      10.456648271572934      17.595375143757323
   119   1      20.665027063390614      14.490719300355941      4.4032537599573685
   120   1      6.7245731572949587      13.157738346381253      15.666226745467215
   121   1      13.104330236703278      0.0935901989794094      6.1327645498733023
   122   1      2.4312969320251416      11.604154436983517     0.54984952057320768
   123   1      5.6393160461760914      5.8626242531496002      14.946880939577886
   124   1      6.2331837948308948    0.072450483152910347      3.2769148151622685
   125   1      15.368618092546159     0.34311284686231724      3.5606113369205166
   126   1      20.321455901942393      15.607599382442617      12.547601528363916
   127   1      6.7730486721245491      7.2260207839645583      11.120941951477514
   128   1      18.695926581289829      9.7255509564001379      1.1365647369036951
   129   1       2.024821502551295     0.83269286657999964      3.2949943368165964
   130   1      2.4924210382319631      2.2234473100268919      1.2055332045177214
   131   1      4.8904375179969808      13.476454560640137      19.264414917146045
   132   1      20.956839121416078      11.662168237434638      14.739244577233967
   133   1      6.3182741222950387      19.980794391462489      17.772380509228597
   134   1      1.5870861413846373      18.309223978747603       4.080780100120772
   135   1      13.601694592596001      17.651843358499924      1.1936059953439968
   136   1      19.384098127021897      18.895869087805085      3.6163167136510359
   137   1      17.606718534283466      11.390481254104138      3.9836744263324348
   138   1      11.305508614628971      7.2083560450505431      13.074786343779296
   139   1     0.61562457071833121      2.2504377536144853     0.41054397861167302
   140   1      1.9032830407860202      11.200530107581482      16.176658605236298
   141   1      4.2234541180584824      13.319569293343696      7.8391398109795984
   142   1     0.14337075120570358      16.421197975656572        6.26886716793791
   143   1      3.3257909879180154       8.810868774175443      19.398541481330671
   144   1      21.045769748052248      10.612893638408345      18.059167370972848
   145   1      19.359582422103252      5.4376247047903519      18.478940777055396
   146   1      19.492764317549256      20.910533426619601      11.164797455700743
   147   1      1.3160514465900381      8.8652232328540173      4.4634966996359244
   148   1      9.0447262369622194      9.9833085861761148      6.1720217527844481
   149   1      11.323867896787229      17.379438408992428      6.4139829233542693
   150   1      20.670268943329944       1.615494262769249      18.827324859743211
   151   1      12.530263437955464      11.185463880734718      9.6438177577469233
   152   1      13.549666508795703      8.4494844481277482      18.198323359109924
   153   1      17.528848296642764      3.6074780740422345      1.4697223226446536
   154   1      9.3488129460324743      14.946185959410034      15.573755135687565
   155   1      20.340076854146432     0.13410655370770375      5.0505312044720867
   156   1      12.180550002894904      18.344580732984547      15.867419739729753
   157   1      20.538164211079497      8.6567391925552855      18.874635918782875
   158   1      7.5285398274797348      10.250564368294727      19.182225058873488
   159   1      8.1361318365810522      15.323381211040751      17.741748325434731
   160   1       11.02989483144942      20.056379731870862      17.982575160100147
   161   1     0.69246544608044391     0.10945073239271477      17.667585143486772
   162   1      3.0785093398310854      20.955829061982989      4.8764806326735517
   163   1      16.829124472564157      9.2467041796312532      13.987455962528152
   164   1      10.347041780279824      11.387788306986362      10.786130273588888
   165   1      16.296089561303756      12.365539545280853      13.646689505435493
   166   1        15.5785702602874      4.6104778045416799      18.524533949369619
   167   1      1.3104789361472819      11.901694378494581      5.7678174395818962
   168   1      1.4560910540643481      1.5178185819648455      13.710645459454161
   169   1      10.550870596356079      16.549442783014339      17.237967321666535
   170   1      10.863451536701231       9.040394809384825      1.5287873304864845
   171   1      13.883634667562587      6.2960532073067084      17.747346634738381
   172   1      4.3517927878817311      19.709551428969601      20.520673343185237
   173   1      7.7737160371768201      12.135386664790271      6.6982431356322243
   174   1       17.19747204638422      13.119396869527634      3.0085362475092516
   175   1      4.0147501666492076      19.424557640286377       6.417623875721775
   176   1      5.6165114167110879      9.7936570333600699      5.7387152641974835
   177   1      15.774571547117972      3.1955925775331524      16.920940308306122
   178   1      1.8520104211258219      15.761665036992976      5.3338162466822601
   179   1       13.68357647179532      1.4499040490060173       10.23812096412138
   180   1      2.1197716939274689      7.7417374523294837      11.981857652732009
   181   1      11.390760229409528       13.63969139121637      18.146924108695231
   182   1         10.201733978996      20.011795248984068      15.183505679022035
   183   1      15.967879537231042      10.030289988107585       18.79223597141916
   184   1      5.0309517557729535      11.989943563813169      18.110894680995504
   185   1      7.9964596720423016      8.8879208366978091      11.228625722422237
   186   1      9.8546959912675689      7.9912877692521196      9.6302413106150464
   187   1      16.256795372848828      13.418650586958773       16.93360879501034
   188   1    0.066128392378593165      10.463210126747084     0.70262330757685987
   189   1      10.627870715589037      13.595024749230193      4.0273635589876005
   190   1      14.531869444497543      12.868450189941065      12.378322787476177
   191   1     0.88946144941350058      4.8659374655775256      6.3152762872967578
   192   1      9.1013903318207081     0.64801904511924135       11.67471753906627
   193   1      12.283005538075631      5.3264131904955434       12.28371934648642
   194   1      20.940648049834451      3.5474705527749788      1.5011631437162472
   195   1      3.5298278456293692      14.546206879160032      19.912948211878657
   196   1      12.734714918116991      13.598518900561432      8.0569792171588368
   197   1      9.0504296083649862      19.438370686401807      6.4668433535596996
   198   1       11.98333392858342      15.850119021887075      8.1340817684780724
   199   1      9.0365562900621796      13.621083072523732      1.1886270150889879
   200   1      14.651331950136781      3.5610460599548799      6.9996316036083073
   201   1     0.47098354682757859      18.740971072174791      19.586331011319288
   202   1      7.7437104364312024      5.3925122375177574       16.50224408056398
   203   1      15.918935008508068      5.4104802277917283      1.0281893961859754
   204   1      7.8458221722112746     0.17200217816050567      20.548457753285582
   205   1      3.3747956187755226      3.7842530240376071      20.336579816609913
   206   1      18.917342773480307       6.916933916656185      14.053677411266316
   207   1         19.868250848469      10.279611924262559      4.4638447776085641
   208   1      16.520828245264905      1.8221354316380316      2.0830680398285923
   209   1       4.412996667338418     0.14544758641951039      16.502765873628817
   210   1      15.975760663174658      10.493523013070815      8.7564450101219045
   211   1      10.664403248454933      9.8436665900057339      17.417988661637423
   212   1      17.638507894709207      16.592513951879663      9.1345839109736993
   213   1     0.71090696319048596      6.1501360783905712      8.9016922635195321
   214   1      9.7714087428860505      14.943323007639174      6.2358848881084734
   215   1      3.4172588191189388     0.20315330966880057       18.54422530646633
   216   1      6.1995138357037067      20.875189032585045      6.6432885975025062
   217   1      8.9558637860986128      15.388895408905823      12.320360155904911
   218   1      2.4292343467170889    0.015191139606514905      20.354772392703449
   219   1      7.6475726209302897       5.640193257512931      20.680645966801105
   220   1     0.78213649808306385       4.459597301647765      17.399964996221975
   221   1      8.4864594018294532      7.2158031204476227      20.957190564719799
   222   1      4.7826160682853169      2.6254806384415299      2.0611471046446042
   223   1      7.6719722578729961      20.776833333373329      15.094719229413645
   224   1      12.468005062552022      12.920273484634258        2.12887990685438
   225   1      11.386636337202603      8.4545119423600514      14.996576024892407
   226   1      5.7460558363078666      4.6460144313049074      12.395950756279586
   227   1      4.5175540055399379      21.139626611955258       14.00273041046688
   228   1      19.612526534857153     0.81081555507799163      6.8545121190554852
   229   1      7.1442355939099338      13.163133265771297      18.909195377563279
   230   1      20.359314026618801      14.212644317751371      1.9728652822165733
   231   1     0.20474546381015823      12.122554844150079      12.793446902765472
   232   1      19.283167876505566      14.186217740331726      16.415554256473932
   233   1      6.3474550287131972      10.734712617327553       7.335205014057534
   234   1      8.1307256654383178      3.1842958561712034      16.481738095710643
   235   1       15.34878685942293      11.511388053627417      1.9999949291694876
   236   1       10.65306019663084      6.7416527819317134      6.8171495306654597
   237   1      1.2723979601793221      15.899639009172503      8.6864134882221489
   238   1      9.0949461185437919      19.466541430047752        11.5037490745794
   239   1       8.196624807810986      13.076670908734357      3.8541363852442068
   240   1      6.8985558932029676       17.61642513798374      9.5901829493900852
   241   1      8.0492320875709815      13.598074443659998      17.134622978722263
   242   1      20.311702151543059      18.852362436429097      5.3878537810380429
   243   1      8.1130132979855034      16.516747808862654      5.2564062939443961
   244   1      17.816935176664263      3.3983616860729948      4.2853728166477785
   245   1      17.171232499717458     0.85068461879100843      4.4988200620013004
   246   1      3.9996130914036865      6.8461691267538241      15.670339579679657
   247   1      4.2864798926592815       12.27482386078572      2.4099065985711943
   248   1      11.335735844207377      15.595955639657536      13.014706218225768
   249   1      15.947924416756273      16.503951145957267      19.726794219816345
   250   1      2.0482433899278858      15.165204887752369      20.735137199230188
   251   1      17.209550756422473      18.889770191119116      5.4882441275257694
   252   1      11.054745049658806      20.836361594914845      20.095600589482995
   253   1      4.9977240644673477      19.179750842495668      14.300689228951198
   254   1      19.441963938182468      2.6088189785443636      2.3090849776957558
   255   1      16.169776282657455      21.028499670743059      15.665872753062306
   256   1      7.8995618841531714      15.324512416310878     -0.1388560793691995
   257   1      12.260543140402746       4.773065181672532      6.4302647365521324
   258   1      4.2581968681296365        14.2651041361236       2.177998746316161
   259   1      13.596056150196986      7.5216522635068452      16.321632240206355
   260   1      4.8542809592035443      16.688358320313124      17.188652469353528
   261   1       20.86790097574168      17.574609405151225      18.238291238554691
   262   1      10.267413919316798      13.768796928811113       7.776035365504173
   263   1      2.5957596554308351      15.822759050605979      7.0442155877477068
   264   1      15.694784137658948      18.588531274563234      4.5442615723183861
   265   1     0.98966482331494054      4.4891682483861715      11.895825513687294
   266   1      5.1066491301949366      19.005307116062909        9.77985990953486
   267   1      4.7096730731661651      7.1240455052985174      4.3447201708349601
   268   1      7.3296957822463717      10.508559257025611      5.6373175583792259
   269   1      1.0106803755955809      3.1340360789879314      16.104577891657915
   270   1      13.158740007261288      1.4332704446731304      8.3942732429214644
   271   1      3.1927317101128092      1.0331732942160536      10.011058928402555
   272   1      14.018029235372794       9.950705185571973      10.690809617917163
   273   1      1.7431066217928675      14.903051619116015       13.56568286765903
   274   1    0.034199359802486333       7.661648347810579      15.501955870071127
   275   1      18.529237293596406      4.7962865631112193        14.5668914635094
   276   1      12.340980936601051      8.5950363332314463      8.9340153427271201
   277   1      11.861252745848013      17.654686750392568       13.27554292331399
   278   1      2.8752329779183428      7.9536767595385687     0.26638587489321586
   279   1      12.574831000443144      3.1343920666399674       20.15437299462754
   280   1      12.550654200100329      10.598368715911823      3.8202119066549534
   281   1      18.572370253676194      10.613718613076605      17.335490525851768
   282   1      18.166709059430026       10.43284798607255      9.0605780585538831
   283   1      1.0214858059780529      12.357614922306423      3.6222665320315213
   284   1      4.1365380774745377      7.3008091343777242      10.082525845538431
   285   1      20.028352146472944      9.5613356183117766      6.1116387456654575
   286   1      4.5807539775286399      14.817937258263502      6.0803857439430002
   287   1      3.2859671336023917      19.908588925565819      8.3792135408995811
   288   1      11.380543045047782     0.78216218330673903      4.3438551738033233
   289   1       14.63043627011792        3.23982926221607      13.937933001694965
   290   1      17.598081910752189      11.019159620846802      12.148398405720764
   291   1      3.5933824800620906      1.5623563083181267      4.8632678486515868
   292   1      4.9631413258133321      1.7277067141581091      9.6677683929912455
   293   1      11.040970077662914      9.8185057357962879      20.956998089157167
   294   1      14.195978293316902      3.0484978816876147       15.75107825108981
   295   1      20.519552564296085      6.0797103380307345      4.4947569857745941
   296   1       17.54970032327584      15.272114542486836      14.913620698833931
   297   1      10.418239351561864      4.2204633738590793      9.4691333611371018
   298   1      3.5180830784110944      11.825304677990728      19.821424741842474
   299   1     0.10883025654908275      13.160901693655333      9.9866026894524893
   300   1       1.183229351107949      3.4036633749472949      10.427605679510311
   301   1       19.62426820258343      17.602632509296683      14.086448141019304
   302   1      7.8406924547006653       5.015003753873212      6.1393726624858047
   303   1      17.556924965803994      7.1312161415491353      20.648714284508191
   304   1      14.178889612826667     0.21712434331210229       15.64459428975732
   305   1      20.011241862847363      2.7004234877507591      4.3147001845073509
   306   1      7.4946999388025697      18.420023699619591      6.1852235015436934
   307   1      8.0311336861131863       6.947597102882936      12.711729855884201
   308   1      18.943497754257141      9.5650485552951903      12.426360910888343
   309   1      15.166185372227989      15.358170630470548      14.304560688988616
   310   1      15.225027287297726      19.585384822271507      6.0260600522025589
   311   1      8.9220059934719735       16.05222818621467       10.12127188431273
   312   1      5.7017387967247908      9.8515154711161763        11.0894075744555
   313   1      19.294777258722441       14.25343760017314      20.690012251279036
   314   1      16.616703927482014      3.5627881891712785      7.1780207495370547
   315   1      18.208499678530131      13.018053218198707      14.979435737618541
   316   1      3.0297486711674497      1.6274841769368016      12.070546455505101
   317   1      2.1755511516975323      1.9707537209970398      6.3774380988963939
   318   1      8.7993682022057929      18.846332002723873      14.485131011083418
   319   1      13.026034419102384      15.748723185741952      11.515978036586311
   320   1      8.9221666968460713        8.59352302549153      3.8721211304693544
   321   1      8.0301350644356315      20.217584346467348      2.0531670230112948
   322   1      6.3632648041744888      1.7278596336879892      18.057016368312443
   323   1      15.581080390330422      14.566139836503107      7.9800316819151229
   324   1      17.335318098566365      18.433692921740132      8.5151307825068869
   325   1      6.1850036510173085      12.034825034764497      20.849848900077017
   326   1      11.954347439213715      3.8091697840597805      8.0327604822091754
   327   1      4.8032411124292658      2.0877775572576445      16.525609207600652
   328   1      6.6539589313824843      9.2145907967430105      17.758680457991698
   329   1      18.006222750508226      20.745637350110197      20.915097622072388
   330   1      10.932039374986912      17.444786394854788      18.945514188430558
   331   1      4.7854899177712458       15.23834871834223      11.477140132007284
   332   1      2.7241730679604559      6.3408827902444154      19.974271172095076
   333   1      9.2437030806086469      18.204256154832592      8.2539813885659807
   334   1      9.7153105318882673      20.344073261906249    0.063731651466590822
   335   1     0.70261688366121144      8.6873720172610902        17.1090831907295
   336   1      18.392788359937128      20.180184415551437      4.4904480954258625
   337   1      13.282763111421593      1.0990030622465481      19.663760752128074
   338   1      18.988517121664458      13.360056637331722      4.4825829909344499
   339   1      11.077939762152266      15.394573765983289      5.0198959357369155
   340   1     0.40674481903198095      19.738011996855906      11.618769883099928
   341   1      12.708500403721326      1.2696380599413937      17.697734431823569
   342   1      4.4979373232120112      11.401878259677128      11.493777409471269
   343   1      3.5075741548896806      3.6655877690979128      17.120623530245336
   344   1       2.662071594365746      18.258769057467074      2.4717973628914671
   345   1      17.037790958311309      4.7804671875678482      20.546085733823681
   346   1      13.730611139378423      13.945932481556222       9.526910497695912
   347   1      2.3477552367191636      7.0801572298687656      5.1480140558372218
   348   1      8.0859230217562388      1.1480659090188563      9.7316517809760406
   349   1      11.520620074233848      10.136012570092115      11.860070497799741
   350   1      7.8524004630923212      5.1439408395576383      14.062028032466422
   351   1      4.0574742702038575      12.110015937213404      5.3593943058382569
   352   1       9.598355149502293      18.676685637553017      3.9404526538353211
   353   1      14.414963501665001      20.691535550711407      9.2571767176183144
   354   1       13.82752732189347      18.005291053481759       6.847000247291211
   355   1      7.7588834200899752      13.775536072326689      13.015238231328476
   356   1       10.06270507537438      7.7115960769271759       2.463871346742617
   357   1      1.5022894458035021      7.2944009833215366      13.803896106355225
   358   1      9.9282209691932799      1.4778569366246102      15.413819037861856
   359   1      13.727080781571267      10.832282164956521      6.7629056314999021