 vasp.6.5.0 16Dec24 (build Jan 20 2025 08:32:48) complex                         
 executed on        HPECrayEX_GCC date 2025.07.28  16:04:11
 running  128 mpi-ranks, with    1 threads/rank, on    1 nodes
 distrk:  each k-point on  128 cores,    1 groups
 distr:  one band on NCORE=  16 cores,    8 groups


--------------------------------------------------------------------------------------------------------


 INCAR:
   SYSTEM = a-Si SPC
   NCORE = 16
   ISTART = 1
   ICHARG = 1
   ISPIN = 1
   ISYM = 1
   EDIFF = 1E-6
   NELM = 150
   EDIFFG = -0.01
   NSW = 0
   ISIF = 2
   IBRION = -1
   PREC = Accurate
   ENCUT = 1200
   KSPACING = 0.23
   KGAMMA = .TRUE.
   METAGGA = SCAN
   LASPH = .TRUE.
   LDIAG = .FALSE.
   LMIXTAU = .TRUE.
   ADDGRID = .TRUE.
   ALGO = Normal
   ISMEAR = 0
   SIGMA = 0.1
   LORBIT = 11
   NEDOS = 2000
   LWAVE = .FALSE.
   LCHARG = .FALSE.

 POTCAR:    PAW_PBE H 15Jun2001                   
 POTCAR:    PAW_PBE Si 05Jan2001                  
 POTCAR:    PAW_PBE H 15Jun2001                   
   SHA256 =  030f79b5d3ab3cf0e668861823c8fb652ff669f3e15e46930bd03bfd63a607b6 H/POTCAR              
   COPYR  = (c) Copyright 15Jun2001 Georg Kresse                                                    
   COPYR  = This file is part of the software VASP. Any use, copying, and all other rights are regul
   COPYR  = If you do not have a valid VASP license, you may not use, copy or distribute this file. 
   VRHFIN =H: ultrasoft test                                                                        
   LEXCH  = PE                                                                                      
   EATOM  =    12.4884 eV,    0.9179 Ry                                                             
                                                                                                    
   TITEL  = PAW_PBE H 15Jun2001                                                                     
   LULTRA =        F    use ultrasoft PP ?                                                          
   IUNSCR =        0    unscreen: 0-lin 1-nonlin 2-no                                               
   RPACOR =    0.000    partial core radius                                                         
   POMASS =    1.000; ZVAL   =    1.000    mass and valenz                                          
   RCORE  =    1.100    outmost cutoff radius                                                       
   RWIGS  =    0.700; RWIGS  =    0.370    wigner-seitz radius (au A)                               
   ENMAX  =  250.000; ENMIN  =  200.000 eV                                                          
   RCLOC  =    0.701    cutoff for local pot                                                        
   LCOR   =        T    correct aug charges                                                         
   LPAW   =        T    paw PP                                                                      
   EAUG   =  400.000                                                                                
   RMAX   =    1.123    core radius for proj-oper                                                   
   RAUG   =    1.200    factor for augmentation sphere                                              
   RDEP   =    1.112    radius for radial grids                                                     
   RDEPT  =    0.926    core radius for aug-charge                                                  
                                                                                                    
   Atomic configuration                                                                             
    2 entries                                                                                       
     n  l   j            E        occ.                                                              
     1  0  0.50        -6.4927   1.0000                                                             
     2  1  0.50        -3.4015   0.0000                                                             
   Description                                                                                      
     l       E           TYP  RCUT    TYP  RCUT                                                     
     0     -6.4927494     23  1.100                                                                 
     0      6.8029130     23  1.100                                                                 
     1     -4.0817478     23  1.100                                                                 
  local pseudopotential read in
  atomic valenz-charges read in
  non local Contribution for L=           0  read in
    real space projection operators read in
  non local Contribution for L=           0  read in
    real space projection operators read in
  non local Contribution for L=           1  read in
    real space projection operators read in
    PAW grid and wavefunctions read in

   number of l-projection  operators is LMAX  =           3
   number of lm-projection operators is LMMAX =           5

 POTCAR:    PAW_PBE Si 05Jan2001                  
   SHA256 =  79d9987ad8750f624c4d6acb2a16d13abf6a777132adc04dc6c8399be72b42bb Si/POTCAR             
   COPYR  = (c) Copyright 05Jan2001 Georg Kresse                                                    
   COPYR  = This file is part of the software VASP. Any use, copying, and all other rights are regul
   COPYR  = If you do not have a valid VASP license, you may not use, copy or distribute this file. 
   VRHFIN =Si: s2p2                                                                                 
   LEXCH  = PE                                                                                      
   EATOM  =   103.0669 eV,    7.5752 Ry                                                             
                                                                                                    
   TITEL  = PAW_PBE Si 05Jan2001                                                                    
   LULTRA =        F    use ultrasoft PP ?                                                          
   IUNSCR =        1    unscreen: 0-lin 1-nonlin 2-no                                               
   RPACOR =    1.500    partial core radius                                                         
   POMASS =   28.085; ZVAL   =    4.000    mass and valenz                                          
   RCORE  =    1.900    outmost cutoff radius                                                       
   RWIGS  =    2.480; RWIGS  =    1.312    wigner-seitz radius (au A)                               
   ENMAX  =  245.345; ENMIN  =  184.009 eV                                                          
   ICORE  =        2    local potential                                                             
   LCOR   =        T    correct aug charges                                                         
   LPAW   =        T    paw PP                                                                      
   EAUG   =  322.069                                                                                
   DEXC   =    0.000                                                                                
   RMAX   =    1.950    core radius for proj-oper                                                   
   RAUG   =    1.300    factor for augmentation sphere                                              
   RDEP   =    1.993    radius for radial grids                                                     
   RDEPT  =    1.837    core radius for aug-charge                                                  
                                                                                                    
   Atomic configuration                                                                             
    6 entries                                                                                       
     n  l   j            E        occ.                                                              
     1  0  0.50     -1785.8828   2.0000                                                             
     2  0  0.50      -139.4969   2.0000                                                             
     2  1  1.50       -95.5546   6.0000                                                             
     3  0  0.50       -10.8127   2.0000                                                             
     3  1  0.50        -4.0811   2.0000                                                             
     3  2  1.50        -4.0817   0.0000                                                             
   Description                                                                                      
     l       E           TYP  RCUT    TYP  RCUT                                                     
     0    -10.8127223     23  1.900                                                                 
     0     -7.6451159     23  1.900                                                                 
     1     -4.0811372     23  1.900                                                                 
     1      2.4879257     23  1.900                                                                 
     2     -4.0817478      7  1.900                                                                 
  local pseudopotential read in
  partial core-charges read in
  partial kinetic energy density read in
  atomic valenz-charges read in
  non local Contribution for L=           0  read in
    real space projection operators read in
  non local Contribution for L=           0  read in
    real space projection operators read in
  non local Contribution for L=           1  read in
    real space projection operators read in
  non local Contribution for L=           1  read in
    real space projection operators read in
    PAW grid and wavefunctions read in

   number of l-projection  operators is LMAX  =           4
   number of lm-projection operators is LMMAX =           8

 -----------------------------------------------------------------------------
|                                                                             |
|               ----> ADVICE to this user running VASP <----                  |
|                                                                             |
|     You have a (more or less) 'large supercell' and for larger cells it     |
|     might be more efficient to use real-space projection operators.         |
|     Therefore, try LREAL= Auto in the INCAR file.                           |
|     Mind: For very accurate calculation, you might also keep the            |
|     reciprocal projection scheme (i.e. LREAL=.FALSE.).                      |
|                                                                             |
 -----------------------------------------------------------------------------

 -----------------------------------------------------------------------------
|                                                                             |
|               ----> ADVICE to this user running VASP <----                  |
|                                                                             |
|     You enforced a specific xc type in the INCAR file but a different       |
|     type was found in the POTCAR file.                                      |
|     I HOPE YOU KNOW WHAT YOU ARE DOING!                                     |
|                                                                             |
 -----------------------------------------------------------------------------

  PAW_PBE H 15Jun2001                   :
 energy of atom  1       EATOM=  -12.4884
 kinetic energy error for atom=    0.0000 (will be added to EATOM!!)
  PAW_PBE Si 05Jan2001                  :
 energy of atom  2       EATOM= -103.0669
 kinetic energy error for atom=    0.0001 (will be added to EATOM!!)


 POSCAR:  H Si
  positions in cartesian coordinates
  No initial velocities read in


 exchange-correlation table for SCAN
   RHO(1)=    0.500       N(1)  =     2000
   RHO(2)=  100.500       N(2)  =     4000



--------------------------------------------------------------------------------------------------------


 ion  position               nearest neighbor table
   1  0.700  0.909  0.412-  57 1.50
   2  0.326  0.835  0.462-   3 0.82  22 1.93
   3  0.354  0.843  0.486-   2 0.82
   4  0.317  0.251  0.456-  60 1.52
   5  0.482  0.256  0.503-  29 2.29  37 2.37  43 2.37  65 2.38
   6  0.323  0.014  0.639-  26 2.32  46 2.33  55 2.41
   7  0.913  0.889  0.614-  30 2.27  36 2.32
   8  0.121  0.616  0.556-  86 2.32  17 2.33  21 2.33  12 2.34
   9  0.551  0.148  0.613-  68 2.31  55 2.33  29 2.35
  10  0.476  0.759  0.627-  53 2.35  63 2.37  87 2.38  90 3.07
  11  0.368  0.609  0.461-  49 2.27  18 2.29  14 2.31  32 2.32
  12  0.126  0.491  0.504-  91 2.29  84 2.30  69 2.31   8 2.34
  13  0.267  0.793  0.575-  63 2.32  86 2.35  46 2.38  21 2.59  49 2.86
  14  0.477  0.647  0.406-  11 2.31  67 2.36  71 2.38  70 2.39
  15  0.748  0.615  0.610-  33 2.26  48 2.31  58 2.32
  16  0.972  0.672  0.344-  40 2.26  72 2.36  47 3.13
  17  0.006  0.598  0.611-  58 2.32   8 2.33  35 2.39
  18  0.373  0.454  0.475-  11 2.29  84 2.30  37 2.32  34 2.34
  19  0.707  0.324  0.439-  80 2.28  85 2.32  20 2.36  78 2.39
  20  0.609  0.452  0.446-  42 2.33  19 2.36  71 2.38  37 2.40
  21  0.269  0.616  0.588-   8 2.33  49 2.36  89 2.42  13 2.59  86 3.15
  22  0.271  0.803  0.402-   2 1.93  32 2.32  70 2.33  38 2.34
  23  0.079  0.023  0.378-  51 2.30  88 2.33  38 2.35
  24  0.964  0.772  0.458-  47 2.33  41 2.35  28 2.42  72 2.46
  25  0.068  0.236  0.546-  61 2.30  66 2.34  91 2.39  92 2.47  60 2.97
  26  0.291  0.166  0.620-  68 2.27  66 2.28   6 2.32  65 2.46
  27  0.662  0.093  0.365-  80 2.25  39 2.38  45 2.42
  28  0.089  0.868  0.485-  86 2.32  38 2.40  79 2.42  24 2.42
  29  0.597  0.170  0.536-   5 2.29  78 2.33  96 2.35   9 2.35
  30  0.982  0.022  0.590-   7 2.27  61 2.32  79 2.34
  31  0.903  0.194  0.432-  88 2.36  85 2.39  56 2.39  39 2.41
  32  0.226  0.674  0.444-  11 2.32  22 2.32  69 2.35  86 2.38
  33  0.688  0.474  0.598-  15 2.26  62 2.27  95 2.28
  34  0.394  0.384  0.402-  18 2.34  43 2.37  54 2.37  71 2.40
  35  0.021  0.434  0.613-  77 2.30  91 2.34  17 2.39  52 2.46
  36  0.799  0.879  0.557-   7 2.32  81 2.37  90 2.38  41 2.39
  37  0.511  0.416  0.511-  18 2.32   5 2.37  62 2.37  20 2.40
  38  0.179  0.930  0.422-  22 2.34  23 2.35  83 2.36  28 2.40
  39  0.821  0.083  0.386-  57 2.34  27 2.38  51 2.39  31 2.41
  40  0.827  0.720  0.358-  16 2.26  64 2.28  47 2.29
  41  0.849  0.747  0.514-  24 2.35  73 2.38  36 2.39  58 2.41
  42  0.726  0.561  0.438-  50 2.32  73 2.33  20 2.33  64 2.37  67 3.13
  43  0.465  0.242  0.421-  80 2.30  75 2.32  34 2.37   5 2.37
  44  0.881  0.469  0.521-  50 2.32  91 2.34  95 2.36  58 2.44
  45  0.551  0.023  0.417-  93 2.33  75 2.37  96 2.42  27 2.42
  46  0.249  0.956  0.574-   6 2.33  13 2.38  59 2.39  79 2.39
  47  0.892  0.844  0.395-  40 2.29  57 2.32  24 2.33  51 2.34  16 3.13
  48  0.645  0.688  0.561-  87 2.29  15 2.31  90 2.33  73 2.34
  49  0.388  0.658  0.536-  11 2.27  87 2.28  63 2.31  21 2.36  13 2.86
  50  0.872  0.495  0.442-  44 2.32  42 2.32  85 2.39  72 2.43
  51  0.934  0.979  0.356-  23 2.30  47 2.34  39 2.39  57 2.97
  52  0.903  0.313  0.614-  95 2.37  61 2.42  35 2.46  91 3.05
  53  0.572  0.882  0.650-  90 2.33  10 2.35  55 2.39
  54  0.257  0.342  0.362-  74 2.31  76 2.35  34 2.37
  55  0.482  0.003  0.616-   9 2.33  94 2.37  53 2.39   6 2.41
  56  0.843  0.148  0.506-  78 2.33  61 2.35  31 2.39  81 2.40
  57  0.790  0.948  0.428-   1 1.50  81 2.31  47 2.32  39 2.34  51 2.97
  58  0.878  0.615  0.563-  17 2.32  15 2.32  41 2.41  44 2.44
  59  0.353  0.026  0.520-  83 2.31  94 2.39  46 2.39  65 2.40
  60  0.242  0.261  0.493-   4 1.52  84 2.35  65 2.40  92 2.42  76 2.50  25 2.97
  61  0.933  0.171  0.573-  25 2.30  30 2.32  56 2.35  52 2.42
  62  0.532  0.465  0.589-  33 2.27  82 2.31  87 2.33  37 2.37
  63  0.420  0.809  0.554-  49 2.31  13 2.32  94 2.35  10 2.37  87 3.11
  64  0.690  0.649  0.371-  40 2.28  67 2.35  42 2.37
  65  0.354  0.186  0.541-   5 2.38  60 2.40  59 2.40  26 2.46  68 2.57
  66  0.160  0.251  0.613-  77 2.26  26 2.28  25 2.34
  67  0.607  0.738  0.425-  93 2.28  73 2.35  64 2.35  14 2.36  42 3.13
  68  0.425  0.246  0.617-  26 2.27  82 2.28   9 2.31  65 2.57
  69  0.121  0.554  0.430-  12 2.31  72 2.32  74 2.35  32 2.35
  70  0.415  0.780  0.368-  93 2.31  22 2.33  14 2.39
  71  0.511  0.494  0.383-  20 2.38  14 2.38  34 2.40
  72  0.976  0.619  0.422-  69 2.32  16 2.36  50 2.43  24 2.46
  73  0.706  0.691  0.485-  42 2.33  48 2.34  67 2.35  41 2.38
  74  0.128  0.427  0.380-  54 2.31  76 2.34  69 2.35
  75  0.408  0.097  0.405-  43 2.32  45 2.37  83 2.39
  76  0.155  0.289  0.419-  74 2.34  54 2.35  88 2.37  60 2.50  92 3.12
  77  0.158  0.391  0.647-  66 2.26  35 2.30  89 2.34
  78  0.726  0.256  0.514-  29 2.33  56 2.33  95 2.36  19 2.39
  79  0.105  0.995  0.539-  30 2.34  46 2.39  28 2.42  92 2.44
  80  0.616  0.227  0.397-  27 2.25  19 2.28  43 2.30
  81  0.770  1.000  0.503-  57 2.31  36 2.37  96 2.39  56 2.40
  82  0.419  0.399  0.634-  68 2.28  62 2.31  89 2.34
  83  0.278  0.046  0.449-  59 2.31  38 2.36  75 2.39  92 2.61
  84  0.256  0.410  0.524-  12 2.30  18 2.30  60 2.35  89 2.40
  85  0.854  0.345  0.409-  19 2.32  50 2.39  31 2.39
  86  0.171  0.743  0.514-   8 2.32  28 2.32  13 2.35  32 2.38  21 3.15
  87  0.508  0.623  0.584-  49 2.28  48 2.29  62 2.33  10 2.38  63 3.11
  88  0.060  0.156  0.423-  92 2.33  23 2.33  31 2.36  76 2.37
  89  0.280  0.453  0.604-  82 2.34  77 2.34  84 2.40  21 2.42
  90  0.646  0.843  0.580-  53 2.33  48 2.33  36 2.38  94 2.95  10 3.07
  91  0.020  0.391  0.535-  12 2.29  35 2.34  44 2.34  25 2.39  52 3.05
  92  0.142  0.128  0.491-  88 2.33  60 2.42  79 2.44  25 2.47  83 2.61  76 3.12
  93  0.524  0.866  0.407-  67 2.28  70 2.31  45 2.33
  94  0.494  0.950  0.538-  63 2.35  96 2.37  55 2.37  59 2.39  90 2.95
  95  0.785  0.370  0.565-  33 2.28  78 2.36  44 2.36  52 2.37
  96  0.608  0.029  0.496-  29 2.35  94 2.37  81 2.39  45 2.42

  LATTYP: Found a simple tetragonal cell.
 ALAT       =    14.5261084411
 C/A-ratio  =     1.9734594517
  
  Lattice vectors:
  
 A1 = (  14.5261084411,   0.0000000000,   0.0000000000)
 A2 = (   0.0000000000,  14.5261084411,   0.0000000000)
 A3 = (   0.0000000000,   0.0000000000,  28.6666860000)


Analysis of symmetry for initial positions (statically):
=====================================================================
 Subroutine PRICEL returns:
 Original cell was already a primitive cell.
 

 Routine SETGRP: Setting up the symmetry group for a 
 simple tetragonal supercell.


 Subroutine GETGRP returns: Found  1 space group operations
 (whereof  1 operations were pure point group operations)
 out of a pool of 16 trial point group operations.


The static configuration has the point symmetry C_1 .


Analysis of symmetry for dynamics (positions and initial velocities):
=====================================================================
 Subroutine PRICEL returns:
 Original cell was already a primitive cell.
 

 Routine SETGRP: Setting up the symmetry group for a 
 simple tetragonal supercell.


 Subroutine GETGRP returns: Found  1 space group operations
 (whereof  1 operations were pure point group operations)
 out of a pool of 16 trial point group operations.


The dynamic configuration has the point symmetry C_1 .


 Subroutine INISYM returns: Found  1 space group operations
 (whereof  1 operations are pure point group operations),
 and found     1 'primitive' translations


----------------------------------------------------------------------------------------

                                     Primitive cell                                     

  volume of cell :    6048.8951

  direct lattice vectors                    reciprocal lattice vectors
    14.526108441  0.000000000  0.000000000     0.068841562  0.000000000  0.000000000
     0.000000000 14.526108441  0.000000000     0.000000000  0.068841562  0.000000000
     0.000000000  0.000000000 28.666686000     0.000000000  0.000000000  0.034883697

  length of vectors
    14.526108441 14.526108441 28.666686000     0.068841562  0.068841562  0.034883697

  position of ions in fractional coordinates (direct lattice)
     0.700351054  0.908576077  0.412313724
     0.325746043  0.834559382  0.461508136
     0.354100179  0.842954936  0.485961045
     0.317016643  0.250717282  0.456357641
     0.481874114  0.256111751  0.502851431
     0.323327222  0.014060681  0.639231444
     0.913332519  0.889424139  0.613806679
     0.121195847  0.616263848  0.555736349
     0.550539557  0.147939212  0.613183215
     0.475966578  0.758781144  0.627256157
     0.367770267  0.609327455  0.461011848
     0.125848697  0.491100084  0.504397609
     0.266775105  0.792940978  0.574812297
     0.477427448  0.647141163  0.406120608
     0.748400381  0.615082053  0.610091045
     0.971951882  0.671633235  0.343695091
     0.005721273  0.597816908  0.611168824
     0.373208780  0.453922974  0.474951619
     0.707011000  0.323518122  0.439044268
     0.609195195  0.452265915  0.445634494
     0.268635015  0.616280902  0.587767970
     0.271005723  0.803390733  0.402345920
     0.079460366  0.023369067  0.377975149
     0.964218590  0.772042010  0.458146487
     0.068288560  0.235530494  0.546205541
     0.291411008  0.165768725  0.619782730
     0.662204992  0.093381637  0.365044724
     0.089295514  0.868279201  0.484924770
     0.597320972  0.170224893  0.535517048
     0.981564573  0.022132572  0.589888414
     0.902571946  0.194443736  0.431937014
     0.225759245  0.674157925  0.444008781
     0.687569429  0.473759951  0.598065343
     0.393612727  0.383871050  0.402222671
     0.020648488  0.434104200  0.613463774
     0.798943691  0.879095692  0.557339689
     0.511387456  0.415718876  0.510730641
     0.178973550  0.929511636  0.421869105
     0.820567049  0.082649949  0.385658160
     0.826854797  0.720204290  0.358196876
     0.848639605  0.747091835  0.514262732
     0.726316115  0.561152576  0.438492396
     0.465437832  0.242372187  0.420933239
     0.880882231  0.468810473  0.521372742
     0.550893876  0.022997744  0.416806211
     0.249304589  0.955756699  0.573561816
     0.892142815  0.843587278  0.395337133
     0.645085774  0.687537355  0.561043737
     0.387653585  0.657604707  0.535772763
     0.871584593  0.494505343  0.441604550
     0.933819362  0.978886385  0.356045264
     0.902788034  0.312615944  0.614116181
     0.572096673  0.881648710  0.649511129
     0.257366382  0.342144998  0.361662552
     0.482241465  0.003132259  0.616102396
     0.842867845  0.147802949  0.506066950
     0.790227565  0.948377517  0.427946140
     0.878481554  0.615185423  0.562874945
     0.352863056  0.026008460  0.519584440
     0.241973525  0.260992980  0.492856104
     0.933396195  0.170932437  0.572850039
     0.532373494  0.464997721  0.588998513
     0.420373936  0.809221254  0.553888559
     0.689769415  0.648727470  0.371261146
     0.354180640  0.185932228  0.540871017
     0.160244672  0.250666402  0.612840449
     0.606825042  0.738196688  0.425256828
     0.425284533  0.245636424  0.617167600
     0.120681406  0.553759343  0.430422107
     0.414769474  0.779591599  0.368138256
     0.510600212  0.493566763  0.382828471
     0.976131644  0.619170186  0.421707905
     0.705713229  0.690503857  0.485337258
     0.127767404  0.426966793  0.379557089
     0.407587610  0.096865848  0.404577409
     0.154627823  0.288697443  0.419147483
     0.157954590  0.390962118  0.647158622
     0.725807588  0.256129843  0.514441477
     0.104580986  0.994514263  0.539283878
     0.615850569  0.227186757  0.396823744
     0.769900380  0.999751791  0.503443355
     0.419199674  0.398737924  0.634467468
     0.278343650  0.046023684  0.449049221
     0.256073576  0.410039034  0.524229063
     0.853609357  0.344784628  0.408500260
     0.171092032  0.743404386  0.513793019
     0.508473861  0.623156507  0.583689445
     0.059744006  0.156475617  0.422503679
     0.280148282  0.453479584  0.604240969
     0.645626096  0.843359431  0.580037536
     0.019656282  0.390982129  0.534924619
     0.141676879  0.127607726  0.490942363
     0.523553282  0.866412570  0.406897328
     0.493564450  0.949855042  0.538313020
     0.785003370  0.369613336  0.564958820
     0.608426125  0.029211901  0.495823591

  ion indices of the primitive-cell ions
   primitive index   ion index
                 1           1
                 2           2
                 3           3
                 4           4
                 5           5
                 6           6
                 7           7
                 8           8
                 9           9
                10          10
                11          11
                12          12
                13          13
                14          14
                15          15
                16          16
                17          17
                18          18
                19          19
                20          20
                21          21
                22          22
                23          23
                24          24
                25          25
                26          26
                27          27
                28          28
                29          29
                30          30
                31          31
                32          32
                33          33
                34          34
                35          35
                36          36
                37          37
                38          38
                39          39
                40          40
                41          41
                42          42
                43          43
                44          44
                45          45
                46          46
                47          47
                48          48
                49          49
                50          50
                51          51
                52          52
                53          53
                54          54
                55          55
                56          56
                57          57
                58          58
                59          59
                60          60
                61          61
                62          62
                63          63
                64          64
                65          65
                66          66
                67          67
                68          68
                69          69
                70          70
                71          71
                72          72
                73          73
                74          74
                75          75
                76          76
                77          77
                78          78
                79          79
                80          80
                81          81
                82          82
                83          83
                84          84
                85          85
                86          86
                87          87
                88          88
                89          89
                90          90
                91          91
                92          92
                93          93
                94          94
                95          95
                96          96

----------------------------------------------------------------------------------------


 -----------------------------------------------------------------------------
|                                                                             |
|           W    W    AA    RRRRR   N    N  II  N    N   GGGG   !!!           |
|           W    W   A  A   R    R  NN   N  II  NN   N  G    G  !!!           |
|           W    W  A    A  R    R  N N  N  II  N N  N  G       !!!           |
|           W WW W  AAAAAA  RRRRR   N  N N  II  N  N N  G  GGG   !            |
|           WW  WW  A    A  R   R   N   NN  II  N   NN  G    G                |
|           W    W  A    A  R    R  N    N  II  N    N   GGGG   !!!           |
|                                                                             |
|     The requested file  could not be found or opened for reading            |
|     k-point information. Automatic k-point generation is used as a          |
|     fallback, which may lead to unwanted results.                           |
|                                                                             |
 -----------------------------------------------------------------------------



Automatic generation of k-mesh.
 Grid dimensions derived from KSPACING:
 generate k-points for:    2    2    1

 Generating k-lattice:

  Cartesian coordinates                     Fractional coordinates (reciprocal lattice)
     0.034420781  0.000000000  0.000000000     0.500000000  0.000000000  0.000000000
     0.000000000  0.034420781  0.000000000     0.000000000  0.500000000  0.000000000
     0.000000000  0.000000000  0.034883697     0.000000000  0.000000000  1.000000000

  Length of vectors
     0.034420781  0.034420781  0.034883697

  Shift w.r.t. Gamma in fractional coordinates (k-lattice)
     0.000000000  0.000000000  0.000000000

 
 Subroutine IBZKPT returns following result:
 ===========================================
 
 Found      4 irreducible k-points:
 
 Following reciprocal coordinates:
            Coordinates               Weight
  0.000000  0.000000  0.000000      1.000000
  0.500000  0.000000  0.000000      1.000000
  0.000000  0.500000  0.000000      1.000000
  0.500000  0.500000  0.000000      1.000000
 
 Following cartesian coordinates:
            Coordinates               Weight
  0.000000  0.000000  0.000000      1.000000
  0.034421  0.000000  0.000000      1.000000
  0.000000  0.034421  0.000000      1.000000
  0.034421  0.034421  0.000000      1.000000
 


--------------------------------------------------------------------------------------------------------




 Dimension of arrays:
   k-points           NKPTS =      4   k-points in BZ     NKDIM =      4   number of bands    NBANDS=    240
   number of dos      NEDOS =   2000   number of ions     NIONS =     96
   non local maximal  LDIM  =      4   non local SUM 2l+1 LMDIM =      8
   total plane-waves  NPLWV = ******
   max r-space proj   IRMAX =      1   max aug-charges    IRDMAX= 404521
   dimension x,y,z NGX =   168 NGY =  168 NGZ =  324
   dimension x,y,z NGXF=   336 NGYF=  336 NGZF=  648
   support grid    NGXF=   672 NGYF=  672 NGZF= 1296
   ions per type =               4  92
   NGX,Y,Z   is equivalent  to a cutoff of  19.23, 19.23, 18.79 a.u.
   NGXF,Y,Z  is equivalent  to a cutoff of  38.45, 38.45, 37.58 a.u.

 SYSTEM =  a-Si SPC                                
 POSCAR =   H Si                                   

 Startparameter for this run:
   NWRITE =      2    write-flag & timer
   PREC   = accura    normal or accurate (medium, high low for compatibility)
   ISTART =      1    job   : 0-new  1-cont  2-samecut
   ICHARG =      1    charge: 1-file 2-atom 10-const
   ISPIN  =      1    spin polarized calculation?
   LNONCOLLINEAR =      F non collinear calculations
   LSORBIT =      F    spin-orbit coupling
   INIWAV =      1    electr: 0-lowe 1-rand  2-diag
   LASPH  =      T    aspherical Exc in radial PAW
 Electronic Relaxation 1
   ENCUT  = 1200.0 eV  88.20 Ry    9.39 a.u.  41.03 41.03 80.97*2*pi/ulx,y,z
   ENINI  = 1200.0     initial cutoff
   ENAUG  =  400.0 eV  augmentation charge cutoff
   NELM   =    150;   NELMIN=  2; NELMDL=  0     # of ELM steps 
   EDIFF  = 0.1E-05   stopping-criterion for ELM
   LREAL  =      F    real-space projection
   NLSPLINE    = F    spline interpolate recip. space projectors
   LCOMPAT=      F    compatible to vasp.4.4
   GGA_COMPAT  = T    GGA compatible to vasp.4.4-vasp.4.6
   LMAXPAW     = -100 max onsite density
   LMAXMIX     =    2 max onsite mixed and CHGCAR
   VOSKOWN=      0    Vosko Wilk Nusair interpolation
   ROPT   =    0.00000   0.00000
 Ionic relaxation
   EDIFFG = -.1E-01   stopping-criterion for IOM
   NSW    =      0    number of steps for IOM
   NBLOCK =      1;   KBLOCK =      1    inner block; outer block 
   IBRION =     -1    ionic relax: 0-MD 1-quasi-New 2-CG
   NFREE  =      0    steps in history (QN), initial steepest desc. (CG)
   ISIF   =      2    stress and relaxation
   IWAVPR =     10    prediction:  0-non 1-charg 2-wave 3-comb
   ISYM   =      1    0-nonsym 1-usesym 2-fastsym
   LCORR  =      T    Harris-Foulkes like correction to forces

   POTIM  = 0.5000    time-step for ionic-motion
   TEIN   =    0.0    initial temperature
   TEBEG  =    0.0;   TEEND  =   0.0 temperature during run
   SMASS  =  -3.00    Nose mass-parameter (am)
   estimated Nose-frequenzy (Omega)   =  0.10E-29 period in steps = 0.13E+47 mass=  -0.482E-26a.u.
   SCALEE = 1.0000    scale energy and forces
   NPACO  =    256;   APACO  = 10.0  distance and # of slots for P.C.
   PSTRESS=    0.0 pullay stress

  Mass of Ions in am
   POMASS =   1.00 28.09
  Ionic Valenz
   ZVAL   =   1.00  4.00
  Atomic Wigner-Seitz radii
   RWIGS  =  -1.00 -1.00
  virtual crystal weights 
   VCA    =   1.00  1.00
   NELECT =     372.0000    total number of electrons
   NUPDOWN=      -1.0000    fix difference up-down

 DOS related values:
   EMIN   =  10.00;   EMAX   =-10.00  energy-range for DOS
   EFERMI =   0.00;   METHOD = LEGACY      
   ISMEAR =     0;   SIGMA  =   0.10  broadening in eV -4-tet -1-fermi 0-gaus
   EFERMI_NEDOS =   21; number of points for ismear=-14 and -15

 Electronic relaxation 2 (details)
   IALGO  =     38    algorithm
   LDIAG  =      F    sub-space diagonalisation (order eigenvalues)
   LSUBROT=      F    optimize rotation matrix (better conditioning)
   TURBO    =      0    0=normal 1=particle mesh
   IRESTART =      0    0=no restart 2=restart with 2 vectors
   NREBOOT  =      0    no. of reboots
   NMIN     =      0    reboot dimension
   EREF     =   0.00    reference energy to select bands
   IMIX   =      4    mixing-type and parameters
     AMIX     =   0.40;   BMIX     =  1.00
     AMIX_MAG =   1.60;   BMIX_MAG =  1.00
     AMIN     =   0.10
     WC   =   100.;   INIMIX=   1;  MIXPRE=   1;  MAXMIX= -45

 Intra band minimization:
   WEIMIN = 0.0000     energy-eigenvalue tresh-hold
   EBREAK =  0.10E-08  absolut break condition
   DEPER  =   0.30     relativ break condition  

   TIME   =   0.40     timestep for ELM

  volume/ion in A,a.u.               =      63.01       425.21
  Fermi-wavevector in a.u.,A,eV,Ry     =   0.646195  1.221132  5.681362  0.417568
  Thomas-Fermi vector in A             =   1.714099

 Write flags
   LWAVE        =      F    write WAVECAR
   LDOWNSAMPLE  =      F    k-point downsampling of WAVECAR
   LCHARG       =      F    write CHGCAR
   LVTOT        =      F    write LOCPOT, total local potential
   LVHAR        =      F    write LOCPOT, Hartree potential only
   WRT_POTENTIAL= false  ! write potential to hdf5 file
   LELF         =      F    write electronic localiz. function (ELF)
   LORBIT       =     11    0 simple, 1 ext, 2 COOP (PROOUT), +10 PAW based schemes


 Python interface
   PLUGINS active      =      F    recompile with -DPLUGINS to activate

 Dipole corrections
   LMONO      =      F    monopole corrections only (constant potential shift)
   LDIPOL     =      F    correct potential (dipole corrections)
   IDIPOL     =      0    1-x, 2-y, 3-z, 4-all directions 
   EPSILON    =  1.0000000 bulk dielectric constant
   LVACPOTAV  =      F  vacuum potentials using an averaging scheme for the charge density
   VACPOTFLAT =  0.1000000 required flatness to determine vacuum potential

Coulomb truncation method
  LTRUNCATE          =      F  Coulomb kernel truncation to be used
  IDIMENSIONALITY    =      3  Dimensionality of cutoff (0 molecules / 2 surfaces)
  ISURFACE           =     -1  Direction of surface normal
  LCOARSEN           =      F  Coarsen the charge grid before padding, preferred


 Exchange correlation treatment:
   METAGGA = SCAN    functional components
   XC_C    = 1    coefficients multiplying the functional components
   LIBXC   =     F    Libxc                    
   VOSKOWN =     0    Vosko Wilk Nusair interpolation
   LHFCALC =     F    Hartree Fock is set to
   LHFONE  =     F    Hartree Fock one center treatment
   AEXX    =    0.0000 exact exchange contribution

 Parameters of functionals:
   SCAN:
     P1 =  0.000000E+00
     P2 =  0.000000E+00
     P3 =  0.000000E+00

 Accuracy and mixing parameters for tau-dependent meta-GGA functionals:
   LMAXTAU = 6
   LMIXTAU = T

 Van der Waals corrections
   IVDW    =     0    specifies the selected vdW correction

 Linear response parameters
   LEPSILON=     F    determine dielectric tensor
   LRPA    =     F    only Hartree local field effects (RPA)
   LNABLA  =     F    use nabla operator in PAW spheres
   LVEL    =     F    velocity operator in full k-point grid
   CSHIFT  =0.1000    complex shift for real part using Kramers Kronig
   OMEGAMAX=  -1.0    maximum frequency
   DEG_THRESHOLD= 0.2000000E-02 threshold for treating states as degnerate
   RTIME   =   -0.100 relaxation time in fs
  (WPLASMAI=    0.000 imaginary part of plasma frequency in eV, 0.658/RTIME)
   DFIELD  = 0.0000000 0.0000000 0.0000000 field for delta impulse in time

  Optional k-point grid parameters
   LKPOINTS_OPT  =     F    use optional k-point grid
   KPOINTS_OPT_MODE=     1    mode for optional k-point grid

 Orbital magnetization related:
   ORBITALMAG=     F  switch on orbital magnetization
   LCHIMAG   =     F  perturbation theory with respect to B field
   DQ        =  0.001000  dq finite difference perturbation B field
   LLRAUG    =     F  two centre corrections for induced B field
   LBONE     =     F  B-component reconstruction in AE one-centre
   LVGVCALC  =     T  calculate vGv susceptibility
   LVGVAPPL  =     F  apply vGv susceptibility instead of pGv for G=0

 Random number generation:
   RANDOM_GENERATOR = DEFAULT
   PCG_SEED         = not used


--------------------------------------------------------------------------------------------------------


 Static calculation
 charge density and potential will be updated during run
 non-spin polarized calculation
 Variant of blocked Davidson
 perform Loewdin sub-space diagonalisation
    ordering is kept fixed
    before iterative eigenvector-optimisation
 modified Broyden-mixing scheme, WC =      100.0
 initial mixing is a Kerker type mixing with AMIX =  0.4000 and BMIX =      1.0000
 Hartree-type preconditioning will be used
 using additional bands           54
 reciprocal scheme for non local part
 use partial core corrections
 calculate Harris-corrections to forces   (improved forces if not selfconsistent)
 use gradient corrections 
 use of overlap-Matrix (Vanderbilt PP)
 Gauss-broadening in eV      SIGMA  =   0.10


--------------------------------------------------------------------------------------------------------


  energy-cutoff  :     1200.00
  volume of cell :     6048.90
      direct lattice vectors                 reciprocal lattice vectors
    14.526108441  0.000000000  0.000000000     0.068841562  0.000000000  0.000000000
     0.000000000 14.526108441  0.000000000     0.000000000  0.068841562  0.000000000
     0.000000000  0.000000000 28.666686000     0.000000000  0.000000000  0.034883697

  length of vectors
    14.526108441 14.526108441 28.666686000     0.068841562  0.068841562  0.034883697



 old parameters found on file WAVECAR:
  energy-cutoff  :     1200.00
  volume of cell :     6048.90
      direct lattice vectors                 reciprocal lattice vectors
    14.526108441  0.000000000  0.000000000     0.068841562  0.000000000  0.000000000
     0.000000000 14.526108441  0.000000000     0.000000000  0.068841562  0.000000000
     0.000000000  0.000000000 28.666686000     0.000000000  0.000000000  0.034883697

  length of vectors


 k-points in units of 2pi/SCALE and weight: read from INCAR                         
   0.00000000  0.00000000  0.00000000       0.250
   0.03442078  0.00000000  0.00000000       0.250
   0.00000000  0.03442078  0.00000000       0.250
   0.03442078  0.03442078  0.00000000       0.250

 k-points in reciprocal lattice and weights: read from INCAR                         
   0.00000000  0.00000000  0.00000000       0.250
   0.50000000  0.00000000  0.00000000       0.250
   0.00000000  0.50000000  0.00000000       0.250
   0.50000000  0.50000000  0.00000000       0.250

 position of ions in fractional coordinates (direct lattice) 
   0.70035105  0.90857608  0.41231372
   0.32574604  0.83455938  0.46150814
   0.35410018  0.84295494  0.48596105
   0.31701664  0.25071728  0.45635764
   0.48187411  0.25611175  0.50285143
   0.32332722  0.01406068  0.63923144
   0.91333252  0.88942414  0.61380668
   0.12119585  0.61626385  0.55573635
   0.55053956  0.14793921  0.61318321
   0.47596658  0.75878114  0.62725616
   0.36777027  0.60932746  0.46101185
   0.12584870  0.49110008  0.50439761
   0.26677510  0.79294098  0.57481230
   0.47742745  0.64714116  0.40612061
   0.74840038  0.61508205  0.61009105
   0.97195188  0.67163324  0.34369509
   0.00572127  0.59781691  0.61116882
   0.37320878  0.45392297  0.47495162
   0.70701100  0.32351812  0.43904427
   0.60919520  0.45226592  0.44563449
   0.26863502  0.61628090  0.58776797
   0.27100572  0.80339073  0.40234592
   0.07946037  0.02336907  0.37797515
   0.96421859  0.77204201  0.45814649
   0.06828856  0.23553049  0.54620554
   0.29141101  0.16576872  0.61978273
   0.66220499  0.09338164  0.36504472
   0.08929551  0.86827920  0.48492477
   0.59732097  0.17022489  0.53551705
   0.98156457  0.02213257  0.58988841
   0.90257195  0.19444374  0.43193701
   0.22575925  0.67415792  0.44400878
   0.68756943  0.47375995  0.59806534
   0.39361273  0.38387105  0.40222267
   0.02064849  0.43410420  0.61346377
   0.79894369  0.87909569  0.55733969
   0.51138746  0.41571888  0.51073064
   0.17897355  0.92951164  0.42186910
   0.82056705  0.08264995  0.38565816
   0.82685480  0.72020429  0.35819688
   0.84863961  0.74709183  0.51426273
   0.72631612  0.56115258  0.43849240
   0.46543783  0.24237219  0.42093324
   0.88088223  0.46881047  0.52137274
   0.55089388  0.02299774  0.41680621
   0.24930459  0.95575670  0.57356182
   0.89214281  0.84358728  0.39533713
   0.64508577  0.68753736  0.56104374
   0.38765359  0.65760471  0.53577276
   0.87158459  0.49450534  0.44160455
   0.93381936  0.97888639  0.35604526
   0.90278803  0.31261594  0.61411618
   0.57209667  0.88164871  0.64951113
   0.25736638  0.34214500  0.36166255
   0.48224147  0.00313226  0.61610240
   0.84286785  0.14780295  0.50606695
   0.79022756  0.94837752  0.42794614
   0.87848155  0.61518542  0.56287494
   0.35286306  0.02600846  0.51958444
   0.24197353  0.26099298  0.49285610
   0.93339619  0.17093244  0.57285004
   0.53237349  0.46499772  0.58899851
   0.42037394  0.80922125  0.55388856
   0.68976941  0.64872747  0.37126115
   0.35418064  0.18593223  0.54087102
   0.16024467  0.25066640  0.61284045
   0.60682504  0.73819669  0.42525683
   0.42528453  0.24563642  0.61716760
   0.12068141  0.55375934  0.43042211
   0.41476947  0.77959160  0.36813826
   0.51060021  0.49356676  0.38282847
   0.97613164  0.61917019  0.42170790
   0.70571323  0.69050386  0.48533726
   0.12776740  0.42696679  0.37955709
   0.40758761  0.09686585  0.40457741
   0.15462782  0.28869744  0.41914748
   0.15795459  0.39096212  0.64715862
   0.72580759  0.25612984  0.51444148
   0.10458099  0.99451426  0.53928388
   0.61585057  0.22718676  0.39682374
   0.76990038  0.99975179  0.50344336
   0.41919967  0.39873792  0.63446747
   0.27834365  0.04602368  0.44904922
   0.25607358  0.41003903  0.52422906
   0.85360936  0.34478463  0.40850026
   0.17109203  0.74340439  0.51379302
   0.50847386  0.62315651  0.58368944
   0.05974401  0.15647562  0.42250368
   0.28014828  0.45347958  0.60424097
   0.64562610  0.84335943  0.58003754
   0.01965628  0.39098213  0.53492462
   0.14167688  0.12760773  0.49094236
   0.52355328  0.86641257  0.40689733
   0.49356445  0.94985504  0.53831302
   0.78500337  0.36961334  0.56495882
   0.60842612  0.02921190  0.49582359

 position of ions in cartesian coordinates  (Angst):
  10.17337536 13.19807462 11.81966805
   4.73182235 12.12290009 13.22990881
   5.14369760 12.24485481 13.93089269
   4.60501814  3.64194643 13.08226119
   6.99975564  3.72030707 14.41508409
   4.69668629  0.20424697 18.32464709
  13.26716722 12.91987150 17.59580333
   1.76050401  8.95191549 15.93111942
   7.99719730  2.14898103 17.57793068
   6.91394212 11.02213718 17.98135529
   5.34227078  8.85115669 13.21568190
   1.82809182  7.13377308 14.45940788
   3.87520410 11.51834663 16.47796362
   6.93516288  9.40044271 11.64213194
  10.87134509  8.93474860 17.48928842
  14.11867844  9.75621721  9.85259924
   0.08310783  8.68395323 17.52018476
   5.42127121  6.59373435 13.61528893
  10.27011846  4.69945932 12.58594416
   8.84923547  6.56966373 12.77486412
   3.90222136  8.95216321 16.84935985
   3.93665852 11.67014091 11.53392415
   1.15424990  0.33946160 10.83529491
  14.00634380 11.21476596 13.13354148
   0.99196703  3.42134149 15.65790273
   4.23306790  2.40797447 17.76711690
   9.61926152  1.35647178 10.46462247
   1.29711632 12.61271783 13.90118611
   8.67674921  2.47270526 15.35149905
  14.25831343  0.32150014 16.91014595
  13.11085797  2.82451079 12.38220274
   3.27940328  9.79289112 12.72826032
   9.98770808  6.88188843 17.14455139
   5.71766116  5.57615250 11.53039102
   0.29994218  6.30584468 17.58597338
  11.60554270 12.76983935 15.97708185
   7.42846964  6.03877748 14.64095491
   2.59978920 13.50218682 12.09358916
  11.91964593  1.20058212 11.05554139
  12.01098245 10.46176562 10.26831737
  12.32743093 10.85233701 14.74220826
  10.55054665  8.15136317 12.57012382
   6.76100042  3.52072467 12.06676099
  12.79579081  6.80999177 14.94602868
   8.00234418  0.33406773 11.94845277
   3.62142549 13.88342546 16.44211647
  12.95936327 12.25404028 11.33300546
   9.37058590  9.98724218 16.08326465
   5.63109802  9.55243729 15.35882956
  12.66073232  7.18323824 12.65933896
  13.56476131 14.21940978 10.20663778
  13.11399688  4.54109311 17.60467574
   8.31033831 12.80692477 18.61933158
   3.73853198  4.97003535 10.36766682
   7.00509182  0.04549954 17.66161392
  12.24358972  2.14700166 14.50726235
  11.47893130 13.77623465 12.26779762
  12.76091832  8.93625016 16.13575930
   5.12572701  0.37780171 14.89476400
   3.51493367  3.79121233 14.12855117
  13.55861434  2.48298311 16.42171218
   7.73331511  6.75460732 16.88463543
   6.10639738 11.75483569 15.87814941
  10.01966532  9.42348558 10.64282671
   5.14486638  2.70087170 15.50497962
   2.32773148  3.64120734 17.56810471
   8.81480637 10.72312514 12.19070395
   6.17772924  3.56814133 17.69214979
   1.75303119  8.04396827 12.33877540
   6.02498636 11.32443210 10.55330379
   7.41703405  7.16960432 10.97442358
  14.17939412  8.99413327 12.08896809
  10.25126689 10.03033391 13.91301079
   1.85596316  6.20216593 10.88064388
   5.92066182  1.40708381 11.59789354
   2.24614053  4.19365036 12.01556927
   2.29446551  5.67915812 18.55189301
  10.54315973  3.72056987 14.74733229
   1.51915474 14.44642203 15.45948159
   8.94591215  3.30013947 11.37562168
  11.18365641 14.52250293 14.43205258
   6.08933992  5.79211032 18.18807969
   4.04325004  0.66854502 12.87275302
   3.71975254  5.95627148 15.02790994
  12.39962208  5.00837889 11.71034868
   2.48530141 10.79877272 14.72874315
   7.38614645  9.05203900 16.73244204
   0.86784791  2.27298178 12.11178030
   4.06946432  6.58729362 17.32158613
   9.37843468 12.25073055 16.62775392
   0.28552928  5.67944881 15.33451610
   2.05801371  1.85364366 14.07369056
   7.60519175 12.58560294 11.66439795
   7.16957072 13.79769734 15.43165030
  11.40304408  5.36904340 16.19549710
   8.83806387  0.42433524 14.21361920



--------------------------------------------------------------------------------------------------------


 k-point     1 :   0.0000 0.0000 0.0000  plane waves:  570857
 k-point     2 :   0.5000 0.0000 0.0000  plane waves:  570990
 k-point     3 :   0.0000 0.5000 0.0000  plane waves:  570990
 k-point     4 :   0.5000 0.5000 0.0000  plane waves:  570924

 maximum and minimum number of plane-waves per node :     35764    35618

 maximum number of plane-waves:    570990
 maximum index in each direction: 
   IXMAX=   41   IYMAX=   41   IZMAX=   80
   IXMIN=  -41   IYMIN=  -41   IZMIN=  -80


 parallel 3D FFT for wavefunctions:
    minimum data exchange during FFTs selected (reduces bandwidth)
 parallel 3D FFT for charge:
    minimum data exchange during FFTs selected (reduces bandwidth)


 total amount of memory used by VASP MPI-rank0   366983. kBytes
=======================================================================

   base                                    :      30000. kBytes
   nonl-proj                               :      73089. kBytes
   fftplans                                :     110224. kBytes
   grid                                    :      85039. kBytes
   one-center                              :         18. kBytes
   wavefun                                 :      68613. kBytes

     INWAV:  cpu time     20.1299: real time     20.1446
 Broyden mixing: mesh for mixing (old mesh)
   NGX = 83   NGY = 83   NGZ =161
  (NGX  =336   NGY  =336   NGZ  =648)
  gives a total of ****** points

 initial charge density was supplied:
 number of electron     371.9999999 magnetization 
 keeping initial charge density in first step


--------------------------------------------------------------------------------------------------------


 Maximum index for augmentation-charges        11291 (set IRDMAX)


--------------------------------------------------------------------------------------------------------


 First call to EWALD:  gamma=   0.097
 Maximum number of real-space cells   3x   3x   2
 Maximum number of reciprocal cells   2x   2x   4

    FEWALD:  cpu time      0.0164: real time      0.0165


--------------------------------------- Ionic step        1  -------------------------------------------




--------------------------------------- Iteration      1(   1)  ---------------------------------------


    POTLOK:  cpu time      2.1943: real time      2.1950
    SETDIJ:  cpu time      1.6717: real time      1.6733
    EDDIAG:  cpu time     40.5201: real time     40.5446
     EDDAV:  cpu time    187.3977: real time    187.4874
       DOS:  cpu time      0.0090: real time      0.0092
    CHARGE:  cpu time     23.5412: real time     23.5625
    MIXING:  cpu time      0.0524: real time      0.0528
    --------------------------------------------
      LOOP:  cpu time    255.3866: real time    255.5247

 eigenvalue-minimisations  :  1920
 total energy-change (2. order) :-0.9413524E+03  (-0.1035339E+01)
 number of electron     371.9999999 magnetization 
 augmentation part      -20.8686243 magnetization 

 Broyden mixing:
  rms(total) = 0.11850E+01    rms(broyden)= 0.28048E+02
  rms(prec ) = 0.12190E+01
  weight for this iteration     100.00
  WARNING: grid for Broyden might be to small

 Free energy of the ion-electron system (eV)
  ---------------------------------------------------
  alpha Z        PSCENC =        48.21488211
  Ewald energy   TEWEN  =     60084.27682331
  -Hartree energ DENC   =    -68525.40922080
  -exchange      EXHF   =         0.00000000
  -V(xc)+E(xc)   XCENC  =      -440.55193359
  PAW double counting   =     34732.27416847   -33815.24606005
  entropy T*S    EENTRO =        -0.18790703
  eigenvalues    EBANDS =     -2556.82549504
  atomic energy  EATOM  =      9532.10233977
  Solvation  Ediel_sol  =         0.00000000
  ---------------------------------------------------
  free energy    TOTEN  =      -941.35240284 eV

  energy without entropy =     -941.16449581  energy(sigma->0) =     -941.25844932


--------------------------------------------------------------------------------------------------------




--------------------------------------- Iteration      1(   2)  ---------------------------------------


    POTLOK:  cpu time      2.1514: real time      2.1792
    SETDIJ:  cpu time      1.6769: real time      1.6777
    EDDIAG:  cpu time     40.4837: real time     40.5091
     EDDAV:  cpu time    188.9499: real time    189.0543
       DOS:  cpu time      0.0045: real time      0.0045
    CHARGE:  cpu time     23.4537: real time     23.4731
    MIXING:  cpu time      0.0444: real time      0.0448
    --------------------------------------------
      LOOP:  cpu time    256.7645: real time    256.9428

 eigenvalue-minimisations  :  1952
 total energy-change (2. order) : 0.6573714E+02  (-0.9861858E+00)
 number of electron     371.9999999 magnetization 
 augmentation part      -20.7889459 magnetization 

 Broyden mixing:
  rms(total) = 0.80353E+00    rms(broyden)= 0.16172E+02
  rms(prec ) = 0.82142E+00
  weight for this iteration     100.00
  WARNING: grid for Broyden might be to small

 eigenvalues of (default mixing * dielectric matrix)
  average eigenvalue GAMMA=   0.6344
  0.6344

 Free energy of the ion-electron system (eV)
  ---------------------------------------------------
  alpha Z        PSCENC =        48.21488211
  Ewald energy   TEWEN  =     60084.27682331
  -Hartree energ DENC   =    -68512.14455324
  -exchange      EXHF   =         0.00000000
  -V(xc)+E(xc)   XCENC  =      -430.79752635
  PAW double counting   =     41488.29236963   -40571.03453196
  entropy T*S    EENTRO =        -0.17514768
  eigenvalues    EBANDS =     -2514.34992089
  atomic energy  EATOM  =      9532.10233977
  Solvation  Ediel_sol  =         0.00000000
  ---------------------------------------------------
  free energy    TOTEN  =      -875.61526530 eV

  energy without entropy =     -875.44011762  energy(sigma->0) =     -875.52769146


--------------------------------------------------------------------------------------------------------




--------------------------------------- Iteration      1(   3)  ---------------------------------------


    POTLOK:  cpu time      2.1564: real time      2.1828
    SETDIJ:  cpu time      1.6643: real time      1.6648
    EDDIAG:  cpu time     40.4663: real time     40.4917
     EDDAV:  cpu time    188.3565: real time    188.4650
       DOS:  cpu time      0.0022: real time      0.0022
    CHARGE:  cpu time     23.4820: real time     23.5044
    MIXING:  cpu time      0.0444: real time      0.0444
    --------------------------------------------
      LOOP:  cpu time    256.1719: real time    256.3553

 eigenvalue-minimisations  :  1944
 total energy-change (2. order) :-0.3682444E+01  (-0.8165603E+00)
 number of electron     371.9999999 magnetization 
 augmentation part      -20.7184920 magnetization 

 Broyden mixing:
  rms(total) = 0.33393E+00    rms(broyden)= 0.24254E+02
  rms(prec ) = 0.42563E+00
  weight for this iteration     100.00
  WARNING: grid for Broyden might be to small

 eigenvalues of (default mixing * dielectric matrix)
  average eigenvalue GAMMA=   0.7476
  0.8700  0.6251

 Free energy of the ion-electron system (eV)
  ---------------------------------------------------
  alpha Z        PSCENC =        48.21488211
  Ewald energy   TEWEN  =     60084.27682331
  -Hartree energ DENC   =    -68509.86414839
  -exchange      EXHF   =         0.00000000
  -V(xc)+E(xc)   XCENC  =      -434.83247432
  PAW double counting   =     49527.24874311   -48610.14205016
  entropy T*S    EENTRO =        -0.18537353
  eigenvalues    EBANDS =     -2516.11645098
  atomic energy  EATOM  =      9532.10233977
  Solvation  Ediel_sol  =         0.00000000
  ---------------------------------------------------
  free energy    TOTEN  =      -879.29770907 eV

  energy without entropy =     -879.11233554  energy(sigma->0) =     -879.20502230


--------------------------------------------------------------------------------------------------------




--------------------------------------- Iteration      1(   4)  ---------------------------------------


    POTLOK:  cpu time      2.2049: real time      2.2069
    SETDIJ:  cpu time      1.6573: real time      1.6582
    EDDIAG:  cpu time     40.4987: real time     40.5221
     EDDAV:  cpu time    203.8265: real time    203.9376
       DOS:  cpu time      0.0023: real time      0.0023
    CHARGE:  cpu time     23.4546: real time     23.4762
    MIXING:  cpu time      0.0431: real time      0.0431
    --------------------------------------------
      LOOP:  cpu time    271.6875: real time    271.8465

 eigenvalue-minimisations  :  2224
 total energy-change (2. order) : 0.3475850E+00  (-0.1120341E+00)
 number of electron     371.9999999 magnetization 
 augmentation part      -20.7112991 magnetization 

 Broyden mixing:
  rms(total) = 0.13272E+00    rms(broyden)= 0.14951E+01
  rms(prec ) = 0.21234E+00
  weight for this iteration     100.00
  WARNING: grid for Broyden might be to small

 eigenvalues of (default mixing * dielectric matrix)
  average eigenvalue GAMMA=   0.8232
  1.3166  0.6349  0.5182

 Free energy of the ion-electron system (eV)
  ---------------------------------------------------
  alpha Z        PSCENC =        48.21488211
  Ewald energy   TEWEN  =     60084.27682331
  -Hartree energ DENC   =    -68512.89534123
  -exchange      EXHF   =         0.00000000
  -V(xc)+E(xc)   XCENC  =      -435.89044609
  PAW double counting   =     55465.20934665   -54548.14538711
  entropy T*S    EENTRO =        -0.16471960
  eigenvalues    EBANDS =     -2511.65762188
  atomic energy  EATOM  =      9532.10233977
  Solvation  Ediel_sol  =         0.00000000
  ---------------------------------------------------
  free energy    TOTEN  =      -878.95012407 eV

  energy without entropy =     -878.78540447  energy(sigma->0) =     -878.86776427


--------------------------------------------------------------------------------------------------------




--------------------------------------- Iteration      1(   5)  ---------------------------------------


    POTLOK:  cpu time      2.1622: real time      2.1841
    SETDIJ:  cpu time      1.6585: real time      1.6595
    EDDIAG:  cpu time     40.5010: real time     40.5255
     EDDAV:  cpu time    206.3408: real time    206.4505
       DOS:  cpu time      0.0025: real time      0.0025
    CHARGE:  cpu time     23.4176: real time     23.4406
    MIXING:  cpu time      0.0439: real time      0.0439
    --------------------------------------------
      LOOP:  cpu time    274.1265: real time    274.3066

 eigenvalue-minimisations  :  2272
 total energy-change (2. order) : 0.4227942E-01  (-0.3910721E-01)
 number of electron     371.9999999 magnetization 
 augmentation part      -20.7128331 magnetization 

 Broyden mixing:
  rms(total) = 0.67590E-01    rms(broyden)= 0.15775E+01
  rms(prec ) = 0.95663E-01
  weight for this iteration     100.00
  WARNING: grid for Broyden might be to small

 eigenvalues of (default mixing * dielectric matrix)
  average eigenvalue GAMMA=   1.0024
  2.2864  0.7464  0.6214  0.3552

 Free energy of the ion-electron system (eV)
  ---------------------------------------------------
  alpha Z        PSCENC =        48.21488211
  Ewald energy   TEWEN  =     60084.27682331
  -Hartree energ DENC   =    -68512.93558135
  -exchange      EXHF   =         0.00000000
  -V(xc)+E(xc)   XCENC  =      -436.98712989
  PAW double counting   =     55363.89979047   -54446.82105836
  entropy T*S    EENTRO =        -0.17875237
  eigenvalues    EBANDS =     -2510.47915835
  atomic energy  EATOM  =      9532.10233977
  Solvation  Ediel_sol  =         0.00000000
  ---------------------------------------------------
  free energy    TOTEN  =      -878.90784465 eV

  energy without entropy =     -878.72909228  energy(sigma->0) =     -878.81846846


--------------------------------------------------------------------------------------------------------




--------------------------------------- Iteration      1(   6)  ---------------------------------------


    POTLOK:  cpu time      2.1591: real time      2.1847
    SETDIJ:  cpu time      1.6615: real time      1.6626
    EDDIAG:  cpu time     40.4915: real time     40.5165
     EDDAV:  cpu time    192.2419: real time    192.3466
       DOS:  cpu time      0.0021: real time      0.0021
    CHARGE:  cpu time     23.4590: real time     23.4816
    MIXING:  cpu time      0.0436: real time      0.0436
    --------------------------------------------
      LOOP:  cpu time    260.0586: real time    260.2376

 eigenvalue-minimisations  :  2016
 total energy-change (2. order) : 0.2686891E-02  (-0.1326044E-01)
 number of electron     371.9999999 magnetization 
 augmentation part      -20.7137754 magnetization 

 Broyden mixing:
  rms(total) = 0.32367E-01    rms(broyden)= 0.19099E+00
  rms(prec ) = 0.36086E-01
  weight for this iteration     100.00
  WARNING: grid for Broyden might be to small

 eigenvalues of (default mixing * dielectric matrix)
  average eigenvalue GAMMA=   1.0006
  2.5552  0.8597  0.6095  0.6095  0.3692

 Free energy of the ion-electron system (eV)
  ---------------------------------------------------
  alpha Z        PSCENC =        48.21488211
  Ewald energy   TEWEN  =     60084.27682331
  -Hartree energ DENC   =    -68513.14640309
  -exchange      EXHF   =         0.00000000
  -V(xc)+E(xc)   XCENC  =      -437.24824983
  PAW double counting   =     54955.56963490   -54038.46478499
  entropy T*S    EENTRO =        -0.18135821
  eigenvalues    EBANDS =     -2510.02804174
  atomic energy  EATOM  =      9532.10233977
  Solvation  Ediel_sol  =         0.00000000
  ---------------------------------------------------
  free energy    TOTEN  =      -878.90515776 eV

  energy without entropy =     -878.72379955  energy(sigma->0) =     -878.81447865


--------------------------------------------------------------------------------------------------------




--------------------------------------- Iteration      1(   7)  ---------------------------------------


    POTLOK:  cpu time      2.1552: real time      2.1849
    SETDIJ:  cpu time      1.7062: real time      1.7075
    EDDIAG:  cpu time     40.5503: real time     40.5744
     EDDAV:  cpu time    199.3907: real time    199.4962
       DOS:  cpu time      0.0105: real time      0.0108
    CHARGE:  cpu time     23.4655: real time     23.4882
    MIXING:  cpu time      0.0599: real time      0.0601
    --------------------------------------------
      LOOP:  cpu time    267.3387: real time    267.5227

 eigenvalue-minimisations  :  2144
 total energy-change (2. order) : 0.4129386E-03  (-0.1531567E-02)
 number of electron     371.9999999 magnetization 
 augmentation part      -20.7122975 magnetization 

 Broyden mixing:
  rms(total) = 0.19560E-01    rms(broyden)= 0.10431E+00
  rms(prec ) = 0.20500E-01
  weight for this iteration     100.00
  WARNING: grid for Broyden might be to small

 eigenvalues of (default mixing * dielectric matrix)
  average eigenvalue GAMMA=   0.9801
  2.5684  1.0411  0.7247  0.3641  0.6221  0.5603

 Free energy of the ion-electron system (eV)
  ---------------------------------------------------
  alpha Z        PSCENC =        48.21488211
  Ewald energy   TEWEN  =     60084.27682331
  -Hartree energ DENC   =    -68512.55249924
  -exchange      EXHF   =         0.00000000
  -V(xc)+E(xc)   XCENC  =      -437.15831900
  PAW double counting   =     54882.19611353   -53965.07626912
  entropy T*S    EENTRO =        -0.17995309
  eigenvalues    EBANDS =     -2510.72786309
  atomic energy  EATOM  =      9532.10233977
  Solvation  Ediel_sol  =         0.00000000
  ---------------------------------------------------
  free energy    TOTEN  =      -878.90474482 eV

  energy without entropy =     -878.72479172  energy(sigma->0) =     -878.81476827


--------------------------------------------------------------------------------------------------------




--------------------------------------- Iteration      1(   8)  ---------------------------------------


    POTLOK:  cpu time      2.1653: real time      2.1870
    SETDIJ:  cpu time      1.6737: real time      1.6750
    EDDIAG:  cpu time     40.5080: real time     40.5325
     EDDAV:  cpu time    197.5178: real time    197.6279
       DOS:  cpu time      0.0021: real time      0.0021
    CHARGE:  cpu time     23.4386: real time     23.4619
    MIXING:  cpu time      0.0447: real time      0.0447
    --------------------------------------------
      LOOP:  cpu time    265.3497: real time    265.5306

 eigenvalue-minimisations  :  2112
 total energy-change (2. order) :-0.1129211E-02  (-0.6500124E-03)
 number of electron     371.9999999 magnetization 
 augmentation part      -20.7102450 magnetization 

 Broyden mixing:
  rms(total) = 0.72231E-02    rms(broyden)= 0.79357E-01
  rms(prec ) = 0.81628E-02
  weight for this iteration     100.00
  WARNING: grid for Broyden might be to small

 eigenvalues of (default mixing * dielectric matrix)
  average eigenvalue GAMMA=   0.9880
  2.5599  1.2955  0.8274  0.3575  0.6377  0.6377  0.6001

 Free energy of the ion-electron system (eV)
  ---------------------------------------------------
  alpha Z        PSCENC =        48.21488211
  Ewald energy   TEWEN  =     60084.27682331
  -Hartree energ DENC   =    -68511.67101429
  -exchange      EXHF   =         0.00000000
  -V(xc)+E(xc)   XCENC  =      -436.94769595
  PAW double counting   =     54901.03494826   -53983.89788744
  entropy T*S    EENTRO =        -0.17952603
  eigenvalues    EBANDS =     -2511.83874376
  atomic energy  EATOM  =      9532.10233977
  Solvation  Ediel_sol  =         0.00000000
  ---------------------------------------------------
  free energy    TOTEN  =      -878.90587403 eV

  energy without entropy =     -878.72634800  energy(sigma->0) =     -878.81611101


--------------------------------------------------------------------------------------------------------




--------------------------------------- Iteration      1(   9)  ---------------------------------------


    POTLOK:  cpu time      2.1706: real time      2.1971
    SETDIJ:  cpu time      1.6688: real time      1.6697
    EDDIAG:  cpu time     40.5025: real time     40.5291
     EDDAV:  cpu time    207.1842: real time    207.2980
       DOS:  cpu time      0.0020: real time      0.0020
    CHARGE:  cpu time     23.4674: real time     23.4885
    MIXING:  cpu time      0.0456: real time      0.0456
    --------------------------------------------
      LOOP:  cpu time    275.0414: real time    275.2302

 eigenvalue-minimisations  :  2280
 total energy-change (2. order) :-0.3290076E-03  (-0.1130110E-03)
 number of electron     371.9999999 magnetization 
 augmentation part      -20.7102859 magnetization 

 Broyden mixing:
  rms(total) = 0.40513E-02    rms(broyden)= 0.55482E-01
  rms(prec ) = 0.49877E-02
  weight for this iteration     100.00
  WARNING: grid for Broyden might be to small

 eigenvalues of (default mixing * dielectric matrix)
  average eigenvalue GAMMA=   1.0156
  2.5497  1.7174  0.9645  0.7824  0.3560  0.6199  0.5674  0.5674

 Free energy of the ion-electron system (eV)
  ---------------------------------------------------
  alpha Z        PSCENC =        48.21488211
  Ewald energy   TEWEN  =     60084.27682331
  -Hartree energ DENC   =    -68511.48342289
  -exchange      EXHF   =         0.00000000
  -V(xc)+E(xc)   XCENC  =      -436.93385618
  PAW double counting   =     54933.71749912   -54016.57453161
  entropy T*S    EENTRO =        -0.18004444
  eigenvalues    EBANDS =     -2512.04589223
  atomic energy  EATOM  =      9532.10233977
  Solvation  Ediel_sol  =         0.00000000
  ---------------------------------------------------
  free energy    TOTEN  =      -878.90620304 eV

  energy without entropy =     -878.72615860  energy(sigma->0) =     -878.81618082


--------------------------------------------------------------------------------------------------------




--------------------------------------- Iteration      1(  10)  ---------------------------------------


    POTLOK:  cpu time      2.1574: real time      2.1816
    SETDIJ:  cpu time      1.6657: real time      1.6664
    EDDIAG:  cpu time     40.4900: real time     40.5164
     EDDAV:  cpu time    195.7653: real time    195.8726
       DOS:  cpu time      0.0046: real time      0.0046
    CHARGE:  cpu time     23.4335: real time     23.4562
    MIXING:  cpu time      0.0474: real time      0.0474
    --------------------------------------------
      LOOP:  cpu time    263.5638: real time    263.7450

 eigenvalue-minimisations  :  2080
 total energy-change (2. order) : 0.9407893E-05  (-0.5694595E-04)
 number of electron     371.9999999 magnetization 
 augmentation part      -20.7103469 magnetization 

 Broyden mixing:
  rms(total) = 0.20886E-02    rms(broyden)= 0.16590E-01
  rms(prec ) = 0.23765E-02
  weight for this iteration     100.00
  WARNING: grid for Broyden might be to small

 eigenvalues of (default mixing * dielectric matrix)
  average eigenvalue GAMMA=   1.0712
  2.5447  2.5447  0.9961  0.3558  0.7561  0.7561  0.6346  0.5855  0.4667

 Free energy of the ion-electron system (eV)
  ---------------------------------------------------
  alpha Z        PSCENC =        48.21488211
  Ewald energy   TEWEN  =     60084.27682331
  -Hartree energ DENC   =    -68511.28302354
  -exchange      EXHF   =         0.00000000
  -V(xc)+E(xc)   XCENC  =      -436.95524232
  PAW double counting   =     54936.47763939   -54019.33300518
  entropy T*S    EENTRO =        -0.17966639
  eigenvalues    EBANDS =     -2512.22694078
  atomic energy  EATOM  =      9532.10233977
  Solvation  Ediel_sol  =         0.00000000
  ---------------------------------------------------
  free energy    TOTEN  =      -878.90619363 eV

  energy without entropy =     -878.72652724  energy(sigma->0) =     -878.81636043


--------------------------------------------------------------------------------------------------------




--------------------------------------- Iteration      1(  11)  ---------------------------------------


    POTLOK:  cpu time      2.1664: real time      2.1844
    SETDIJ:  cpu time      1.6556: real time      1.6562
    EDDIAG:  cpu time     40.4863: real time     40.5119
     EDDAV:  cpu time    195.2359: real time    195.3453
       DOS:  cpu time      0.0049: real time      0.0049
    CHARGE:  cpu time     23.4486: real time     23.4683
    MIXING:  cpu time      0.0469: real time      0.0469
    --------------------------------------------
      LOOP:  cpu time    263.0447: real time    263.2178

 eigenvalue-minimisations  :  2072
 total energy-change (2. order) :-0.1326796E-04  (-0.4565568E-04)
 number of electron     371.9999999 magnetization 
 augmentation part      -20.7104257 magnetization 

 Broyden mixing:
  rms(total) = 0.10933E-02    rms(broyden)= 0.11809E-01
  rms(prec ) = 0.13565E-02
  weight for this iteration     100.00
  WARNING: grid for Broyden might be to small

 eigenvalues of (default mixing * dielectric matrix)
  average eigenvalue GAMMA=   1.1040
  2.6939  2.6939  1.0299  1.0299  0.8513  0.3560  0.6662  0.6204  0.5970  0.5019

 Free energy of the ion-electron system (eV)
  ---------------------------------------------------
  alpha Z        PSCENC =        48.21488211
  Ewald energy   TEWEN  =     60084.27682331
  -Hartree energ DENC   =    -68510.94237954
  -exchange      EXHF   =         0.00000000
  -V(xc)+E(xc)   XCENC  =      -436.96299588
  PAW double counting   =     54933.34559495   -54016.19933529
  entropy T*S    EENTRO =        -0.17974531
  eigenvalues    EBANDS =     -2512.56139103
  atomic energy  EATOM  =      9532.10233977
  Solvation  Ediel_sol  =         0.00000000
  ---------------------------------------------------
  free energy    TOTEN  =      -878.90620690 eV

  energy without entropy =     -878.72646158  energy(sigma->0) =     -878.81633424


--------------------------------------------------------------------------------------------------------




--------------------------------------- Iteration      1(  12)  ---------------------------------------


    POTLOK:  cpu time      2.1584: real time      2.1839
    SETDIJ:  cpu time      1.6627: real time      1.6635
    EDDIAG:  cpu time     40.4979: real time     40.5208
     EDDAV:  cpu time    190.3315: real time    190.4317
       DOS:  cpu time      0.0020: real time      0.0020
    CHARGE:  cpu time     23.4668: real time     23.4882
    MIXING:  cpu time      0.0483: real time      0.0483
    --------------------------------------------
      LOOP:  cpu time    258.1676: real time    258.3383

 eigenvalue-minimisations  :  1984
 total energy-change (2. order) :-0.1519684E-03  (-0.2790859E-04)
 number of electron     371.9999999 magnetization 
 augmentation part      -20.7105376 magnetization 

 Broyden mixing:
  rms(total) = 0.51782E-03    rms(broyden)= 0.49869E-02
  rms(prec ) = 0.74957E-03
  weight for this iteration     100.00
  WARNING: grid for Broyden might be to small

 eigenvalues of (default mixing * dielectric matrix)
  average eigenvalue GAMMA=   1.1160
  2.7583  2.7583  1.3795  0.9785  0.3560  0.8396  0.8396  0.6498  0.5959  0.5959
  0.5245

 Free energy of the ion-electron system (eV)
  ---------------------------------------------------
  alpha Z        PSCENC =        48.21488211
  Ewald energy   TEWEN  =     60084.27682331
  -Hartree energ DENC   =    -68510.58244536
  -exchange      EXHF   =         0.00000000
  -V(xc)+E(xc)   XCENC  =      -436.97417169
  PAW double counting   =     54930.35366311   -54013.20672179
  entropy T*S    EENTRO =        -0.17974775
  eigenvalues    EBANDS =     -2512.91098058
  atomic energy  EATOM  =      9532.10233977
  Solvation  Ediel_sol  =         0.00000000
  ---------------------------------------------------
  free energy    TOTEN  =      -878.90635887 eV

  energy without entropy =     -878.72661111  energy(sigma->0) =     -878.81648499


--------------------------------------------------------------------------------------------------------




--------------------------------------- Iteration      1(  13)  ---------------------------------------


    POTLOK:  cpu time      2.1763: real time      2.1841
    SETDIJ:  cpu time      1.6566: real time      1.6576
    EDDIAG:  cpu time     40.5415: real time     40.5664
     EDDAV:  cpu time    190.6260: real time    190.7349
       DOS:  cpu time      0.0024: real time      0.0024
    CHARGE:  cpu time     23.4221: real time     23.4427
    MIXING:  cpu time      0.0481: real time      0.0491
    --------------------------------------------
      LOOP:  cpu time    258.4731: real time    258.6372

 eigenvalue-minimisations  :  1984
 total energy-change (2. order) :-0.1901957E-03  (-0.2783045E-04)
 number of electron     371.9999999 magnetization 
 augmentation part      -20.7106085 magnetization 

 Broyden mixing:
  rms(total) = 0.31791E-03    rms(broyden)= 0.38957E-02
  rms(prec ) = 0.50667E-03
  weight for this iteration     100.00
  WARNING: grid for Broyden might be to small

 eigenvalues of (default mixing * dielectric matrix)
  average eigenvalue GAMMA=   1.1581
  2.8280  2.8280  1.9071  0.9882  0.9882  0.9297  0.3560  0.7263  0.5460  0.5460
  0.6270  0.6270

 Free energy of the ion-electron system (eV)
  ---------------------------------------------------
  alpha Z        PSCENC =        48.21488211
  Ewald energy   TEWEN  =     60084.27682331
  -Hartree energ DENC   =    -68510.28094756
  -exchange      EXHF   =         0.00000000
  -V(xc)+E(xc)   XCENC  =      -436.98113702
  PAW double counting   =     54929.58211472   -54012.43521593
  entropy T*S    EENTRO =        -0.17974722
  eigenvalues    EBANDS =     -2513.20566125
  atomic energy  EATOM  =      9532.10233977
  Solvation  Ediel_sol  =         0.00000000
  ---------------------------------------------------
  free energy    TOTEN  =      -878.90654906 eV

  energy without entropy =     -878.72680185  energy(sigma->0) =     -878.81667545


--------------------------------------------------------------------------------------------------------




--------------------------------------- Iteration      1(  14)  ---------------------------------------


    POTLOK:  cpu time      2.1841: real time      2.1852
    SETDIJ:  cpu time      1.6644: real time      1.6650
    EDDIAG:  cpu time     40.4849: real time     40.5109
     EDDAV:  cpu time    191.4083: real time    191.5101
       DOS:  cpu time      0.0052: real time      0.0052
    CHARGE:  cpu time     23.4579: real time     23.4819
    MIXING:  cpu time      0.0502: real time      0.0502
    --------------------------------------------
      LOOP:  cpu time    259.2549: real time    259.4085

 eigenvalue-minimisations  :  2000
 total energy-change (2. order) :-0.2056495E-03  (-0.3450420E-04)
 number of electron     371.9999999 magnetization 
 augmentation part      -20.7106721 magnetization 

 Broyden mixing:
  rms(total) = 0.21417E-03    rms(broyden)= 0.52301E-02
  rms(prec ) = 0.35318E-03
  weight for this iteration     100.00
  WARNING: grid for Broyden might be to small

 eigenvalues of (default mixing * dielectric matrix)
  average eigenvalue GAMMA=   1.1872
  3.0441  2.7717  2.2357  1.2319  0.9116  0.9116  0.9014  0.3560  0.7215  0.5437
  0.5437  0.6406  0.6207

 Free energy of the ion-electron system (eV)
  ---------------------------------------------------
  alpha Z        PSCENC =        48.21488211
  Ewald energy   TEWEN  =     60084.27682331
  -Hartree energ DENC   =    -68510.00642013
  -exchange      EXHF   =         0.00000000
  -V(xc)+E(xc)   XCENC  =      -436.98709513
  PAW double counting   =     54929.29513633   -54012.14862060
  entropy T*S    EENTRO =        -0.17974008
  eigenvalues    EBANDS =     -2513.47406029
  atomic energy  EATOM  =      9532.10233977
  Solvation  Ediel_sol  =         0.00000000
  ---------------------------------------------------
  free energy    TOTEN  =      -878.90675471 eV

  energy without entropy =     -878.72701463  energy(sigma->0) =     -878.81688467


--------------------------------------------------------------------------------------------------------




--------------------------------------- Iteration      1(  15)  ---------------------------------------


    POTLOK:  cpu time      2.1568: real time      2.1805
    SETDIJ:  cpu time      1.6606: real time      1.6618
    EDDIAG:  cpu time     40.5278: real time     40.5543
     EDDAV:  cpu time    190.8811: real time    190.9833
       DOS:  cpu time      0.0045: real time      0.0045
    CHARGE:  cpu time     23.4452: real time     23.4668
    MIXING:  cpu time      0.0737: real time      0.0743
    --------------------------------------------
      LOOP:  cpu time    258.7509: real time    258.9268

 eigenvalue-minimisations  :  1992
 total energy-change (2. order) :-0.1778743E-03  (-0.3003417E-04)
 number of electron     371.9999999 magnetization 
 augmentation part      -20.7107056 magnetization 

 Broyden mixing:
  rms(total) = 0.16252E-03    rms(broyden)= 0.40676E-02
  rms(prec ) = 0.25203E-03
  weight for this iteration     100.00
  WARNING: grid for Broyden might be to small

 eigenvalues of (default mixing * dielectric matrix)
  average eigenvalue GAMMA=   1.1919
  3.2477  2.7300  2.4137  1.3353  1.0086  1.0086  0.8849  0.3560  0.6867  0.6867
  0.5436  0.5436  0.6203  0.6203

 Free energy of the ion-electron system (eV)
  ---------------------------------------------------
  alpha Z        PSCENC =        48.21488211
  Ewald energy   TEWEN  =     60084.27682331
  -Hartree energ DENC   =    -68509.75832503
  -exchange      EXHF   =         0.00000000
[...]
   -.113E+02 -.278E+02 -.182E+03   0.112E+02 0.268E+02 0.185E+03   0.174E+00 0.972E+00 -.225E+01   -.958E-05 0.383E-04 -.106E-04
   -.405E+01 0.158E+02 -.334E+02   0.349E+01 -.160E+02 0.333E+02   0.786E+00 0.269E+00 -.103E+00   0.191E-05 -.250E-04 -.195E-04
   0.237E+02 -.128E+01 0.264E+02   -.201E+02 0.131E+01 -.280E+02   -.338E+01 0.119E+00 0.148E+01   0.612E-05 -.115E-04 -.412E-04
   0.373E+02 0.312E+02 -.235E+03   -.355E+02 -.310E+02 0.232E+03   -.189E+01 -.163E-01 0.277E+01   -.209E-05 -.679E-04 -.105E-04
   -.233E+02 0.121E+02 -.257E+03   0.226E+02 -.110E+02 0.257E+03   0.253E+00 -.105E+01 -.553E-01   0.210E-04 0.384E-04 -.809E-05
   -.127E+02 -.112E+02 -.122E+03   0.124E+02 0.899E+01 0.126E+03   0.885E+00 0.227E+01 -.314E+01   -.499E-05 -.373E-05 -.531E-05
   0.108E+02 0.176E+02 0.362E+03   -.113E+02 -.180E+02 -.361E+03   0.142E-01 0.309E+00 -.142E+01   -.260E-04 -.111E-04 -.287E-04
   -.191E+01 0.454E+01 -.109E+03   0.155E+01 -.510E+01 0.107E+03   0.435E+00 0.197E+00 0.166E+01   -.233E-05 -.190E-04 -.205E-04
   0.316E+02 0.381E+02 -.316E+03   -.309E+02 -.351E+02 0.316E+03   -.556E+00 -.262E+01 0.401E-01   0.170E-04 -.295E-04 0.791E-05
   -.325E+01 -.263E+02 0.183E+03   0.296E+01 0.254E+02 -.185E+03   0.519E+00 0.843E+00 0.151E+01   -.126E-04 -.878E-06 -.328E-04
   -.371E+02 -.136E+02 -.326E+03   0.361E+02 0.139E+02 0.326E+03   0.982E+00 0.252E-01 0.228E+00   -.973E-05 -.333E-04 0.834E-05
   -.212E+00 -.291E+01 0.223E+03   -.155E+01 0.262E+01 -.222E+03   0.159E+01 0.391E+00 -.203E+01   0.634E-05 0.194E-04 -.473E-04
   0.175E+02 -.103E+02 0.373E+03   -.159E+02 0.107E+02 -.372E+03   -.152E+01 -.184E+00 -.143E+01   0.512E-05 -.972E-05 -.231E-04
   -.813E+01 0.400E+01 0.356E+03   0.861E+01 -.445E+01 -.354E+03   -.155E+00 0.369E+00 -.142E+01   0.213E-05 -.403E-06 -.470E-04
   -.539E+00 0.833E+01 0.205E+03   0.348E+01 -.906E+01 -.206E+03   -.289E+01 0.684E+00 0.165E+01   -.574E-05 0.227E-04 -.424E-04
   -.692E+00 -.154E+02 0.319E+02   0.444E+00 0.132E+02 -.314E+02   0.223E+00 0.211E+01 -.270E+00   -.729E-05 0.923E-05 -.198E-04
   0.385E+02 -.176E+02 0.343E+03   -.372E+02 0.154E+02 -.341E+03   -.104E+01 0.230E+01 -.107E+01   0.148E-04 0.207E-04 -.309E-04
   0.243E+02 0.193E+02 0.302E+03   -.236E+02 -.185E+02 -.304E+03   -.105E+01 -.770E+00 0.110E+01   0.629E-05 -.195E-04 -.242E-04
   0.292E+02 0.595E+01 0.235E+03   -.289E+02 -.556E+01 -.237E+03   -.445E+00 -.658E+00 0.176E+01   0.104E-04 -.774E-05 -.330E-04
   0.968E+01 -.150E+02 -.401E+03   -.966E+01 0.145E+02 0.401E+03   0.275E-01 0.469E+00 0.111E+01   0.223E-04 0.250E-04 0.355E-04
   -.630E+01 0.923E+00 -.660E+02   0.667E+01 -.262E+01 0.654E+02   -.489E+00 0.170E+01 0.553E+00   -.116E-04 -.162E-05 -.362E-04
   0.377E+02 0.205E+02 -.129E+03   -.369E+02 -.197E+02 0.129E+03   -.600E+00 -.692E+00 -.435E+00   0.993E-06 -.317E-04 -.109E-04
   -.100E+02 -.176E+02 0.305E+03   0.107E+02 0.150E+02 -.303E+03   -.517E+00 0.188E+01 -.134E+01   -.125E-04 0.212E-04 -.381E-04
   -.202E+02 0.150E+01 -.458E+02   0.197E+02 -.234E+01 0.449E+02   0.472E+00 0.708E+00 0.105E+01   0.833E-05 -.294E-04 -.170E-04
   -.241E+02 -.164E+02 -.372E+03   0.246E+02 0.160E+02 0.374E+03   -.267E+00 0.224E+00 -.114E+01   0.105E-05 0.265E-04 0.153E-04
   0.251E+01 0.671E+01 0.182E+03   -.160E+01 -.819E+01 -.179E+03   -.100E+01 0.161E+01 -.231E+01   -.100E-04 -.285E-04 -.375E-04
   0.171E+01 -.668E+00 -.686E+02   -.233E+01 0.253E+01 0.671E+02   0.497E+00 -.158E+01 0.165E+01   0.184E-04 0.140E-04 -.314E-04
   -.285E+02 -.594E+01 0.287E+03   0.264E+02 0.563E+01 -.288E+03   0.217E+01 0.355E+00 0.113E+01   -.722E-05 0.218E-05 -.387E-04
   0.348E+02 -.186E+02 -.477E+02   -.345E+02 0.190E+02 0.486E+02   -.361E+00 -.401E+00 -.914E+00   0.552E-05 0.187E-04 -.251E-04
   -.105E+02 0.149E+02 -.248E+03   0.112E+02 -.152E+02 0.244E+03   -.764E+00 0.252E-01 0.336E+01   0.581E-05 0.260E-04 0.918E-05
   0.173E+02 -.582E+01 0.233E+03   -.166E+02 0.539E+01 -.231E+03   -.754E+00 0.505E+00 -.155E+01   0.219E-04 -.828E-05 -.412E-04
   -.515E+01 -.224E+02 -.292E+03   0.565E+01 0.216E+02 0.292E+03   -.222E+00 0.573E+00 0.152E+00   -.344E-05 0.419E-04 0.303E-05
   -.370E+02 -.234E+02 -.216E+03   0.368E+02 0.229E+02 0.216E+03   0.647E-01 0.649E+00 -.222E+00   0.706E-06 -.134E-04 0.197E-04
   0.207E+02 0.174E+02 -.628E+02   -.203E+02 -.141E+02 0.637E+02   -.571E+00 -.331E+01 -.131E+01   0.139E-04 0.115E-04 -.364E-04
   0.239E+02 0.228E+02 0.235E+02   -.262E+02 -.229E+02 -.258E+02   0.204E+01 -.185E+00 0.213E+01   0.153E-04 -.210E-04 -.386E-04
   0.309E+01 -.194E+02 0.250E+03   -.381E+01 0.181E+02 -.250E+03   0.183E+00 0.125E+01 -.445E+00   0.761E-06 0.407E-05 -.209E-04
   -.307E+02 0.149E+02 -.756E+02   0.292E+02 -.122E+02 0.782E+02   0.133E+01 -.248E+01 -.255E+01   -.118E-04 -.196E-04 -.207E-04
   0.192E+02 0.214E+02 -.200E+03   -.184E+02 -.200E+02 0.199E+03   -.533E+00 -.151E+01 0.756E-01   -.436E-04 0.282E-04 -.254E-04
   -.201E+02 0.153E+02 0.788E+01   0.199E+02 -.137E+02 -.784E+01   0.161E+00 -.162E+01 -.301E+00   -.107E-04 -.358E-04 -.434E-04
 -----------------------------------------------------------------------------------------------
   0.715E+01 -.125E+02 0.911E+01   -.181E-12 0.131E-12 -.280E-12   -.714E+01 0.125E+02 -.910E+01   0.449E-04 0.635E-05 -.172E-02


 POSITION                                       TOTAL-FORCE (eV/Angst)
 -----------------------------------------------------------------------------------
     10.17338     13.19807     11.81967        -0.052396      0.088915     -0.027841
      4.73182     12.12290     13.22991         0.364260      0.074395      0.553013
      5.14370     12.24485     13.93089        -0.213282     -0.046427     -0.139190
      4.60502      3.64195     13.08226         0.052214      0.054737     -0.210944
      6.99976      3.72031     14.41508        -0.056055      0.200105      0.101938
      4.69669      0.20425     18.32465        -0.230180     -0.002018      0.181297
     13.26717     12.91987     17.59580         0.304679     -0.279032      0.172584
      1.76050      8.95192     15.93112        -0.010080      0.040623     -0.022903
      7.99720      2.14898     17.57793         0.025041      0.165591      0.017140
      6.91394     11.02214     17.98136         0.280162      0.334453     -0.495987
      5.34227      8.85116     13.21568        -0.163717      0.056290     -0.048497
      1.82809      7.13377     14.45941         0.142472     -0.138036     -0.011025
      3.87520     11.51835     16.47796        -0.090422      0.031479     -0.133637
      6.93516      9.40044     11.64213        -0.116266      0.082433      0.182517
     10.87135      8.93475     17.48929        -0.014049     -0.329525      0.104034
     14.11868      9.75622      9.85260         0.124642      0.104270     -0.269927
      0.08311      8.68395     17.52018        -0.181778     -0.024757     -0.136531
      5.42127      6.59373     13.61529        -0.042893      0.193799      0.031799
     10.27012      4.69946     12.58594        -0.031375      0.314804      0.083890
      8.84924      6.56966     12.77486         0.072989     -0.042810     -0.029626
      3.90222      8.95216     16.84936        -0.119632      0.065484     -0.120625
      3.93666     11.67014     11.53392         0.423959     -0.140286     -0.432218
      1.15425      0.33946     10.83529        -0.762016     -0.080566     -0.115370
     14.00634     11.21477     13.13354         0.053297     -0.062313     -0.081851
      0.99197      3.42134     15.65790        -0.012225      0.198375     -0.125881
      4.23307      2.40797     17.76712         0.408278     -0.288580      0.140837
      9.61926      1.35647     10.46462         0.012241      0.265509     -0.070694
      1.29712     12.61272     13.90119         0.085551     -0.068756     -0.030627
      8.67675      2.47271     15.35150         0.055789     -0.152850      0.126497
     14.25831      0.32150     16.91015        -0.108047     -0.171264     -0.212286
     13.11086      2.82451     12.38220         0.197434      0.090229     -0.230830
      3.27940      9.79289     12.72826        -0.110718     -0.258382      0.074498
      9.98771      6.88189     17.14455         0.089600      0.361108     -0.031486
      5.71766      5.57615     11.53039        -0.058524     -0.126879     -0.512135
      0.29994      6.30584     17.58597        -0.061048     -0.076812      0.086349
     11.60554     12.76984     15.97708         0.081969      0.553980     -0.075895
      7.42847      6.03878     14.64095         0.264306      0.109806     -0.105092
      2.59979     13.50219     12.09359        -0.156517      0.051222     -0.129684
     11.91965      1.20058     11.05554        -0.051573     -0.025700     -0.085051
     12.01098     10.46177     10.26832         0.066642     -0.809581      0.409011
     12.32743     10.85234     14.74221        -0.088963     -0.011487      0.151343
     10.55055      8.15136     12.57012         0.192701      0.068177      0.069449
      6.76100      3.52072     12.06676        -0.185515      0.133568      0.022367
     12.79579      6.80999     14.94603        -0.022373     -0.303250      0.211237
      8.00234      0.33407     11.94845         0.147401      0.155027      0.233009
      3.62143     13.88343     16.44212        -0.163169     -0.296733      0.291316
     12.95936     12.25404     11.33301         0.297790      0.335892     -0.229548
      9.37059      9.98724     16.08326        -0.194876      0.094457     -0.168351
      5.63110      9.55244     15.35883         0.154353     -0.183881     -0.133885
     12.66073      7.18324     12.65934        -0.027994      0.231586     -0.213092
     13.56476     14.21941     10.20664         0.368595      0.196097      0.465937
     13.11400      4.54109     17.60468         0.030698      0.066681     -0.152015
      8.31034     12.80692     18.61933         0.002694      0.008963      0.239946
      3.73853      4.97004     10.36767        -0.102540      0.201981      0.475856
      7.00509      0.04550     17.66161        -0.087065     -0.250368      0.066427
     12.24359      2.14700     14.50726        -0.100723     -0.157534      0.003015
     11.47893     13.77623     12.26780        -0.211554     -0.033812     -0.114098
     12.76092      8.93625     16.13576        -0.007525      0.029496      0.018627
      5.12573      0.37780     14.89476         0.224916      0.137990     -0.217946
      3.51493      3.79121     14.12855         0.059662      0.129599     -0.137383
     13.55861      2.48298     16.42171        -0.094650      0.166868      0.100396
      7.73332      6.75461     16.88464        -0.410570      0.047968      0.116916
      6.10640     11.75484     15.87815         0.500408      0.113340      0.281185
     10.01967      9.42349     10.64283        -0.297488      0.056172     -0.404919
      5.14487      2.70087     15.50498         0.091363     -0.349373     -0.101247
      2.32773      3.64121     17.56810         0.101401      0.260137     -0.055867
      8.81481     10.72313     12.19070         0.222790     -0.062993     -0.046792
      6.17773      3.56814     17.69215        -0.008281      0.326497      0.156725
      1.75303      8.04397     12.33878        -0.100033      0.122895     -0.504151
      6.02499     11.32443     10.55330        -0.076991      0.234040      0.258366
      7.41703      7.16960     10.97442         0.275647     -0.041728      0.256867
     14.17939      8.99413     12.08897        -0.089694      0.002294      0.276050
     10.25127     10.03033     13.91301        -0.032852      0.022464      0.183047
      1.85596      6.20217     10.88064         0.440308      0.078381      0.487481
      5.92066      1.40708     11.59789        -0.233598      0.052796      0.097576
      2.24614      4.19365     12.01557        -0.164620     -0.297668     -0.179376
      2.29447      5.67916     18.55189         0.007384     -0.037473      0.329803
     10.54316      3.72057     14.74733        -0.130861      0.078248     -0.030207
      1.51915     14.44642     15.45948         0.152286      0.028639     -0.049494
      8.94591      3.30014     11.37562         0.093907     -0.661367     -0.068919
     11.18366     14.52250     14.43205        -0.005694     -0.097465      0.136610
      6.08934      5.79211     18.18808         0.199496     -0.216947      0.258630
      4.04325      0.66855     12.87275        -0.136512      0.193987      0.264084
      3.71975      5.95627     15.02791        -0.103226      0.202549      0.149386
     12.39962      5.00838     11.71035         0.072855      0.035274      0.158635
      2.48530     10.79877     14.72874        -0.054992     -0.024026     -0.056462
      7.38615      9.05204     16.73244        -0.150852     -0.263032     -0.014645
      0.86785      2.27298     12.11178        -0.129863      0.106720     -0.149394
      4.06946      6.58729     17.32159         0.249937     -0.230603     -0.080113
      9.37843     12.25073     16.62775        -0.118832      0.072717      0.271722
      0.28553      5.67945     15.33452        -0.186475     -0.086831     -0.335145
      2.05801      1.85364     14.07369        -0.142601     -0.276304     -0.029845
      7.60519     12.58560     11.66440        -0.493244     -0.092056     -0.321847
      7.16957     13.79770     15.43165        -0.168220      0.077255     -0.059632
     11.40304      5.36904     16.19550         0.262210     -0.230000     -0.309824
      8.83806      0.42434     14.21362        -0.089085     -0.176858     -0.247377
 -----------------------------------------------------------------------------------
    total drift:                                0.010713      0.000195      0.003904


--------------------------------------------------------------------------------------------------------



  FREE ENERGIE OF THE ION-ELECTRON SYSTEM (eV)
  ---------------------------------------------------
  free  energy   TOTEN  =      -878.90713859 eV

  energy  without entropy=     -878.72738168  energy(sigma->0) =     -878.81726014



--------------------------------------------------------------------------------------------------------


    POTLOK:  cpu time      3.8111: real time      3.8133


--------------------------------------------------------------------------------------------------------


     LOOP+:  cpu time   5918.1920: real time   5922.2576
    4ORBIT:  cpu time      0.0000: real time      0.0000



 total charge

# of ion       s       p       d       tot
------------------------------------------
    1        0.568   0.017   0.000   0.585
    2        0.580   0.029   0.000   0.609
    3        0.554   0.027   0.000   0.581
    4        0.559   0.018   0.000   0.577
    5        0.770   0.924   0.000   1.693
    6        0.808   0.853   0.000   1.661
    7        0.866   0.755   0.000   1.621
    8        0.761   0.956   0.000   1.717
    9        0.790   0.884   0.000   1.674
   10        0.816   0.813   0.000   1.629
   11        0.758   0.996   0.000   1.753
   12        0.764   0.978   0.000   1.741
   13        0.784   0.859   0.000   1.643
   14        0.755   0.925   0.000   1.679
   15        0.795   0.901   0.000   1.696
   16        0.872   0.749   0.000   1.621
   17        0.811   0.846   0.000   1.657
   18        0.760   0.973   0.000   1.733
   19        0.756   0.961   0.000   1.717
   20        0.753   0.934   0.000   1.686
   21        0.787   0.859   0.000   1.646
   22        0.785   0.865   0.000   1.650
   23        0.779   0.885   0.000   1.664
   24        0.759   0.898   0.000   1.656
   25        0.774   0.900   0.000   1.674
   26        0.770   0.938   0.000   1.707
   27        0.794   0.858   0.000   1.652
   28        0.752   0.916   0.000   1.667
   29        0.754   0.965   0.000   1.719
   30        0.788   0.882   0.000   1.670
   31        0.757   0.895   0.000   1.653
   32        0.753   0.957   0.000   1.710
   33        0.791   0.899   0.000   1.690
   34        0.760   0.911   0.000   1.671
   35        0.764   0.906   0.000   1.670
   36        0.759   0.912   0.000   1.671
   37        0.759   0.925   0.000   1.684
   38        0.747   0.928   0.000   1.675
   39        0.756   0.908   0.000   1.663
   40        0.797   0.895   0.000   1.691
   41        0.753   0.912   0.000   1.665
   42        0.760   0.942   0.000   1.701
   43        0.754   0.950   0.000   1.704
   44        0.776   0.905   0.000   1.681
   45        0.749   0.888   0.000   1.637
   46        0.771   0.902   0.000   1.672
   47        0.750   0.960   0.000   1.710
   48        0.759   0.959   0.000   1.717
   49        0.767   0.961   0.000   1.728
   50        0.757   0.919   0.000   1.676
   51        0.791   0.853   0.000   1.644
   52        0.807   0.804   0.000   1.610
   53        0.819   0.829   0.000   1.648
   54        0.808   0.836   0.000   1.645
   55        0.762   0.904   0.000   1.666
   56        0.759   0.928   0.000   1.687
   57        0.756   0.977   0.000   1.732
   58        0.757   0.916   0.000   1.673
   59        0.776   0.902   0.000   1.679
   60        0.750   0.947   0.000   1.697
   61        0.759   0.931   0.000   1.690
   62        0.752   0.961   0.000   1.713
   63        0.770   0.936   0.000   1.706
   64        0.808   0.856   0.000   1.664
   65        0.770   0.890   0.000   1.660
   66        0.785   0.893   0.000   1.677
   67        0.758   0.943   0.000   1.701
   68        0.777   0.910   0.000   1.687
   69        0.758   0.943   0.000   1.701
   70        0.784   0.868   0.000   1.652
   71        0.799   0.826   0.000   1.625
   72        0.756   0.905   0.000   1.661
   73        0.759   0.926   0.000   1.685
   74        0.802   0.846   0.000   1.649
   75        0.792   0.851   0.000   1.643
   76        0.779   0.860   0.000   1.639
   77        0.791   0.902   0.000   1.693
   78        0.759   0.942   0.000   1.701
   79        0.754   0.899   0.000   1.654
   80        0.788   0.910   0.000   1.698
   81        0.753   0.936   0.000   1.688
   82        0.795   0.896   0.000   1.691
   83        0.767   0.889   0.000   1.655
   84        0.761   0.952   0.000   1.712
   85        0.795   0.844   0.000   1.638
   86        0.760   0.953   0.000   1.713
   87        0.763   0.951   0.000   1.714
   88        0.750   0.939   0.000   1.689
   89        0.758   0.888   0.000   1.646
   90        0.802   0.849   0.000   1.651
   91        0.761   0.940   0.000   1.702
   92        0.753   0.883   0.000   1.636
   93        0.792   0.871   0.000   1.663
   94        0.762   0.901   0.000   1.663
   95        0.752   0.961   0.000   1.713
   96        0.761   0.907   0.000   1.668
--------------------------------------------------
tot         73.424  83.249   0.000 156.673


 total amount of memory used by VASP MPI-rank0   366983. kBytes
=======================================================================

   base                                    :      30000. kBytes
   nonl-proj                               :      73089. kBytes
   fftplans                                :     110224. kBytes
   grid                                    :      85039. kBytes
   one-center                              :         18. kBytes
   wavefun                                 :      68613. kBytes

  
  
 General timing and accounting informations for this job:
 ========================================================
  
                  Total CPU time used (sec):     6067.518
                            User time (sec):     5384.681
                          System time (sec):      682.837
                         Elapsed time (sec):     6071.559
  
                   Maximum memory used (kb):      635540.
                   Average memory used (kb):          N/A
  
                          Minor page faults:      9308096
                          Major page faults:         1166
                 Voluntary context switches:         3081
