 vasp.6.5.0 16Dec24 (build Jan 20 2025 08:32:48) complex                         
 executed on        HPECrayEX_GCC date 2025.07.28  20:20:14
 running  128 mpi-ranks, with    1 threads/rank, on    1 nodes
 distrk:  each k-point on  128 cores,    1 groups
 distr:  one band on NCORE=  16 cores,    8 groups


--------------------------------------------------------------------------------------------------------


 INCAR:
   SYSTEM = a-Si SPC
   NCORE = 16
   ISTART = 1
   ICHARG = 1
   ISPIN = 1
   ISYM = 1
   EDIFF = 1E-6
   NELM = 150
   EDIFFG = -0.01
   NSW = 0
   ISIF = 2
   IBRION = -1
   PREC = Accurate
   ENCUT = 1200
   KSPACING = 0.23
   KGAMMA = .TRUE.
   METAGGA = SCAN
   LASPH = .TRUE.
   LDIAG = .FALSE.
   LMIXTAU = .TRUE.
   ADDGRID = .TRUE.
   ALGO = Normal
   ISMEAR = 0
   SIGMA = 0.1
   LORBIT = 11
   NEDOS = 2000
   LWAVE = .FALSE.
   LCHARG = .FALSE.

 POTCAR:    PAW_PBE H 15Jun2001                   
 POTCAR:    PAW_PBE Si 05Jan2001                  
 POTCAR:    PAW_PBE H 15Jun2001                   
   SHA256 =  030f79b5d3ab3cf0e668861823c8fb652ff669f3e15e46930bd03bfd63a607b6 H/POTCAR              
   COPYR  = (c) Copyright 15Jun2001 Georg Kresse                                                    
   COPYR  = This file is part of the software VASP. Any use, copying, and all other rights are regul
   COPYR  = If you do not have a valid VASP license, you may not use, copy or distribute this file. 
   VRHFIN =H: ultrasoft test                                                                        
   LEXCH  = PE                                                                                      
   EATOM  =    12.4884 eV,    0.9179 Ry                                                             
                                                                                                    
   TITEL  = PAW_PBE H 15Jun2001                                                                     
   LULTRA =        F    use ultrasoft PP ?                                                          
   IUNSCR =        0    unscreen: 0-lin 1-nonlin 2-no                                               
   RPACOR =    0.000    partial core radius                                                         
   POMASS =    1.000; ZVAL   =    1.000    mass and valenz                                          
   RCORE  =    1.100    outmost cutoff radius                                                       
   RWIGS  =    0.700; RWIGS  =    0.370    wigner-seitz radius (au A)                               
   ENMAX  =  250.000; ENMIN  =  200.000 eV                                                          
   RCLOC  =    0.701    cutoff for local pot                                                        
   LCOR   =        T    correct aug charges                                                         
   LPAW   =        T    paw PP                                                                      
   EAUG   =  400.000                                                                                
   RMAX   =    1.123    core radius for proj-oper                                                   
   RAUG   =    1.200    factor for augmentation sphere                                              
   RDEP   =    1.112    radius for radial grids                                                     
   RDEPT  =    0.926    core radius for aug-charge                                                  
                                                                                                    
   Atomic configuration                                                                             
    2 entries                                                                                       
     n  l   j            E        occ.                                                              
     1  0  0.50        -6.4927   1.0000                                                             
     2  1  0.50        -3.4015   0.0000                                                             
   Description                                                                                      
     l       E           TYP  RCUT    TYP  RCUT                                                     
     0     -6.4927494     23  1.100                                                                 
     0      6.8029130     23  1.100                                                                 
     1     -4.0817478     23  1.100                                                                 
  local pseudopotential read in
  atomic valenz-charges read in
  non local Contribution for L=           0  read in
    real space projection operators read in
  non local Contribution for L=           0  read in
    real space projection operators read in
  non local Contribution for L=           1  read in
    real space projection operators read in
    PAW grid and wavefunctions read in

   number of l-projection  operators is LMAX  =           3
   number of lm-projection operators is LMMAX =           5

 POTCAR:    PAW_PBE Si 05Jan2001                  
   SHA256 =  79d9987ad8750f624c4d6acb2a16d13abf6a777132adc04dc6c8399be72b42bb Si/POTCAR             
   COPYR  = (c) Copyright 05Jan2001 Georg Kresse                                                    
   COPYR  = This file is part of the software VASP. Any use, copying, and all other rights are regul
   COPYR  = If you do not have a valid VASP license, you may not use, copy or distribute this file. 
   VRHFIN =Si: s2p2                                                                                 
   LEXCH  = PE                                                                                      
   EATOM  =   103.0669 eV,    7.5752 Ry                                                             
                                                                                                    
   TITEL  = PAW_PBE Si 05Jan2001                                                                    
   LULTRA =        F    use ultrasoft PP ?                                                          
   IUNSCR =        1    unscreen: 0-lin 1-nonlin 2-no                                               
   RPACOR =    1.500    partial core radius                                                         
   POMASS =   28.085; ZVAL   =    4.000    mass and valenz                                          
   RCORE  =    1.900    outmost cutoff radius                                                       
   RWIGS  =    2.480; RWIGS  =    1.312    wigner-seitz radius (au A)                               
   ENMAX  =  245.345; ENMIN  =  184.009 eV                                                          
   ICORE  =        2    local potential                                                             
   LCOR   =        T    correct aug charges                                                         
   LPAW   =        T    paw PP                                                                      
   EAUG   =  322.069                                                                                
   DEXC   =    0.000                                                                                
   RMAX   =    1.950    core radius for proj-oper                                                   
   RAUG   =    1.300    factor for augmentation sphere                                              
   RDEP   =    1.993    radius for radial grids                                                     
   RDEPT  =    1.837    core radius for aug-charge                                                  
                                                                                                    
   Atomic configuration                                                                             
    6 entries                                                                                       
     n  l   j            E        occ.                                                              
     1  0  0.50     -1785.8828   2.0000                                                             
     2  0  0.50      -139.4969   2.0000                                                             
     2  1  1.50       -95.5546   6.0000                                                             
     3  0  0.50       -10.8127   2.0000                                                             
     3  1  0.50        -4.0811   2.0000                                                             
     3  2  1.50        -4.0817   0.0000                                                             
   Description                                                                                      
     l       E           TYP  RCUT    TYP  RCUT                                                     
     0    -10.8127223     23  1.900                                                                 
     0     -7.6451159     23  1.900                                                                 
     1     -4.0811372     23  1.900                                                                 
     1      2.4879257     23  1.900                                                                 
     2     -4.0817478      7  1.900                                                                 
  local pseudopotential read in
  partial core-charges read in
  partial kinetic energy density read in
  atomic valenz-charges read in
  non local Contribution for L=           0  read in
    real space projection operators read in
  non local Contribution for L=           0  read in
    real space projection operators read in
  non local Contribution for L=           1  read in
    real space projection operators read in
  non local Contribution for L=           1  read in
    real space projection operators read in
    PAW grid and wavefunctions read in

   number of l-projection  operators is LMAX  =           4
   number of lm-projection operators is LMMAX =           8

 -----------------------------------------------------------------------------
|                                                                             |
|               ----> ADVICE to this user running VASP <----                  |
|                                                                             |
|     You have a (more or less) 'large supercell' and for larger cells it     |
|     might be more efficient to use real-space projection operators.         |
|     Therefore, try LREAL= Auto in the INCAR file.                           |
|     Mind: For very accurate calculation, you might also keep the            |
|     reciprocal projection scheme (i.e. LREAL=.FALSE.).                      |
|                                                                             |
 -----------------------------------------------------------------------------

 -----------------------------------------------------------------------------
|                                                                             |
|               ----> ADVICE to this user running VASP <----                  |
|                                                                             |
|     You enforced a specific xc type in the INCAR file but a different       |
|     type was found in the POTCAR file.                                      |
|     I HOPE YOU KNOW WHAT YOU ARE DOING!                                     |
|                                                                             |
 -----------------------------------------------------------------------------

  PAW_PBE H 15Jun2001                   :
 energy of atom  1       EATOM=  -12.4884
 kinetic energy error for atom=    0.0000 (will be added to EATOM!!)
  PAW_PBE Si 05Jan2001                  :
 energy of atom  2       EATOM= -103.0669
 kinetic energy error for atom=    0.0001 (will be added to EATOM!!)


 POSCAR:  H Si
  positions in cartesian coordinates
  No initial velocities read in


 exchange-correlation table for SCAN
   RHO(1)=    0.500       N(1)  =     2000
   RHO(2)=  100.500       N(2)  =     4000



--------------------------------------------------------------------------------------------------------


 ion  position               nearest neighbor table
   1  0.259  0.996  0.499-  34 1.64  14 1.72
   2  0.196  0.386  0.443-  42 1.49
   3  0.720  0.406  0.397-  31 2.30  43 2.31  59 2.32  16 2.59
   4  0.446  0.958  0.535-  54 2.35  34 2.36  53 2.36  10 2.47
   5  0.976  0.453  0.443-  59 2.32   6 2.37  51 2.44
   6  0.053  0.589  0.470-  39 2.32   8 2.33  19 2.34   5 2.37
   7  0.538  0.622  0.561-  58 2.31   9 2.34  30 2.36
   8  0.106  0.724  0.432-   6 2.33  17 2.37  37 2.44  24 2.53
   9  0.508  0.474  0.529-   7 2.34  41 2.37  56 2.39  16 2.43
  10  0.469  0.014  0.445-  21 2.33  18 2.34  25 2.34   4 2.47  54 2.84
  11  0.054  0.002  0.503-  57 2.29  12 2.32  38 2.36  62 2.37  27 2.83  36 3.06
  12  0.102  0.121  0.449-  14 2.30  11 2.32  55 2.39
  13  0.769  0.538  0.598-  35 2.26  46 2.34  30 2.35
  14  0.254  0.081  0.452-   1 1.72  12 2.30  25 2.30  50 2.36  34 2.83
  15  0.756  0.807  0.537-  20 2.35  45 2.37  32 2.38  30 2.43
  16  0.633  0.397  0.484-  46 2.35  41 2.40   9 2.43  43 2.45  48 2.50   3 2.59  31 2.66  59 3.13

  17  0.207  0.782  0.496-  38 2.30   8 2.37  22 2.38  40 2.38  37 2.85
  18  0.585  0.904  0.436-  10 2.34  54 2.37  45 2.39
  19  0.959  0.674  0.525-  35 2.29  49 2.32   6 2.34  32 2.38
  20  0.893  0.875  0.566-  49 2.29  27 2.34  15 2.35  57 2.46
  21  0.483  0.160  0.481-  48 2.26  10 2.33  50 2.33  52 2.35  41 2.80
  22  0.321  0.841  0.438-  25 2.35  37 2.35  54 2.36  17 2.38
  23  0.450  0.403  0.393-  48 2.31  43 2.32  56 2.34
  24  0.958  0.812  0.421-  32 2.33  57 2.35   8 2.53
  25  0.335  0.985  0.397-  14 2.30  10 2.34  22 2.35
  26  0.843  0.291  0.543-  46 2.29  51 2.35  47 2.36
  27  0.903  0.035  0.569-  20 2.34  62 2.36  61 2.40  57 2.80  11 2.83
  28  0.344  0.621  0.463-  56 2.32  58 2.34  40 2.36  37 2.42
  29  0.041  0.456  0.579-  35 2.29  51 2.37  39 2.40
  30  0.696  0.652  0.548-  13 2.35   7 2.36  44 2.41  15 2.43
  31  0.680  0.260  0.421-   3 2.30  48 2.32  47 2.35  16 2.66
  32  0.845  0.738  0.470-  44 2.30  24 2.33  19 2.38  15 2.38  57 3.05
  33  0.601  0.643  0.412-  43 2.30  44 2.35  58 2.37
  34  0.305  0.029  0.554-   1 1.64  50 2.34  36 2.34   4 2.36  14 2.83
  35  0.920  0.556  0.580-  13 2.26  29 2.29  19 2.29
  36  0.170  0.001  0.602-  38 2.34  34 2.34  62 2.40  11 3.06
  37  0.262  0.708  0.398-  22 2.35  28 2.42   8 2.44  17 2.85
  38  0.124  0.879  0.549-  17 2.30  49 2.33  36 2.34  11 2.36
  39  0.158  0.531  0.529-   6 2.32  42 2.36  40 2.38  29 2.40
  40  0.266  0.652  0.541-  28 2.36  39 2.38  17 2.38
  41  0.530  0.314  0.540-   9 2.37  16 2.40  52 2.44  48 2.63  21 2.80
  42  0.243  0.409  0.493-   2 1.49  60 2.31  56 2.33  39 2.36
  43  0.584  0.486  0.408-  33 2.30   3 2.31  23 2.32  16 2.45  48 3.08
  44  0.738  0.623  0.459-  32 2.30  33 2.35  59 2.36  30 2.41
  45  0.673  0.940  0.512-  53 2.35  61 2.36  15 2.37  18 2.39
  46  0.767  0.428  0.532-  26 2.29  13 2.34  16 2.35  59 2.36
  47  0.749  0.192  0.494-  31 2.35  26 2.36  61 2.37  52 2.40
  48  0.526  0.289  0.439-  21 2.26  23 2.31  31 2.32  16 2.50  41 2.63  43 3.08
  49  0.015  0.781  0.585-  20 2.29  19 2.32  38 2.33
  50  0.335  0.170  0.514-  60 2.30  21 2.33  34 2.34  14 2.36
  51  0.987  0.348  0.517-  26 2.35  55 2.36  29 2.37   5 2.44
  52  0.607  0.165  0.539-  21 2.35  53 2.38  47 2.40  41 2.44
  53  0.582  0.015  0.573-  45 2.35   4 2.36  52 2.38
  54  0.464  0.829  0.481-  58 2.31   4 2.35  22 2.36  18 2.37  10 2.84
  55  0.094  0.227  0.520-  60 2.34  51 2.36  62 2.37  12 2.39
  56  0.385  0.468  0.467-  28 2.32  42 2.33  23 2.34   9 2.39
  57  0.920  0.933  0.477-  11 2.29  24 2.35  61 2.36  20 2.46  27 2.80  32 3.05
  58  0.494  0.673  0.480-  54 2.31   7 2.31  28 2.34  33 2.37
  59  0.820  0.484  0.451-   3 2.32   5 2.32  46 2.36  44 2.36  16 3.13
  60  0.238  0.281  0.546-  50 2.30  42 2.31  55 2.34
  61  0.800  0.037  0.496-  57 2.36  45 2.36  47 2.37  27 2.40
  62  0.050  0.103  0.575-  27 2.36  55 2.37  11 2.37  36 2.40

  LATTYP: Found a simple tetragonal cell.
 ALAT       =    14.5538280032
 C/A-ratio  =     1.7673955604
  
  Lattice vectors:
  
 A1 = (  14.5538280032,   0.0000000000,   0.0000000000)
 A2 = (   0.0000000000,  14.5538280032,   0.0000000000)
 A3 = (   0.0000000000,   0.0000000000,  25.7223710000)


Analysis of symmetry for initial positions (statically):
=====================================================================
 Subroutine PRICEL returns:
 Original cell was already a primitive cell.
 

 Routine SETGRP: Setting up the symmetry group for a 
 simple tetragonal supercell.


 Subroutine GETGRP returns: Found  1 space group operations
 (whereof  1 operations were pure point group operations)
 out of a pool of 16 trial point group operations.


The static configuration has the point symmetry C_1 .


Analysis of symmetry for dynamics (positions and initial velocities):
=====================================================================
 Subroutine PRICEL returns:
 Original cell was already a primitive cell.
 

 Routine SETGRP: Setting up the symmetry group for a 
 simple tetragonal supercell.


 Subroutine GETGRP returns: Found  1 space group operations
 (whereof  1 operations were pure point group operations)
 out of a pool of 16 trial point group operations.


The dynamic configuration has the point symmetry C_1 .


 Subroutine INISYM returns: Found  1 space group operations
 (whereof  1 operations are pure point group operations),
 and found     1 'primitive' translations


----------------------------------------------------------------------------------------

                                     Primitive cell                                     

  volume of cell :    5448.3560

  direct lattice vectors                    reciprocal lattice vectors
    14.553828003  0.000000000  0.000000000     0.068710445  0.000000000  0.000000000
     0.000000000 14.553828003  0.000000000     0.000000000  0.068710445  0.000000000
     0.000000000  0.000000000 25.722371000     0.000000000  0.000000000  0.038876665

  length of vectors
    14.553828003 14.553828003 25.722371000     0.068710445  0.068710445  0.038876665

  position of ions in fractional coordinates (direct lattice)
     0.258592228  0.996361420  0.498992341
     0.196253622  0.385739647  0.442565918
     0.719983102  0.406228891  0.396689665
     0.446045820  0.957781216  0.534864033
     0.976090153  0.453061047  0.443088786
     0.053140394  0.588665872  0.470072982
     0.538480731  0.621705746  0.560952691
     0.106033544  0.723762969  0.432017589
     0.507639984  0.474197043  0.529206007
     0.469072090  0.013521868  0.445230948
     0.054004553  0.001519305  0.502884330
     0.101717022  0.120901425  0.449316355
     0.768551197  0.538077824  0.598107503
     0.254257468  0.080626532  0.452248532
     0.755999786  0.806995539  0.537257513
     0.632518223  0.397161875  0.484323107
     0.207372666  0.782288462  0.496096726
     0.584886692  0.903621019  0.436095288
     0.958698299  0.673998382  0.525413023
     0.893358911  0.874947693  0.565984847
     0.483387072  0.159631614  0.480958290
     0.320541236  0.841090363  0.438189704
     0.450464960  0.403152042  0.392805759
     0.957583688  0.811532453  0.420978850
     0.334948306  0.984943839  0.397446086
     0.842849874  0.291381547  0.543162394
     0.903006417  0.035269053  0.569212324
     0.344101356  0.621327916  0.462966358
     0.040971428  0.456074678  0.579425819
     0.696414854  0.652348524  0.548054366
     0.679524164  0.260043265  0.421217710
     0.844558383  0.738002981  0.470007127
     0.600870749  0.642708420  0.412494251
     0.304698291  0.028876953  0.554207429
     0.919733148  0.555836008  0.580000471
     0.170357107  0.000848657  0.601821434
     0.261506749  0.708470470  0.398079649
     0.123712188  0.879451971  0.548559541
     0.158321942  0.530887017  0.529305559
     0.265725867  0.652169182  0.541474353
     0.529547709  0.314043401  0.540183127
     0.243165793  0.409080047  0.492552272
     0.584334152  0.485629882  0.408199238
     0.738103634  0.623025602  0.459047896
     0.673221757  0.939585756  0.511639313
     0.766640205  0.427873498  0.531844540
     0.749093526  0.191733137  0.494020855
     0.525775088  0.289287969  0.438916726
     0.015089207  0.780848349  0.584534051
     0.334776949  0.169597722  0.513830860
     0.986805325  0.348451248  0.517199969
     0.607244596  0.165306070  0.539269701
     0.581639787  0.015457660  0.573149067
     0.463722623  0.828793139  0.480849380
     0.093858027  0.226599956  0.520164972
     0.385191374  0.467584290  0.467475985
     0.919593731  0.933038069  0.477483674
     0.493521642  0.673093540  0.479721300
     0.820212696  0.483623859  0.451219808
     0.238117176  0.281465416  0.545639168
     0.800080511  0.037424148  0.496489043
     0.050302499  0.103091360  0.574736674

  ion indices of the primitive-cell ions
   primitive index   ion index
                 1           1
                 2           2
                 3           3
                 4           4
                 5           5
                 6           6
                 7           7
                 8           8
                 9           9
                10          10
                11          11
                12          12
                13          13
                14          14
                15          15
                16          16
                17          17
                18          18
                19          19
                20          20
                21          21
                22          22
                23          23
                24          24
                25          25
                26          26
                27          27
                28          28
                29          29
                30          30
                31          31
                32          32
                33          33
                34          34
                35          35
                36          36
                37          37
                38          38
                39          39
                40          40
                41          41
                42          42
                43          43
                44          44
                45          45
                46          46
                47          47
                48          48
                49          49
                50          50
                51          51
                52          52
                53          53
                54          54
                55          55
                56          56
                57          57
                58          58
                59          59
                60          60
                61          61
                62          62

----------------------------------------------------------------------------------------


 -----------------------------------------------------------------------------
|                                                                             |
|           W    W    AA    RRRRR   N    N  II  N    N   GGGG   !!!           |
|           W    W   A  A   R    R  NN   N  II  NN   N  G    G  !!!           |
|           W    W  A    A  R    R  N N  N  II  N N  N  G       !!!           |
|           W WW W  AAAAAA  RRRRR   N  N N  II  N  N N  G  GGG   !            |
|           WW  WW  A    A  R   R   N   NN  II  N   NN  G    G                |
|           W    W  A    A  R    R  N    N  II  N    N   GGGG   !!!           |
|                                                                             |
|     The requested file  could not be found or opened for reading            |
|     k-point information. Automatic k-point generation is used as a          |
|     fallback, which may lead to unwanted results.                           |
|                                                                             |
 -----------------------------------------------------------------------------



Automatic generation of k-mesh.
 Grid dimensions derived from KSPACING:
 generate k-points for:    2    2    2

 Generating k-lattice:

  Cartesian coordinates                     Fractional coordinates (reciprocal lattice)
     0.034355223  0.000000000  0.000000000     0.500000000  0.000000000  0.000000000
     0.000000000  0.034355223  0.000000000     0.000000000  0.500000000  0.000000000
     0.000000000  0.000000000  0.019438332     0.000000000  0.000000000  0.500000000

  Length of vectors
     0.034355223  0.034355223  0.019438332

  Shift w.r.t. Gamma in fractional coordinates (k-lattice)
     0.000000000  0.000000000  0.000000000

 
 Subroutine IBZKPT returns following result:
 ===========================================
 
 Found      8 irreducible k-points:
 
 Following reciprocal coordinates:
            Coordinates               Weight
  0.000000  0.000000  0.000000      1.000000
  0.500000  0.000000  0.000000      1.000000
  0.000000  0.500000  0.000000      1.000000
  0.500000  0.500000  0.000000      1.000000
  0.000000  0.000000  0.500000      1.000000
  0.500000  0.000000  0.500000      1.000000
  0.000000  0.500000  0.500000      1.000000
  0.500000  0.500000  0.500000      1.000000
 
 Following cartesian coordinates:
            Coordinates               Weight
  0.000000  0.000000  0.000000      1.000000
  0.034355  0.000000  0.000000      1.000000
  0.000000  0.034355  0.000000      1.000000
  0.034355  0.034355  0.000000      1.000000
  0.000000  0.000000  0.019438      1.000000
  0.034355  0.000000  0.019438      1.000000
  0.000000  0.034355  0.019438      1.000000
  0.034355  0.034355  0.019438      1.000000
 


--------------------------------------------------------------------------------------------------------




 Dimension of arrays:
   k-points           NKPTS =      8   k-points in BZ     NKDIM =      8   number of bands    NBANDS=    160
   number of dos      NEDOS =   2000   number of ions     NIONS =     62
   non local maximal  LDIM  =      4   non local SUM 2l+1 LMDIM =      8
   total plane-waves  NPLWV = ******
   max r-space proj   IRMAX =      1   max aug-charges    IRDMAX= 407524
   dimension x,y,z NGX =   168 NGY =  168 NGZ =  294
   dimension x,y,z NGXF=   336 NGYF=  336 NGZF=  588
   support grid    NGXF=   672 NGYF=  672 NGZF= 1176
   ions per type =               2  60
   NGX,Y,Z   is equivalent  to a cutoff of  19.19, 19.19, 19.00 a.u.
   NGXF,Y,Z  is equivalent  to a cutoff of  38.38, 38.38, 38.00 a.u.

 SYSTEM =  a-Si SPC                                
 POSCAR =   H Si                                   

 Startparameter for this run:
   NWRITE =      2    write-flag & timer
   PREC   = accura    normal or accurate (medium, high low for compatibility)
   ISTART =      1    job   : 0-new  1-cont  2-samecut
   ICHARG =      1    charge: 1-file 2-atom 10-const
   ISPIN  =      1    spin polarized calculation?
   LNONCOLLINEAR =      F non collinear calculations
   LSORBIT =      F    spin-orbit coupling
   INIWAV =      1    electr: 0-lowe 1-rand  2-diag
   LASPH  =      T    aspherical Exc in radial PAW
 Electronic Relaxation 1
   ENCUT  = 1200.0 eV  88.20 Ry    9.39 a.u.  41.11 41.11 72.65*2*pi/ulx,y,z
   ENINI  = 1200.0     initial cutoff
   ENAUG  =  400.0 eV  augmentation charge cutoff
   NELM   =    150;   NELMIN=  2; NELMDL=  0     # of ELM steps 
   EDIFF  = 0.1E-05   stopping-criterion for ELM
   LREAL  =      F    real-space projection
   NLSPLINE    = F    spline interpolate recip. space projectors
   LCOMPAT=      F    compatible to vasp.4.4
   GGA_COMPAT  = T    GGA compatible to vasp.4.4-vasp.4.6
   LMAXPAW     = -100 max onsite density
   LMAXMIX     =    2 max onsite mixed and CHGCAR
   VOSKOWN=      0    Vosko Wilk Nusair interpolation
   ROPT   =    0.00000   0.00000
 Ionic relaxation
   EDIFFG = -.1E-01   stopping-criterion for IOM
   NSW    =      0    number of steps for IOM
   NBLOCK =      1;   KBLOCK =      1    inner block; outer block 
   IBRION =     -1    ionic relax: 0-MD 1-quasi-New 2-CG
   NFREE  =      0    steps in history (QN), initial steepest desc. (CG)
   ISIF   =      2    stress and relaxation
   IWAVPR =     10    prediction:  0-non 1-charg 2-wave 3-comb
   ISYM   =      1    0-nonsym 1-usesym 2-fastsym
   LCORR  =      T    Harris-Foulkes like correction to forces

   POTIM  = 0.5000    time-step for ionic-motion
   TEIN   =    0.0    initial temperature
   TEBEG  =    0.0;   TEEND  =   0.0 temperature during run
   SMASS  =  -3.00    Nose mass-parameter (am)
   estimated Nose-frequenzy (Omega)   =  0.10E-29 period in steps = 0.13E+47 mass=  -0.484E-26a.u.
   SCALEE = 1.0000    scale energy and forces
   NPACO  =    256;   APACO  = 10.0  distance and # of slots for P.C.
   PSTRESS=    0.0 pullay stress

  Mass of Ions in am
   POMASS =   1.00 28.09
  Ionic Valenz
   ZVAL   =   1.00  4.00
  Atomic Wigner-Seitz radii
   RWIGS  =  -1.00 -1.00
  virtual crystal weights 
   VCA    =   1.00  1.00
   NELECT =     242.0000    total number of electrons
   NUPDOWN=      -1.0000    fix difference up-down

 DOS related values:
   EMIN   =  10.00;   EMAX   =-10.00  energy-range for DOS
   EFERMI =   0.00;   METHOD = LEGACY      
   ISMEAR =     0;   SIGMA  =   0.10  broadening in eV -4-tet -1-fermi 0-gaus
   EFERMI_NEDOS =   21; number of points for ismear=-14 and -15

 Electronic relaxation 2 (details)
   IALGO  =     38    algorithm
   LDIAG  =      F    sub-space diagonalisation (order eigenvalues)
   LSUBROT=      F    optimize rotation matrix (better conditioning)
   TURBO    =      0    0=normal 1=particle mesh
   IRESTART =      0    0=no restart 2=restart with 2 vectors
   NREBOOT  =      0    no. of reboots
   NMIN     =      0    reboot dimension
   EREF     =   0.00    reference energy to select bands
   IMIX   =      4    mixing-type and parameters
     AMIX     =   0.40;   BMIX     =  1.00
     AMIX_MAG =   1.60;   BMIX_MAG =  1.00
     AMIN     =   0.10
     WC   =   100.;   INIMIX=   1;  MIXPRE=   1;  MAXMIX= -45

 Intra band minimization:
   WEIMIN = 0.0000     energy-eigenvalue tresh-hold
   EBREAK =  0.16E-08  absolut break condition
   DEPER  =   0.30     relativ break condition  

   TIME   =   0.40     timestep for ELM

  volume/ion in A,a.u.               =      87.88       593.02
  Fermi-wavevector in a.u.,A,eV,Ry     =   0.579773  1.095612  4.573421  0.336137
  Thomas-Fermi vector in A             =   1.623615

 Write flags
   LWAVE        =      F    write WAVECAR
   LDOWNSAMPLE  =      F    k-point downsampling of WAVECAR
   LCHARG       =      F    write CHGCAR
   LVTOT        =      F    write LOCPOT, total local potential
   LVHAR        =      F    write LOCPOT, Hartree potential only
   WRT_POTENTIAL= false  ! write potential to hdf5 file
   LELF         =      F    write electronic localiz. function (ELF)
   LORBIT       =     11    0 simple, 1 ext, 2 COOP (PROOUT), +10 PAW based schemes


 Python interface
   PLUGINS active      =      F    recompile with -DPLUGINS to activate

 Dipole corrections
   LMONO      =      F    monopole corrections only (constant potential shift)
   LDIPOL     =      F    correct potential (dipole corrections)
   IDIPOL     =      0    1-x, 2-y, 3-z, 4-all directions 
   EPSILON    =  1.0000000 bulk dielectric constant
   LVACPOTAV  =      F  vacuum potentials using an averaging scheme for the charge density
   VACPOTFLAT =  0.1000000 required flatness to determine vacuum potential

Coulomb truncation method
  LTRUNCATE          =      F  Coulomb kernel truncation to be used
  IDIMENSIONALITY    =      3  Dimensionality of cutoff (0 molecules / 2 surfaces)
  ISURFACE           =     -1  Direction of surface normal
  LCOARSEN           =      F  Coarsen the charge grid before padding, preferred


 Exchange correlation treatment:
   METAGGA = SCAN    functional components
   XC_C    = 1    coefficients multiplying the functional components
   LIBXC   =     F    Libxc                    
   VOSKOWN =     0    Vosko Wilk Nusair interpolation
   LHFCALC =     F    Hartree Fock is set to
   LHFONE  =     F    Hartree Fock one center treatment
   AEXX    =    0.0000 exact exchange contribution

 Parameters of functionals:
   SCAN:
     P1 =  0.000000E+00
     P2 =  0.000000E+00
     P3 =  0.000000E+00

 Accuracy and mixing parameters for tau-dependent meta-GGA functionals:
   LMAXTAU = 6
   LMIXTAU = T

 Van der Waals corrections
   IVDW    =     0    specifies the selected vdW correction

 Linear response parameters
   LEPSILON=     F    determine dielectric tensor
   LRPA    =     F    only Hartree local field effects (RPA)
   LNABLA  =     F    use nabla operator in PAW spheres
   LVEL    =     F    velocity operator in full k-point grid
   CSHIFT  =0.1000    complex shift for real part using Kramers Kronig
   OMEGAMAX=  -1.0    maximum frequency
   DEG_THRESHOLD= 0.2000000E-02 threshold for treating states as degnerate
   RTIME   =   -0.100 relaxation time in fs
  (WPLASMAI=    0.000 imaginary part of plasma frequency in eV, 0.658/RTIME)
   DFIELD  = 0.0000000 0.0000000 0.0000000 field for delta impulse in time

  Optional k-point grid parameters
   LKPOINTS_OPT  =     F    use optional k-point grid
   KPOINTS_OPT_MODE=     1    mode for optional k-point grid

 Orbital magnetization related:
   ORBITALMAG=     F  switch on orbital magnetization
   LCHIMAG   =     F  perturbation theory with respect to B field
   DQ        =  0.001000  dq finite difference perturbation B field
   LLRAUG    =     F  two centre corrections for induced B field
   LBONE     =     F  B-component reconstruction in AE one-centre
   LVGVCALC  =     T  calculate vGv susceptibility
   LVGVAPPL  =     F  apply vGv susceptibility instead of pGv for G=0

 Random number generation:
   RANDOM_GENERATOR = DEFAULT
   PCG_SEED         = not used


--------------------------------------------------------------------------------------------------------


 Static calculation
 charge density and potential will be updated during run
 non-spin polarized calculation
 Variant of blocked Davidson
 perform Loewdin sub-space diagonalisation
    ordering is kept fixed
    before iterative eigenvector-optimisation
 modified Broyden-mixing scheme, WC =      100.0
 initial mixing is a Kerker type mixing with AMIX =  0.4000 and BMIX =      1.0000
 Hartree-type preconditioning will be used
 using additional bands           39
 reciprocal scheme for non local part
 use partial core corrections
 calculate Harris-corrections to forces   (improved forces if not selfconsistent)
 use gradient corrections 
 use of overlap-Matrix (Vanderbilt PP)
 Gauss-broadening in eV      SIGMA  =   0.10


--------------------------------------------------------------------------------------------------------


  energy-cutoff  :     1200.00
  volume of cell :     5448.36
      direct lattice vectors                 reciprocal lattice vectors
    14.553828003  0.000000000  0.000000000     0.068710445  0.000000000  0.000000000
     0.000000000 14.553828003  0.000000000     0.000000000  0.068710445  0.000000000
     0.000000000  0.000000000 25.722371000     0.000000000  0.000000000  0.038876665

  length of vectors
    14.553828003 14.553828003 25.722371000     0.068710445  0.068710445  0.038876665



 old parameters found on file WAVECAR:
  energy-cutoff  :     1200.00
  volume of cell :     5448.36
      direct lattice vectors                 reciprocal lattice vectors
    14.553828003  0.000000000  0.000000000     0.068710445  0.000000000  0.000000000
     0.000000000 14.553828003  0.000000000     0.000000000  0.068710445  0.000000000
     0.000000000  0.000000000 25.722371000     0.000000000  0.000000000  0.038876665

  length of vectors


 k-points in units of 2pi/SCALE and weight: read from INCAR                         
   0.00000000  0.00000000  0.00000000       0.125
   0.03435522  0.00000000  0.00000000       0.125
   0.00000000  0.03435522  0.00000000       0.125
   0.03435522  0.03435522  0.00000000       0.125
   0.00000000  0.00000000  0.01943833       0.125
   0.03435522  0.00000000  0.01943833       0.125
   0.00000000  0.03435522  0.01943833       0.125
   0.03435522  0.03435522  0.01943833       0.125

 k-points in reciprocal lattice and weights: read from INCAR                         
   0.00000000  0.00000000  0.00000000       0.125
   0.50000000  0.00000000  0.00000000       0.125
   0.00000000  0.50000000  0.00000000       0.125
   0.50000000  0.50000000  0.00000000       0.125
   0.00000000  0.00000000  0.50000000       0.125
   0.50000000  0.00000000  0.50000000       0.125
   0.00000000  0.50000000  0.50000000       0.125
   0.50000000  0.50000000  0.50000000       0.125

 position of ions in fractional coordinates (direct lattice) 
   0.25859223  0.99636142  0.49899234
   0.19625362  0.38573965  0.44256592
   0.71998310  0.40622889  0.39668966
   0.44604582  0.95778122  0.53486403
   0.97609015  0.45306105  0.44308879
   0.05314039  0.58866587  0.47007298
   0.53848073  0.62170575  0.56095269
   0.10603354  0.72376297  0.43201759
   0.50763998  0.47419704  0.52920601
   0.46907209  0.01352187  0.44523095
   0.05400455  0.00151931  0.50288433
   0.10171702  0.12090142  0.44931636
   0.76855120  0.53807782  0.59810750
   0.25425747  0.08062653  0.45224853
   0.75599979  0.80699554  0.53725751
   0.63251822  0.39716188  0.48432311
   0.20737267  0.78228846  0.49609673
   0.58488669  0.90362102  0.43609529
   0.95869830  0.67399838  0.52541302
   0.89335891  0.87494769  0.56598485
   0.48338707  0.15963161  0.48095829
   0.32054124  0.84109036  0.43818970
   0.45046496  0.40315204  0.39280576
   0.95758369  0.81153245  0.42097885
   0.33494831  0.98494384  0.39744609
   0.84284987  0.29138155  0.54316239
   0.90300642  0.03526905  0.56921232
   0.34410136  0.62132792  0.46296636
   0.04097143  0.45607468  0.57942582
   0.69641485  0.65234852  0.54805437
   0.67952416  0.26004326  0.42121771
   0.84455838  0.73800298  0.47000713
   0.60087075  0.64270842  0.41249425
   0.30469829  0.02887695  0.55420743
   0.91973315  0.55583601  0.58000047
   0.17035711  0.00084866  0.60182143
   0.26150675  0.70847047  0.39807965
   0.12371219  0.87945197  0.54855954
   0.15832194  0.53088702  0.52930556
   0.26572587  0.65216918  0.54147435
   0.52954771  0.31404340  0.54018313
   0.24316579  0.40908005  0.49255227
   0.58433415  0.48562988  0.40819924
   0.73810363  0.62302560  0.45904790
   0.67322176  0.93958576  0.51163931
   0.76664021  0.42787350  0.53184454
   0.74909353  0.19173314  0.49402085
   0.52577509  0.28928797  0.43891673
   0.01508921  0.78084835  0.58453405
   0.33477695  0.16959772  0.51383086
   0.98680533  0.34845125  0.51719997
   0.60724460  0.16530607  0.53926970
   0.58163979  0.01545766  0.57314907
   0.46372262  0.82879314  0.48084938
   0.09385803  0.22659996  0.52016497
   0.38519137  0.46758429  0.46747599
   0.91959373  0.93303807  0.47748367
   0.49352164  0.67309354  0.47972130
   0.82021270  0.48362386  0.45121981
   0.23811718  0.28146542  0.54563917
   0.80008051  0.03742415  0.49648904
   0.05030250  0.10309136  0.57473667

 position of ions in cartesian coordinates  (Angst):
   3.76350681 14.50087273 12.83526612
   2.85624146  5.61398848 11.38384474
  10.47851023  5.91218541 10.20379873
   6.49167415 13.93938308 13.75797108
  14.20584820  6.59377256 11.39729413
   0.77339616  8.56734185 12.09139165
   7.83695594  9.04819849 14.42903322
   1.54319396 10.53352176 11.11251669
   7.38810502  6.90138220 13.61243325
   6.82679452  0.19679494 11.45239563
   0.78597297  0.02211171 12.93537731
   1.48037205  1.75957854 11.55748198
  11.18536193  7.83109211 15.38474309
   3.70041946  1.17342468 11.63290453
  11.00269086 11.74487428 13.81953707
   9.20556142  5.78022562 12.45793863
   3.01806611 11.38529173 12.76078403
   8.51234031 13.15114489 11.21740478
  13.95273015  9.80925653 13.51486870
  13.00179194 12.73383823 14.55847222
   7.03513230  2.32325105 12.37138757
   4.66510201 12.24108448 11.27127813
   6.55598955  5.86740548 10.10389546
  13.93650830 11.81090374 10.82857416
   4.87478003 14.33470322 10.22325567
  12.26669210  4.24071692 13.97142461
  13.14220008  0.51329973 14.64149058
   5.00799195  9.04269963 11.90859241
   0.59629112  6.63763242 14.90420589
  10.13550200  9.49416822 14.09725773
   9.88967781  3.78462495 10.83471822
  12.29155744 10.74076845 12.08969770
   8.74496954  9.35386780 10.61033017
   4.43452652  0.42027020 14.25552911
  13.38563804  8.08954166 14.91898729
   2.47934803  0.01235121 15.48027421
   3.80592425 10.31095736 10.23955242
   1.80048591 12.79939273 14.11025203
   2.30419031  7.72643833 13.61499396
   3.86732856  9.49155811 13.92800419
   7.70694628  4.57053364 13.89479080
   3.53899313  5.95368065 12.66961227
   8.50429875  7.06777378 10.49985223
  10.74223334  9.06740745 11.80780028
   9.79795366 13.67456949 13.16057624
  11.15754969  6.22719730 13.68030257
  10.90217834  2.79045110 12.70738771
   7.65204020  4.21024735 11.28997886
   0.21960572 11.36433257 15.03560172
   4.87228613  2.46829607 13.21694800
  14.36179497  5.07129953 13.30360949
   8.83773341  2.40583611 13.87129532
   8.46508542  0.22496813 14.74275294
   6.74893930 12.06211279 12.36858616
   1.36599358  3.29789678 13.37987639
   5.60600900  6.80514134 12.02459073
  13.38360900 13.57927557 12.28201222
   7.18262909  9.79608761 12.33956926
  11.93723451  7.03857846 11.60644330
   3.46551642  4.09639925 14.03513311
  11.64423414  0.54466461 12.77087535
   0.73209392  1.50037392 14.78358995



--------------------------------------------------------------------------------------------------------


 k-point     1 :   0.0000 0.0000 0.0000  plane waves:  513905
 k-point     2 :   0.5000 0.0000 0.0000  plane waves:  514362
 k-point     3 :   0.0000 0.5000 0.0000  plane waves:  514362
 k-point     4 :   0.5000 0.5000 0.0000  plane waves:  514180
 k-point     5 :   0.0000 0.0000 0.5000  plane waves:  514066
 k-point     6 :   0.5000 0.0000 0.5000  plane waves:  514312
 k-point     7 :   0.0000 0.5000 0.5000  plane waves:  514312
 k-point     8 :   0.5000 0.5000 0.5000  plane waves:  514312

 maximum and minimum number of plane-waves per node :     32218    32007

 maximum number of plane-waves:    514362
 maximum index in each direction: 
   IXMAX=   41   IYMAX=   41   IZMAX=   72
   IXMIN=  -41   IYMIN=  -41   IZMIN=  -73


 parallel 3D FFT for wavefunctions:
    minimum data exchange during FFTs selected (reduces bandwidth)
 parallel 3D FFT for charge:
    minimum data exchange during FFTs selected (reduces bandwidth)


 total amount of memory used by VASP MPI-rank0   354606. kBytes
=======================================================================

   base                                    :      30000. kBytes
   nonl-proj                               :      64899. kBytes
   fftplans                                :     100025. kBytes
   grid                                    :      77177. kBytes
   one-center                              :         12. kBytes
   wavefun                                 :      82493. kBytes

     INWAV:  cpu time     24.2108: real time     24.2260
 Broyden mixing: mesh for mixing (old mesh)
   NGX = 83   NGY = 83   NGZ =145
  (NGX  =336   NGY  =336   NGZ  =588)
  gives a total of 998905 points

 initial charge density was supplied:
 number of electron     241.9999999 magnetization 
 keeping initial charge density in first step


--------------------------------------------------------------------------------------------------------


 Maximum index for augmentation-charges        11405 (set IRDMAX)


--------------------------------------------------------------------------------------------------------


 First call to EWALD:  gamma=   0.101
 Maximum number of real-space cells   3x   3x   2
 Maximum number of reciprocal cells   2x   2x   4

    FEWALD:  cpu time      0.0101: real time      0.0104


--------------------------------------- Ionic step        1  -------------------------------------------




--------------------------------------- Iteration      1(   1)  ---------------------------------------


    POTLOK:  cpu time      1.9496: real time      1.9501
    SETDIJ:  cpu time      1.2606: real time      1.2617
    EDDIAG:  cpu time     46.6627: real time     46.6897
     EDDAV:  cpu time    203.4285: real time    203.5404
       DOS:  cpu time      0.0071: real time      0.0073
    CHARGE:  cpu time     26.0902: real time     26.1149
    MIXING:  cpu time      0.0462: real time      0.0466
    --------------------------------------------
      LOOP:  cpu time    279.4450: real time    279.6109

 eigenvalue-minimisations  :  2560
 total energy-change (2. order) :-0.6064834E+03  (-0.6831574E+00)
 number of electron     241.9999999 magnetization 
 augmentation part      -13.7194854 magnetization 

 Broyden mixing:
  rms(total) = 0.93698E+00    rms(broyden)= 0.22094E+02
  rms(prec ) = 0.96421E+00
  weight for this iteration     100.00
  WARNING: grid for Broyden might be to small

 Free energy of the ion-electron system (eV)
  ---------------------------------------------------
  alpha Z        PSCENC =        22.64467863
  Ewald energy   TEWEN  =     28390.60954688
  -Hartree energ DENC   =    -33684.15841605
  -exchange      EXHF   =         0.00000000
  -V(xc)+E(xc)   XCENC  =      -290.71291693
  PAW double counting   =     22265.75685078   -21667.51708418
  entropy T*S    EENTRO =        -0.12750553
  eigenvalues    EBANDS =     -1851.96537942
  atomic energy  EATOM  =      6208.98687075
  Solvation  Ediel_sol  =         0.00000000
  ---------------------------------------------------
  free energy    TOTEN  =      -606.48335507 eV

  energy without entropy =     -606.35584953  energy(sigma->0) =     -606.41960230


--------------------------------------------------------------------------------------------------------




--------------------------------------- Iteration      1(   2)  ---------------------------------------


    POTLOK:  cpu time      1.9156: real time      1.9390
    SETDIJ:  cpu time      1.2702: real time      1.2709
    EDDIAG:  cpu time     46.5993: real time     46.6247
     EDDAV:  cpu time    205.4462: real time    205.5545
       DOS:  cpu time      0.0036: real time      0.0036
    CHARGE:  cpu time     26.0199: real time     26.0425
    MIXING:  cpu time      0.0394: real time      0.0397
    --------------------------------------------
      LOOP:  cpu time    281.2943: real time    281.4748

 eigenvalue-minimisations  :  2608
 total energy-change (2. order) : 0.4203420E+02  (-0.6482633E+00)
 number of electron     241.9999999 magnetization 
 augmentation part      -13.6726746 magnetization 

 Broyden mixing:
  rms(total) = 0.63822E+00    rms(broyden)= 0.12799E+02
  rms(prec ) = 0.65216E+00
  weight for this iteration     100.00
  WARNING: grid for Broyden might be to small

 eigenvalues of (default mixing * dielectric matrix)
  average eigenvalue GAMMA=   0.6333
  0.6333

 Free energy of the ion-electron system (eV)
  ---------------------------------------------------
  alpha Z        PSCENC =        22.64467863
  Ewald energy   TEWEN  =     28390.60954688
  -Hartree energ DENC   =    -33674.50950594
  -exchange      EXHF   =         0.00000000
  -V(xc)+E(xc)   XCENC  =      -284.66569720
  PAW double counting   =     26534.24817812   -25935.87694904
  entropy T*S    EENTRO =        -0.12770218
  eigenvalues    EBANDS =     -1825.75857563
  atomic energy  EATOM  =      6208.98687075
  Solvation  Ediel_sol  =         0.00000000
  ---------------------------------------------------
  free energy    TOTEN  =      -564.44915560 eV

  energy without entropy =     -564.32145342  energy(sigma->0) =     -564.38530451


--------------------------------------------------------------------------------------------------------




--------------------------------------- Iteration      1(   3)  ---------------------------------------


    POTLOK:  cpu time      1.9090: real time      1.9344
    SETDIJ:  cpu time      1.2663: real time      1.2668
    EDDIAG:  cpu time     46.6056: real time     46.6300
     EDDAV:  cpu time    203.3395: real time    203.4551
       DOS:  cpu time      0.0025: real time      0.0025
    CHARGE:  cpu time     25.9750: real time     25.9991
    MIXING:  cpu time      0.0377: real time      0.0377
    --------------------------------------------
      LOOP:  cpu time    279.1356: real time    279.3257

 eigenvalue-minimisations  :  2560
 total energy-change (2. order) :-0.2048310E+01  (-0.5425813E+00)
 number of electron     241.9999999 magnetization 
 augmentation part      -13.6269134 magnetization 

 Broyden mixing:
  rms(total) = 0.26066E+00    rms(broyden)= 0.19371E+02
  rms(prec ) = 0.32954E+00
  weight for this iteration     100.00
  WARNING: grid for Broyden might be to small

 eigenvalues of (default mixing * dielectric matrix)
  average eigenvalue GAMMA=   0.7485
  0.8725  0.6246

 Free energy of the ion-electron system (eV)
  ---------------------------------------------------
  alpha Z        PSCENC =        22.64467863
  Ewald energy   TEWEN  =     28390.60954688
  -Hartree energ DENC   =    -33675.70757762
  -exchange      EXHF   =         0.00000000
  -V(xc)+E(xc)   XCENC  =      -286.56612300
  PAW double counting   =     31664.07582199   -31065.80746958
  entropy T*S    EENTRO =        -0.11817443
  eigenvalues    EBANDS =     -1824.61503873
  atomic energy  EATOM  =      6208.98687075
  Solvation  Ediel_sol  =         0.00000000
  ---------------------------------------------------
  free energy    TOTEN  =      -566.49746511 eV

  energy without entropy =     -566.37929067  energy(sigma->0) =     -566.43837789


--------------------------------------------------------------------------------------------------------




--------------------------------------- Iteration      1(   4)  ---------------------------------------


    POTLOK:  cpu time      1.9045: real time      1.9325
    SETDIJ:  cpu time      1.2720: real time      1.2728
    EDDIAG:  cpu time     46.6206: real time     46.6452
     EDDAV:  cpu time    206.8796: real time    206.9955
       DOS:  cpu time      0.0027: real time      0.0027
    CHARGE:  cpu time     25.9722: real time     25.9963
    MIXING:  cpu time      0.0377: real time      0.0377
    --------------------------------------------
      LOOP:  cpu time    282.6891: real time    282.8827

 eigenvalue-minimisations  :  2640
 total energy-change (2. order) : 0.2548358E+00  (-0.5770174E-01)
 number of electron     241.9999999 magnetization 
 augmentation part      -13.6249356 magnetization 

 Broyden mixing:
  rms(total) = 0.59416E-01    rms(broyden)= 0.14297E+01
  rms(prec ) = 0.72984E-01
  weight for this iteration     100.00
  WARNING: grid for Broyden might be to small

 eigenvalues of (default mixing * dielectric matrix)
  average eigenvalue GAMMA=   0.9935
  1.7501  0.6444  0.5860

 Free energy of the ion-electron system (eV)
  ---------------------------------------------------
  alpha Z        PSCENC =        22.64467863
  Ewald energy   TEWEN  =     28390.60954688
  -Hartree energ DENC   =    -33676.94597665
  -exchange      EXHF   =         0.00000000
  -V(xc)+E(xc)   XCENC  =      -287.15661347
  PAW double counting   =     35496.64015576   -34898.40701987
  entropy T*S    EENTRO =        -0.13095082
  eigenvalues    EBANDS =     -1822.48332052
  atomic energy  EATOM  =      6208.98687075
  Solvation  Ediel_sol  =         0.00000000
  ---------------------------------------------------
  free energy    TOTEN  =      -566.24262931 eV

  energy without entropy =     -566.11167849  energy(sigma->0) =     -566.17715390


--------------------------------------------------------------------------------------------------------




--------------------------------------- Iteration      1(   5)  ---------------------------------------


    POTLOK:  cpu time      1.9119: real time      1.9381
    SETDIJ:  cpu time      1.2627: real time      1.2633
    EDDIAG:  cpu time     46.6202: real time     46.6445
     EDDAV:  cpu time    225.8115: real time    225.9374
       DOS:  cpu time      0.0027: real time      0.0027
    CHARGE:  cpu time     25.9931: real time     26.0178
    MIXING:  cpu time      0.0376: real time      0.0376
    --------------------------------------------
      LOOP:  cpu time    301.6396: real time    301.8413

 eigenvalue-minimisations  :  3072
 total energy-change (2. order) :-0.2258923E-01  (-0.7657660E-02)
 number of electron     241.9999999 magnetization 
 augmentation part      -13.6249360 magnetization 

 Broyden mixing:
  rms(total) = 0.40935E-01    rms(broyden)= 0.73396E+00
  rms(prec ) = 0.49533E-01
  weight for this iteration     100.00
  WARNING: grid for Broyden might be to small

 eigenvalues of (default mixing * dielectric matrix)
  average eigenvalue GAMMA=   1.0865
  2.4661  0.7943  0.6227  0.4630

 Free energy of the ion-electron system (eV)
  ---------------------------------------------------
  alpha Z        PSCENC =        22.64467863
  Ewald energy   TEWEN  =     28390.60954688
  -Hartree energ DENC   =    -33676.96866625
  -exchange      EXHF   =         0.00000000
  -V(xc)+E(xc)   XCENC  =      -287.87485835
  PAW double counting   =     35163.60152080   -34565.34911874
  entropy T*S    EENTRO =        -0.12015251
  eigenvalues    EBANDS =     -1821.79503977
  atomic energy  EATOM  =      6208.98687075
  Solvation  Ediel_sol  =         0.00000000
  ---------------------------------------------------
  free energy    TOTEN  =      -566.26521854 eV

  energy without entropy =     -566.14506603  energy(sigma->0) =     -566.20514229


--------------------------------------------------------------------------------------------------------




--------------------------------------- Iteration      1(   6)  ---------------------------------------


    POTLOK:  cpu time      1.9039: real time      1.9311
    SETDIJ:  cpu time      1.2724: real time      1.2731
    EDDIAG:  cpu time     46.5922: real time     46.6195
     EDDAV:  cpu time    209.5620: real time    209.6746
       DOS:  cpu time      0.0065: real time      0.0065
    CHARGE:  cpu time     25.9651: real time     25.9885
    MIXING:  cpu time      0.0381: real time      0.0381
    --------------------------------------------
      LOOP:  cpu time    285.3402: real time    285.5314

 eigenvalue-minimisations  :  2704
 total energy-change (2. order) :-0.6586877E-03  (-0.2560885E-02)
 number of electron     241.9999999 magnetization 
 augmentation part      -13.6255102 magnetization 

 Broyden mixing:
  rms(total) = 0.21668E-01    rms(broyden)= 0.19806E+00
  rms(prec ) = 0.22968E-01
  weight for this iteration     100.00
  WARNING: grid for Broyden might be to small

 eigenvalues of (default mixing * dielectric matrix)
  average eigenvalue GAMMA=   1.0501
  2.5563  0.9332  0.6555  0.6269  0.4787

 Free energy of the ion-electron system (eV)
  ---------------------------------------------------
  alpha Z        PSCENC =        22.64467863
  Ewald energy   TEWEN  =     28390.60954688
  -Hartree energ DENC   =    -33677.07065550
  -exchange      EXHF   =         0.00000000
  -V(xc)+E(xc)   XCENC  =      -288.04510813
  PAW double counting   =     35012.88994088   -34414.62609304
  entropy T*S    EENTRO =        -0.12573146
  eigenvalues    EBANDS =     -1821.52932626
  atomic energy  EATOM  =      6208.98687075
  Solvation  Ediel_sol  =         0.00000000
  ---------------------------------------------------
  free energy    TOTEN  =      -566.26587723 eV

  energy without entropy =     -566.14014577  energy(sigma->0) =     -566.20301150


--------------------------------------------------------------------------------------------------------




--------------------------------------- Iteration      1(   7)  ---------------------------------------


    POTLOK:  cpu time      1.9070: real time      1.9356
    SETDIJ:  cpu time      1.2671: real time      1.2679
    EDDIAG:  cpu time     46.6033: real time     46.6294
     EDDAV:  cpu time    210.3445: real time    210.4598
       DOS:  cpu time      0.0033: real time      0.0033
    CHARGE:  cpu time     26.0062: real time     26.0288
    MIXING:  cpu time      0.0390: real time      0.0390
    --------------------------------------------
      LOOP:  cpu time    286.1704: real time    286.3638

 eigenvalue-minimisations  :  2720
 total energy-change (2. order) :-0.1171620E-02  (-0.9772202E-03)
 number of electron     241.9999999 magnetization 
 augmentation part      -13.6241420 magnetization 

 Broyden mixing:
  rms(total) = 0.10442E-01    rms(broyden)= 0.91811E-01
  rms(prec ) = 0.12161E-01
  weight for this iteration     100.00
  WARNING: grid for Broyden might be to small

 eigenvalues of (default mixing * dielectric matrix)
  average eigenvalue GAMMA=   1.0232
  2.5472  1.1556  0.7430  0.6253  0.5341  0.5341

 Free energy of the ion-electron system (eV)
  ---------------------------------------------------
  alpha Z        PSCENC =        22.64467863
  Ewald energy   TEWEN  =     28390.60954688
  -Hartree energ DENC   =    -33677.11902266
  -exchange      EXHF   =         0.00000000
  -V(xc)+E(xc)   XCENC  =      -287.91884372
  PAW double counting   =     35004.63205692   -34406.35567044
  entropy T*S    EENTRO =        -0.12723571
  eigenvalues    EBANDS =     -1821.61942951
  atomic energy  EATOM  =      6208.98687075
  Solvation  Ediel_sol  =         0.00000000
  ---------------------------------------------------
  free energy    TOTEN  =      -566.26704885 eV

  energy without entropy =     -566.13981314  energy(sigma->0) =     -566.20343100


--------------------------------------------------------------------------------------------------------




--------------------------------------- Iteration      1(   8)  ---------------------------------------


    POTLOK:  cpu time      1.9076: real time      1.9324
    SETDIJ:  cpu time      1.2631: real time      1.2638
    EDDIAG:  cpu time     46.5924: real time     46.6189
     EDDAV:  cpu time    216.6419: real time    216.7633
       DOS:  cpu time      0.0029: real time      0.0029
    CHARGE:  cpu time     26.0067: real time     26.0299
    MIXING:  cpu time      0.0393: real time      0.0393
    --------------------------------------------
      LOOP:  cpu time    292.4539: real time    292.6505

 eigenvalue-minimisations  :  2864
 total energy-change (2. order) :-0.3604576E-03  (-0.2359832E-03)
 number of electron     241.9999999 magnetization 
 augmentation part      -13.6238565 magnetization 

 Broyden mixing:
  rms(total) = 0.38878E-02    rms(broyden)= 0.47368E-01
  rms(prec ) = 0.47121E-02
  weight for this iteration     100.00
  WARNING: grid for Broyden might be to small

 eigenvalues of (default mixing * dielectric matrix)
  average eigenvalue GAMMA=   1.0753
  2.5212  1.7172  0.9199  0.6499  0.6499  0.5346  0.5346

 Free energy of the ion-electron system (eV)
  ---------------------------------------------------
  alpha Z        PSCENC =        22.64467863
  Ewald energy   TEWEN  =     28390.60954688
  -Hartree energ DENC   =    -33677.02071582
  -exchange      EXHF   =         0.00000000
  -V(xc)+E(xc)   XCENC  =      -287.89636493
  PAW double counting   =     35027.51732701   -34429.23549641
  entropy T*S    EENTRO =        -0.12653270
  eigenvalues    EBANDS =     -1821.74672272
  atomic energy  EATOM  =      6208.98687075
  Solvation  Ediel_sol  =         0.00000000
  ---------------------------------------------------
  free energy    TOTEN  =      -566.26740931 eV

  energy without entropy =     -566.14087661  energy(sigma->0) =     -566.20414296


--------------------------------------------------------------------------------------------------------




--------------------------------------- Iteration      1(   9)  ---------------------------------------


    POTLOK:  cpu time      1.9117: real time      1.9395
    SETDIJ:  cpu time      1.2713: real time      1.2721
    EDDIAG:  cpu time     46.6220: real time     46.6484
     EDDAV:  cpu time    211.1663: real time    211.2869
       DOS:  cpu time      0.0035: real time      0.0035
    CHARGE:  cpu time     25.9693: real time     25.9960
    MIXING:  cpu time      0.0402: real time      0.0402
    --------------------------------------------
      LOOP:  cpu time    286.9844: real time    287.1868

 eigenvalue-minimisations  :  2736
 total energy-change (2. order) :-0.3730618E-04  (-0.7634397E-04)
 number of electron     241.9999999 magnetization 
 augmentation part      -13.6239645 magnetization 

 Broyden mixing:
  rms(total) = 0.21252E-02    rms(broyden)= 0.14098E-01
  rms(prec ) = 0.25588E-02
  weight for this iteration     100.00
  WARNING: grid for Broyden might be to small

 eigenvalues of (default mixing * dielectric matrix)
  average eigenvalue GAMMA=   1.1740
  2.5369  2.5369  1.0301  0.9020  0.6705  0.6420  0.5209  0.5529

 Free energy of the ion-electron system (eV)
  ---------------------------------------------------
  alpha Z        PSCENC =        22.64467863
  Ewald energy   TEWEN  =     28390.60954688
  -Hartree energ DENC   =    -33676.85676337
  -exchange      EXHF   =         0.00000000
  -V(xc)+E(xc)   XCENC  =      -287.91171389
  PAW double counting   =     35039.24270460   -34440.95940728
  entropy T*S    EENTRO =        -0.12598744
  eigenvalues    EBANDS =     -1821.89737550
  atomic energy  EATOM  =      6208.98687075
  Solvation  Ediel_sol  =         0.00000000
  ---------------------------------------------------
  free energy    TOTEN  =      -566.26744662 eV

  energy without entropy =     -566.14145917  energy(sigma->0) =     -566.20445289


--------------------------------------------------------------------------------------------------------




--------------------------------------- Iteration      1(  10)  ---------------------------------------


    POTLOK:  cpu time      1.9910: real time      2.0177
    SETDIJ:  cpu time      1.2718: real time      1.2728
    EDDIAG:  cpu time     46.6346: real time     46.6579
     EDDAV:  cpu time    217.8035: real time    217.9258
       DOS:  cpu time      0.0043: real time      0.0043
    CHARGE:  cpu time     25.9990: real time     26.0232
    MIXING:  cpu time      0.0409: real time      0.0409
    --------------------------------------------
      LOOP:  cpu time    293.7450: real time    293.9425

 eigenvalue-minimisations  :  2888
 total energy-change (2. order) :-0.2746922E-04  (-0.2948805E-04)
 number of electron     241.9999999 magnetization 
 augmentation part      -13.6239917 magnetization 

 Broyden mixing:
  rms(total) = 0.12941E-02    rms(broyden)= 0.88107E-02
  rms(prec ) = 0.15612E-02
  weight for this iteration     100.00
  WARNING: grid for Broyden might be to small

 eigenvalues of (default mixing * dielectric matrix)
  average eigenvalue GAMMA=   1.1687
  2.6746  2.6746  1.0634  0.8889  0.7875  0.5156  0.6926  0.5730  0.6478

 Free energy of the ion-electron system (eV)
  ---------------------------------------------------
  alpha Z        PSCENC =        22.64467863
  Ewald energy   TEWEN  =     28390.60954688
  -Hartree energ DENC   =    -33676.72422415
  -exchange      EXHF   =         0.00000000
  -V(xc)+E(xc)   XCENC  =      -287.91739717
  PAW double counting   =     35038.87219667   -34440.58806104
  entropy T*S    EENTRO =        -0.12612530
  eigenvalues    EBANDS =     -1822.02495937
  atomic energy  EATOM  =      6208.98687075
  Solvation  Ediel_sol  =         0.00000000
  ---------------------------------------------------
  free energy    TOTEN  =      -566.26747408 eV

  energy without entropy =     -566.14134879  energy(sigma->0) =     -566.20441144


--------------------------------------------------------------------------------------------------------




--------------------------------------- Iteration      1(  11)  ---------------------------------------


    POTLOK:  cpu time      1.9151: real time      1.9444
    SETDIJ:  cpu time      1.2679: real time      1.2694
    EDDIAG:  cpu time     46.6678: real time     46.6901
     EDDAV:  cpu time    211.9993: real time    212.1168
       DOS:  cpu time      0.0058: real time      0.0058
    CHARGE:  cpu time     25.9703: real time     25.9939
    MIXING:  cpu time      0.0434: real time      0.0434
    --------------------------------------------
      LOOP:  cpu time    287.8695: real time    288.0639

 eigenvalue-minimisations  :  2752
 total energy-change (2. order) :-0.4864729E-04  (-0.2403788E-04)
 number of electron     241.9999999 magnetization 
 augmentation part      -13.6240512 magnetization 

 Broyden mixing:
  rms(total) = 0.63238E-03    rms(broyden)= 0.55086E-02
  rms(prec ) = 0.85821E-03
  weight for this iteration     100.00
  WARNING: grid for Broyden might be to small

 eigenvalues of (default mixing * dielectric matrix)
  average eigenvalue GAMMA=   1.1823
  2.8785  2.7331  1.2857  1.0855  0.8493  0.6663  0.6449  0.5258  0.5771  0.5771

 Free energy of the ion-electron system (eV)
  ---------------------------------------------------
  alpha Z        PSCENC =        22.64467863
  Ewald energy   TEWEN  =     28390.60954688
  -Hartree energ DENC   =    -33676.55331693
  -exchange      EXHF   =         0.00000000
  -V(xc)+E(xc)   XCENC  =      -287.92232070
  PAW double counting   =     35036.26097305   -34437.97621284
  entropy T*S    EENTRO =        -0.12628385
  eigenvalues    EBANDS =     -1822.19145773
  atomic energy  EATOM  =      6208.98687075
  Solvation  Ediel_sol  =         0.00000000
  ---------------------------------------------------
  free energy    TOTEN  =      -566.26752273 eV

  energy without entropy =     -566.14123888  energy(sigma->0) =     -566.20438081


--------------------------------------------------------------------------------------------------------




--------------------------------------- Iteration      1(  12)  ---------------------------------------


    POTLOK:  cpu time      1.9075: real time      1.9363
    SETDIJ:  cpu time      1.2603: real time      1.2611
    EDDIAG:  cpu time     46.6194: real time     46.6426
     EDDAV:  cpu time    208.3082: real time    208.4272
       DOS:  cpu time      0.0032: real time      0.0032
    CHARGE:  cpu time     25.9789: real time     26.0033
    MIXING:  cpu time      0.0433: real time      0.0433
    --------------------------------------------
      LOOP:  cpu time    284.1207: real time    284.3169

 eigenvalue-minimisations  :  2672
 total energy-change (2. order) :-0.9709756E-04  (-0.1874946E-04)
 number of electron     241.9999999 magnetization 
 augmentation part      -13.6240955 magnetization 

 Broyden mixing:
  rms(total) = 0.35355E-03    rms(broyden)= 0.59265E-02
  rms(prec ) = 0.54251E-03
  weight for this iteration     100.00
  WARNING: grid for Broyden might be to small

 eigenvalues of (default mixing * dielectric matrix)
  average eigenvalue GAMMA=   1.2645
  3.4124  2.6268  2.0841  0.9477  0.9477  0.8786  0.5357  0.5357  0.6537  0.6537
  0.6334

 Free energy of the ion-electron system (eV)
  ---------------------------------------------------
  alpha Z        PSCENC =        22.64467863
  Ewald energy   TEWEN  =     28390.60954688
  -Hartree energ DENC   =    -33676.40182369
  -exchange      EXHF   =         0.00000000
  -V(xc)+E(xc)   XCENC  =      -287.92861365
  PAW double counting   =     35036.02214126   -34437.73726938
  entropy T*S    EENTRO =        -0.12623444
  eigenvalues    EBANDS =     -1822.33691620
  atomic energy  EATOM  =      6208.98687075
  Solvation  Ediel_sol  =         0.00000000
  ---------------------------------------------------
  free energy    TOTEN  =      -566.26761983 eV

  energy without entropy =     -566.14138539  energy(sigma->0) =     -566.20450261


--------------------------------------------------------------------------------------------------------




--------------------------------------- Iteration      1(  13)  ---------------------------------------


    POTLOK:  cpu time      1.9151: real time      1.9295
    SETDIJ:  cpu time      1.2619: real time      1.2626
    EDDIAG:  cpu time     46.6361: real time     46.6628
     EDDAV:  cpu time    208.4599: real time    208.5733
       DOS:  cpu time      0.0036: real time      0.0036
    CHARGE:  cpu time     25.9618: real time     25.9852
    MIXING:  cpu time      0.0437: real time      0.0437
    --------------------------------------------
      LOOP:  cpu time    284.2820: real time    284.4607

 eigenvalue-minimisations  :  2672
 total energy-change (2. order) :-0.9780613E-04  (-0.1436920E-04)
 number of electron     241.9999999 magnetization 
 augmentation part      -13.6241284 magnetization 

 Broyden mixing:
  rms(total) = 0.24213E-03    rms(broyden)= 0.37152E-02
  rms(prec ) = 0.40759E-03
  weight for this iteration     100.00
  WARNING: grid for Broyden might be to small

 eigenvalues of (default mixing * dielectric matrix)
  average eigenvalue GAMMA=   1.3926
  4.7761  2.6018  2.6018  1.1976  1.0523  0.7572  0.7572  0.5317  0.5317  0.6360
  0.6336  0.6336

 Free energy of the ion-electron system (eV)
  ---------------------------------------------------
  alpha Z        PSCENC =        22.64467863
  Ewald energy   TEWEN  =     28390.60954688
  -Hartree energ DENC   =    -33676.29683107
  -exchange      EXHF   =         0.00000000
  -V(xc)+E(xc)   XCENC  =      -287.93284790
  PAW double counting   =     35036.11783372   -34437.83309805
  entropy T*S    EENTRO =        -0.12620513
  eigenvalues    EBANDS =     -1822.43766548
  atomic energy  EATOM  =      6208.98687075
  Solvation  Ediel_sol  =         0.00000000
  ---------------------------------------------------
  free energy    TOTEN  =      -566.26771764 eV

  energy without entropy =     -566.14151251  energy(sigma->0) =     -566.20461507


--------------------------------------------------------------------------------------------------------




--------------------------------------- Iteration      1(  14)  ---------------------------------------


    POTLOK:  cpu time      1.9372: real time      1.9384
    SETDIJ:  cpu time      1.2633: real time      1.2640
    EDDIAG:  cpu time     46.6535: real time     46.6806
     EDDAV:  cpu time    208.3897: real time    208.5086
       DOS:  cpu time      0.0114: real time      0.0119
    CHARGE:  cpu time     25.9818: real time     26.0313
    MIXING:  cpu time      0.0600: real time      0.0608
    --------------------------------------------
      LOOP:  cpu time    284.2967: real time    284.4957

 eigenvalue-minimisations  :  2672
 total energy-change (2. order) :-0.9190687E-04  (-0.1911501E-04)
 number of electron     241.9999999 magnetization 
 augmentation part      -13.6241559 magnetization 

 Broyden mixing:
  rms(total) = 0.15707E-03    rms(broyden)= 0.27101E-02
  rms(prec ) = 0.27579E-03
  weight for this iteration     100.00
  WARNING: grid for Broyden might be to small

 eigenvalues of (default mixing * dielectric matrix)
  average eigenvalue GAMMA=   1.5820
  7.2900  2.7180  2.7180  1.4280  1.0785  0.9395  0.7409  0.7409  0.6431  0.6431
  0.5301  0.5301  0.5655

 Free energy of the ion-electron system (eV)
  ---------------------------------------------------
  alpha Z        PSCENC =        22.64467863
  Ewald energy   TEWEN  =     28390.60954688
  -Hartree energ DENC   =    -33676.17327089
  -exchange      EXHF   =         0.00000000
  -V(xc)+E(xc)   XCENC  =      -287.93563268
  PAW double counting   =     35036.43256908   -34438.14803319
  entropy T*S    EENTRO =        -0.12621620
  eigenvalues    EBANDS =     -1822.55832194
  atomic energy  EATOM  =      6208.98687075
  Solvation  Ediel_sol  =         0.00000000
  ---------------------------------------------------
  free energy    TOTEN  =      -566.26780954 eV

  energy without entropy =     -566.14159334  energy(sigma->0) =     -566.20470144


--------------------------------------------------------------------------------------------------------




--------------------------------------- Iteration      1(  15)  ---------------------------------------


    POTLOK:  cpu time      1.9169: real time      1.9420
    SETDIJ:  cpu time      1.2658: real time      1.2668
    EDDIAG:  cpu time     46.6216: real time     46.6468
     EDDAV:  cpu time    210.6459: real time    210.7595
       DOS:  cpu time      0.0050: real time      0.0050
    CHARGE:  cpu time     25.9896: real time     26.0128
    MIXING:  cpu time      0.0446: real time      0.0446
    --------------------------------------------
      LOOP:  cpu time    286.4895: real time    286.6775

 eigenvalue-minimisations  :  2720
 total energy-change (2. order) :-0.1216358E-03  (-0.1904949E-04)
 number of electron     241.9999999 magnetization 
 augmentation part      -13.6241909 magnetization 

 Broyden mixing:
  rms(total) = 0.10686E-03    rms(broyden)= 0.20788E-02
  rms(prec ) = 0.17798E-03
  weight for this iteration     100.00
  WARNING: grid for Broyden might be to small

 eigenvalues of (default mixing * dielectric matrix)
  average eigenvalue GAMMA=   1.6780
  8.7121  2.7768  2.7768  1.7812  1.1925  0.9518  0.8620  0.8620  0.6846  0.5265
  0.5265  0.6296  0.6296  0.5797

 Free energy of the ion-electron system (eV)
  ---------------------------------------------------
  alpha Z        PSCENC =        22.64467863
  Ewald energy   TEWEN  =     28390.60954688
  -Hartree energ DENC   =    -33676.05006172
  -exchange      EXHF   =         0.00000000
  -V(xc)+E(xc)   XCENC  =      -287.93825800
  PAW double counting   =     35036.39202588   -34438.10771692
  entropy T*S    EENTRO =        -0.12622017
  eigenvalues    EBANDS =     -1822.67879651
  atomic energy  EATOM  =      6208.98687075
  Solvation  Ediel_sol  =         0.00000000
  ---------------------------------------------------
  free energy    TOTEN  =      -566.26793118 eV

  energy without entropy =     -566.14171101  energy(sigma->0) =     -566.20482109


--------------------------------------------------------------------------------------------------------




--------------------------------------- Iteration      1(  16)  ---------------------------------------


    POTLOK:  cpu time      1.8909: real time      1.9611
    SETDIJ:  cpu time      1.2642: real time      1.2651
    EDDIAG:  cpu time     46.6351: real time     46.6589
     EDDAV:  cpu time    208.4444: real time    208.5578
       DOS:  cpu time      0.0033: real time      0.0033
    CHARGE:  cpu time     25.9658: real time     25.9882
    MIXING:  cpu time      0.0460: real time      0.0460
    --------------------------------------------
      LOOP:  cpu time    284.2498: real time    284.4804

 eigenvalue-minimisations  :  2672
 total energy-change (2. order) :-0.8399806E-04  (-0.1306531E-04)
 number of electron     241.9999999 magnetization 
 augmentation part      -13.6242068 magnetization 

 Broyden mixing:
  rms(total) = 0.73330E-04    rms(broyden)= 0.12981E-02
  rms(prec ) = 0.10947E-03
  weight for this iteration     100.00
  WARNING: grid for Broyden might be to small

 eigenvalues of (default mixing * dielectric matrix)
  average eigenvalue GAMMA=   1.7222
  9.5329  2.9679  2.7238  2.1831  1.3632  1.0477  0.8775  0.8053  0.8053  0.5251
  0.5251  0.6562  0.6331  0.5932  0.5932

 Free energy of the ion-electron system (eV)
  ---------------------------------------------------
  alpha Z        PSCENC =        22.64467863
  Ewald energy   TEWEN  =     28390.60954688
  -Hartree energ DENC   =    -33675.95955691
  -exchange      EXHF   =         0.00000000
  -V(xc)+E(xc)   XCENC  =      -287.93886387
  PAW double counting   =     35036.24873917   -34437.96450538
  entropy T*S    EENTRO =        -0.12622107
  eigenvalues    EBANDS =     -1822.76870339
  atomic energy  EATOM  =      6208.98687075
  Solvation  Ediel_sol  =         0.00000000
  ---------------------------------------------------
  free energy    TOTEN  =      -566.26801518 eV

  energy without entropy =     -566.14179411  energy(sigma->0) =     -566.20490464


--------------------------------------------------------------------------------------------------------




--------------------------------------- Iteration      1(  17)  ---------------------------------------


    POTLOK:  cpu time      1.9163: real time      1.9382
    SETDIJ:  cpu time      1.2637: real time      1.2645
    EDDIAG:  cpu time     46.6431: real time     46.6672
     EDDAV:  cpu time    209.2451: real time    209.3592
       DOS:  cpu time      0.0042: real time      0.0042
    CHARGE:  cpu time     26.0051: real time     26.0303
    MIXING:  cpu time      0.0470: real time      0.0470
    --------------------------------------------
      LOOP:  cpu time    285.1246: real time    285.3107

 eigenvalue-minimisations  :  2688
 total energy-change (2. order) :-0.3375199E-04  (-0.5907263E-05)
 number of electron     241.9999999 magnetization 
 augmentation part      -13.6242219 magnetization 

 Broyden mixing:
  rms(total) = 0.42139E-04    rms(broyden)= 0.99454E-03
  rms(prec ) = 0.63821E-04
  weight for this iteration     100.00
  WARNING: grid for Broyden might be to small

 eigenvalues of (default mixing * dielectric matrix)
  average eigenvalue GAMMA=   1.7231
  9.8131  3.1169  2.6875  2.3865  1.4033  1.2142  0.9671  0.8545  0.8545  0.7642
  0.5242  0.5242  0.6471  0.6325  0.5901  0.5901

 Free energy of the ion-electron system (eV)
  ---------------------------------------------------
  alpha Z        PSCENC =        22.64467863
  Ewald energy   TEWEN  =     28390.60954688
  -Hartree energ DENC   =    -33675.90923665
  -exchange      EXHF   =         0.00000000
  -V(xc)+E(xc)   XCENC  =      -287.93969938
  PAW double counting   =     35036.34490932   -34438.06069978
  entropy T*S    EENTRO =        -0.12621520
  eigenvalues    EBANDS =     -1822.81820351
  atomic energy  EATOM  =      6208.98687075
  Solvation  Ediel_sol  =         0.00000000
  ---------------------------------------------------
  free energy    TOTEN  =      -566.26804893 eV

  energy without entropy =     -566.14183373  energy(sigma->0) =     -566.20494133


--------------------------------------------------------------------------------------------------------




--------------------------------------- Iteration      1(  18)  ---------------------------------------


    POTLOK:  cpu time      1.9110: real time      1.9400
    SETDIJ:  cpu time      1.2669: real time      1.2675
    EDDIAG:  cpu time     46.6429: real time     46.6711
     EDDAV:  cpu time    212.4156: real time    212.5353
       DOS:  cpu time      0.0025: real time      0.0025
    CHARGE:  cpu time     25.9623: real time     25.9886
    MIXING:  cpu time      0.0471: real time      0.0471
    --------------------------------------------
      LOOP:  cpu time    288.2483: real time    288.4521

 eigenvalue-minimisations  :  2760
 total energy-change (2. order) :-0.1210766E-04  (-0.1500816E-05)
 number of electron     241.9999999 magnetization 
 augmentation part      -13.6242271 magnetization 

 Broyden mixing:
  rms(total) = 0.28319E-04    rms(broyden)= 0.73878E-03
  rms(prec ) = 0.42654E-04
  weight for this iteration     100.00
  WARNING: grid for Broyden might be to small

 eigenvalues of (default mixing * dielectric matrix)
  average eigenvalue GAMMA=   1.7146
  9.9048  3.2120  2.6500  2.5301  1.6348  1.3564  1.0624  0.9209  0.8219  0.8219
  0.7176  0.5242  0.5242  0.6593  0.5932  0.5932  0.6218

 Free energy of the ion-electron system (eV)
  ---------------------------------------------------
[...]
  Kinetic  1676.20386  1677.02269  1710.01821     2.93545    -5.66675    -0.34428
  Fock        0.00000     0.00000     0.00000     0.00000     0.00000     0.00000
  -------------------------------------------------------------------------------------
  Total      -2.69937     7.42491    -2.56939     3.57438    -2.20185    -0.02395
  in kB      -0.79379     2.18342    -0.75557     1.05110    -0.64749    -0.00704
  external pressure =        0.21 kB  Pullay stress =        0.00 kB


 VOLUME and BASIS-vectors are now :
 -----------------------------------------------------------------------------
  energy-cutoff  :     1200.00
  volume of cell :     5448.36
      direct lattice vectors                 reciprocal lattice vectors
    14.553828003  0.000000000  0.000000000     0.068710445  0.000000000  0.000000000
     0.000000000 14.553828003  0.000000000     0.000000000  0.068710445  0.000000000
     0.000000000  0.000000000 25.722371000     0.000000000  0.000000000  0.038876665

  length of vectors
    14.553828003 14.553828003 25.722371000     0.068710445  0.068710445  0.038876665


 FORCES acting on ions
    electron-ion (+dipol)            ewald-force                    non-local-force                 convergence-correction
 -----------------------------------------------------------------------------------------------
   0.626E+01 0.116E+02 0.290E+01   -.722E+01 -.133E+02 -.352E+01   0.652E+00 0.159E+01 0.630E+00   0.255E-05 0.102E-04 -.111E-05
   0.114E+02 0.960E+01 0.586E+02   -.128E+02 -.103E+02 -.612E+02   0.136E+01 0.706E+00 0.259E+01   0.247E-05 -.108E-04 -.168E-05
   -.591E+02 0.213E+02 0.283E+03   0.575E+02 -.200E+02 -.280E+03   0.166E+01 -.131E+01 -.290E+01   0.579E-05 -.278E-04 -.155E-04
   0.676E+00 0.249E+02 -.154E+03   0.433E+00 -.236E+02 0.151E+03   -.105E+01 -.104E+01 0.301E+01   0.956E-04 0.554E-04 0.556E-04
   -.337E+02 0.398E+02 0.192E+03   0.333E+02 -.407E+02 -.193E+03   0.469E+00 0.798E+00 0.120E+01   0.665E-05 -.158E-04 0.921E-05
   -.112E+02 0.253E+02 0.114E+03   0.119E+02 -.243E+02 -.112E+03   -.549E+00 -.103E+01 -.238E+01   0.261E-05 -.152E-04 0.167E-05
   0.341E+02 -.213E+02 -.225E+03   -.350E+02 0.224E+02 0.224E+03   0.629E+00 -.110E+01 0.102E+01   -.336E-05 0.241E-04 0.276E-04
   0.163E+02 -.549E+01 0.205E+03   -.160E+02 0.331E+01 -.201E+03   -.936E+00 0.208E+01 -.401E+01   0.984E-05 0.184E-05 -.167E-04
   0.364E+02 -.440E-01 -.151E+03   -.357E+02 0.228E+01 0.149E+03   -.968E+00 -.140E+01 0.206E+01   -.245E-04 -.266E-04 0.220E-04
   -.262E+02 -.214E+02 0.165E+03   0.260E+02 0.202E+02 -.164E+03   0.137E+00 0.905E+00 -.337E+00   0.289E-04 0.207E-04 0.594E-04
   0.602E+00 -.152E+02 0.402E+02   -.112E+01 0.148E+02 -.417E+02   0.848E+00 0.296E+00 0.107E+01   0.915E-05 0.429E-04 -.196E-04
   0.374E+02 -.356E+02 0.194E+03   -.384E+02 0.354E+02 -.194E+03   0.582E+00 0.338E+00 0.185E+00   0.158E-04 0.122E-04 0.449E-05
   0.274E+02 0.115E+02 -.280E+03   -.275E+02 -.119E+02 0.279E+03   -.162E+00 0.249E+00 0.121E+01   0.151E-05 -.767E-06 0.140E-04
   0.231E+02 -.354E+02 0.159E+03   -.232E+02 0.360E+02 -.159E+03   0.155E+00 -.648E+00 0.867E+00   -.158E-04 0.321E-04 0.186E-04
   0.426E+02 -.133E+02 -.124E+03   -.410E+02 0.138E+02 0.122E+03   -.159E+01 -.489E+00 0.235E+01   -.323E-04 0.624E-04 0.334E-04
   -.996E+01 0.907E+01 -.244E+01   0.107E+02 -.745E+01 0.553E+01   0.158E+00 -.137E+01 -.282E+01   -.475E-05 -.455E-04 0.687E-05
   -.938E+01 -.834E+01 -.198E+02   0.866E+01 0.842E+01 0.216E+02   0.909E+00 -.304E-01 -.154E+01   0.599E-05 0.122E-04 -.407E-05
   -.507E+02 0.361E+01 0.200E+03   0.508E+02 -.450E+01 -.200E+03   0.286E+00 0.751E+00 0.114E+00   -.554E-05 0.374E-04 0.469E-04
   -.801E+01 0.969E+00 -.679E+02   0.885E+01 -.158E+01 0.685E+02   -.564E+00 0.122E+01 -.800E+00   0.237E-05 0.435E-05 0.140E-04
   0.267E+02 -.702E+01 -.204E+03   -.252E+02 0.575E+01 0.201E+03   -.135E+01 0.102E+01 0.230E+01   -.354E-04 0.288E-04 0.215E-04
   0.894E+01 0.370E+01 0.491E+02   -.860E+01 -.370E+01 -.507E+02   -.652E+00 0.401E-01 0.157E+01   0.244E-04 -.329E-04 0.463E-04
   0.449E+01 -.851E+01 0.156E+03   -.403E+01 0.828E+01 -.156E+03   -.131E+00 0.611E+00 -.382E+00   0.146E-04 0.219E-04 -.356E-06
   0.656E+02 0.193E+02 0.273E+03   -.656E+02 -.194E+02 -.274E+03   -.178E+00 -.641E-01 0.491E+00   -.222E-04 -.246E-04 -.188E-04
   -.114E+01 -.228E+02 0.244E+03   -.209E+01 0.239E+02 -.247E+03   0.347E+01 -.120E+01 0.192E+01   0.180E-05 0.175E-04 0.573E-05
   0.163E+02 -.163E+02 0.278E+03   -.159E+02 0.168E+02 -.278E+03   -.249E+00 -.478E+00 -.116E+00   0.107E-05 0.224E-04 0.208E-04
   -.164E+02 0.438E+02 -.141E+03   0.156E+02 -.422E+02 0.142E+03   0.833E+00 -.174E+01 -.749E+00   0.846E-06 -.331E-04 0.401E-05
   0.323E+02 -.497E+02 -.203E+03   -.333E+02 0.475E+02 0.203E+03   0.121E+01 0.198E+01 0.281E+00   -.396E-04 0.110E-04 0.163E-04
   0.134E+02 0.126E+02 0.933E+02   -.117E+02 -.136E+02 -.900E+02   -.161E+01 0.883E+00 -.307E+01   -.294E-05 -.809E-05 -.115E-04
   -.350E+02 0.294E+02 -.233E+03   0.345E+02 -.300E+02 0.232E+03   0.870E+00 0.387E+00 0.776E+00   0.194E-04 -.245E-04 0.127E-04
   0.248E+02 -.291E+02 -.159E+03   -.245E+02 0.263E+02 0.158E+03   -.288E+00 0.261E+01 0.132E+01   -.109E-04 0.342E-04 0.322E-04
   -.455E+02 0.736E+02 0.223E+03   0.444E+02 -.730E+02 -.222E+03   0.126E+01 -.681E+00 -.114E+01   -.606E-05 -.452E-04 0.149E-04
   0.120E+02 -.176E+02 0.122E+03   -.127E+02 0.163E+02 -.120E+03   0.374E+00 0.120E+01 -.118E+01   -.573E-05 0.244E-04 0.512E-05
   -.724E+00 -.559E+02 0.237E+03   0.105E+01 0.553E+02 -.237E+03   -.103E+00 0.857E+00 -.907E-01   -.103E-04 0.230E-04 0.121E-05
   -.191E+02 0.945E+00 -.191E+03   0.195E+02 0.284E+00 0.190E+03   -.372E+00 -.102E+01 0.416E+00   0.521E-04 0.329E-04 0.472E-05
   -.137E+02 0.542E+01 -.227E+03   0.123E+02 -.631E+01 0.224E+03   0.821E+00 0.680E+00 0.285E+01   0.194E-04 -.924E-05 0.228E-04
   -.253E+02 -.663E+01 -.277E+03   0.248E+02 0.443E+01 0.278E+03   0.429E+00 0.204E+01 -.614E+00   0.102E-04 0.291E-04 -.561E-05
   0.661E+01 0.242E+02 0.273E+03   -.547E+01 -.226E+02 -.273E+03   -.100E+01 -.145E+01 -.219E+00   0.359E-05 -.391E-06 -.190E-04
   -.280E+02 0.161E+02 -.135E+03   0.270E+02 -.164E+02 0.134E+03   0.781E+00 0.107E+00 0.853E+00   0.164E-05 0.188E-04 0.623E-05
   -.267E+02 0.151E+02 -.109E+03   0.265E+02 -.154E+02 0.106E+03   0.509E+00 0.138E+00 0.304E+01   0.675E-05 -.356E-04 0.228E-04
   -.239E+02 0.372E+01 -.184E+03   0.253E+02 -.396E+01 0.183E+03   -.114E+01 0.375E-01 0.118E+01   -.104E-06 -.134E-04 0.498E-05
   0.337E+02 0.117E+02 -.189E+03   -.345E+02 -.105E+02 0.189E+03   0.510E+00 -.172E+01 -.201E+00   -.119E-04 -.710E-04 0.239E-04
   0.229E+01 0.163E+02 0.136E+02   -.244E+01 -.168E+02 -.149E+02   0.210E+00 0.489E+00 0.131E+01   0.420E-05 -.516E-04 0.299E-04
   0.125E+02 -.229E+02 0.234E+03   -.135E+02 0.239E+02 -.235E+03   0.495E+00 -.328E+00 -.192E+00   -.159E-04 -.284E-04 -.229E-04
   -.735E+01 -.222E+02 0.126E+03   0.753E+01 0.237E+02 -.125E+03   -.808E-01 -.137E+01 -.987E+00   0.102E-04 0.871E-05 -.250E-05
   -.109E+01 0.803E+00 -.308E+02   0.563E+00 -.371E+00 0.308E+02   0.601E+00 -.631E+00 0.726E-01   -.585E-04 0.693E-04 0.696E-04
   -.169E+01 0.242E+02 -.123E+03   0.250E+01 -.258E+02 0.121E+03   -.810E+00 0.141E+01 0.193E+01   0.638E-05 -.260E-04 0.151E-04
   -.383E+02 0.232E+02 0.235E+02   0.384E+02 -.228E+02 -.224E+02   0.242E+00 -.559E+00 -.106E+01   -.345E-04 -.457E-04 0.129E-04
   0.383E+02 0.390E+02 0.166E+03   -.395E+02 -.399E+02 -.167E+03   0.294E+00 0.642E+00 0.546E+00   -.127E-04 -.553E-04 0.870E-05
   -.252E+02 0.221E+02 -.249E+03   0.247E+02 -.212E+02 0.249E+03   0.574E+00 -.115E+01 0.659E+00   -.120E-04 0.655E-05 0.257E-04
   -.357E+01 -.456E+02 -.579E+02   0.180E+01 0.447E+02 0.567E+02   0.177E+01 0.134E+01 0.110E+01   0.413E-05 0.150E-04 0.212E-04
   -.120E+02 0.331E+02 -.247E+02   0.116E+02 -.339E+02 0.252E+02   0.481E+00 0.375E+00 -.529E+00   0.186E-04 -.245E-04 0.111E-04
   -.188E+02 0.244E+01 -.157E+03   0.175E+02 -.428E+01 0.154E+03   0.128E+01 0.195E+01 0.285E+01   -.259E-04 -.105E-03 0.375E-04
   -.448E+01 0.296E+01 -.240E+03   0.607E+01 -.489E+01 0.239E+03   -.145E+01 0.169E+01 0.768E+00   0.487E-06 0.771E-05 0.629E-04
   -.113E+02 0.176E+02 0.102E+02   0.118E+02 -.182E+02 -.120E+02   -.476E+00 0.703E+00 0.172E+01   0.258E-04 0.530E-04 0.264E-04
   0.124E+02 -.228E+02 -.369E+02   -.107E+02 0.231E+02 0.361E+02   -.137E+01 0.440E-02 0.826E+00   0.405E-04 -.147E-04 0.502E-05
   0.381E+02 0.182E+02 0.621E+02   -.394E+02 -.174E+02 -.631E+02   0.108E+01 -.102E+01 0.959E+00   -.185E-04 -.265E-04 0.280E-05
   0.159E+02 -.296E+02 0.124E+03   -.141E+02 0.288E+02 -.123E+03   -.198E+01 0.772E+00 -.146E+01   -.213E-04 0.317E-04 0.110E-04
   0.171E+01 -.194E+02 0.297E+02   -.250E+01 0.193E+02 -.287E+02   0.805E+00 -.199E+00 -.117E+01   -.120E-04 0.291E-04 0.519E-05
   -.461E+02 0.422E+01 0.147E+03   0.457E+02 -.474E+01 -.145E+03   0.472E+00 0.810E+00 -.197E+01   0.168E-04 -.168E-04 -.573E-05
   -.149E+02 -.208E+02 -.160E+03   0.138E+02 0.211E+02 0.160E+03   0.926E+00 -.304E+00 0.910E+00   0.107E-04 -.146E-04 0.302E-04
   0.366E+01 -.297E+02 0.523E+02   -.483E+01 0.286E+02 -.512E+02   0.113E+01 0.108E+01 -.134E+01   -.477E-04 0.751E-05 0.241E-04
   0.139E+02 -.498E+02 -.214E+03   -.124E+02 0.502E+02 0.211E+03   -.152E+01 0.143E+00 0.269E+01   0.378E-05 0.356E-04 0.130E-06
 -----------------------------------------------------------------------------------------------
   -.868E+01 -.106E+02 -.184E+02   0.117E-12 -.568E-13 -.512E-12   0.867E+01 0.106E+02 0.184E+02   -.382E-05 -.540E-05 0.834E-03


 POSITION                                       TOTAL-FORCE (eV/Angst)
 -----------------------------------------------------------------------------------
      3.76351     14.50087     12.83527        -0.306371     -0.111010      0.004724
      2.85624      5.61399     11.38384        -0.047083      0.042640     -0.074421
     10.47851      5.91219     10.20380        -0.038808     -0.103430      0.459811
      6.49167     13.93938     13.75797        -0.003449      0.240195     -0.107803
     14.20585      6.59377     11.39729         0.032619      0.013914      0.513476
      0.77340      8.56734     12.09139         0.094721      0.000869      0.059016
      7.83696      9.04820     14.42903        -0.143890     -0.211496      0.241307
      1.54319     10.53352     11.11252        -0.700916     -0.005707      0.020872
      7.38811      6.90138     13.61243        -0.282030      0.696522     -0.008178
      6.82679      0.19679     11.45240        -0.133401     -0.266142      0.094457
      0.78597      0.02211     12.93538         0.331738     -0.066381     -0.246960
      1.48037      1.75958     11.55748        -0.262498      0.110486      0.200653
     11.18536      7.83109     15.38474        -0.140818     -0.074054      0.005672
      3.70042      1.17342     11.63290         0.069947     -0.148640      0.502203
     11.00269     11.74487     13.81954        -0.006408      0.049191     -0.075726
      9.20556      5.78023     12.45794         0.847377      0.097334      0.060008
      3.01807     11.38529     12.76078         0.229011      0.025954      0.122385
      8.51234     13.15114     11.21740         0.242255      0.001488     -0.024842
     13.95273      9.80926     13.51487         0.227125      0.642476     -0.176094
     13.00179     12.73384     14.55847         0.077787     -0.156883      0.113329
      7.03513      2.32325     12.37139        -0.338105      0.088971      0.146549
      4.66510     12.24108     11.27128         0.336063      0.377022     -0.252859
      6.55599      5.86741     10.10390        -0.053890     -0.141484     -0.262345
     13.93651     11.81090     10.82857         0.411818     -0.161984     -0.478316
      4.87478     14.33470     10.22326         0.183037     -0.023276     -0.092188
     12.26669      4.24072     13.97142        -0.006484     -0.068198     -0.037413
     13.14220      0.51330     14.64149         0.318450     -0.222160     -0.094616
      5.00799      9.04270     11.90859        -0.001662     -0.108374      0.022888
      0.59629      6.63763     14.90421         0.292243     -0.042451     -0.362784
     10.13550      9.49417     14.09726         0.071689      0.018596      0.075855
      9.88968      3.78462     10.83472         0.131751      0.119976      0.154257
     12.29156     10.74077     12.08970        -0.337748     -0.047676      0.363917
      8.74497      9.35387     10.61033         0.227030      0.098396      0.026515
      4.43453      0.42027     14.25553        -0.097392      0.135576     -0.253596
     13.38564      8.08954     14.91899        -0.547345     -0.175732     -0.120942
      2.47935      0.01235     15.48027        -0.080393     -0.023847      0.000866
      3.80592     10.31096     10.23955         0.093061      0.148733      0.770031
      1.80049     12.79939     14.11025        -0.249823     -0.107001      0.098761
      2.30419      7.72644     13.61499         0.266347     -0.102452      0.088162
      3.86733      9.49156     13.92800         0.046442     -0.231819     -0.481356
      7.70695      4.57053     13.89479        -0.083839     -0.654043     -0.312794
      3.53899      5.95368     12.66961         0.045224     -0.016714      0.036491
      8.50430      7.06777     10.49985        -0.458999      0.500063     -0.413189
     10.74223      9.06741     11.80780         0.128820      0.022100     -0.307101
      9.79795     13.67457     13.16058         0.142682     -0.222356      0.095176
     11.15755      6.22720     13.68030        -0.040018     -0.059093      0.337525
     10.90218      2.79045     12.70739         0.303921     -0.232635     -0.009921
      7.65204      4.21025     11.28998        -0.746518     -0.126018     -0.157000
      0.21961     11.36433     15.03560         0.020762     -0.207003      0.138545
      4.87229      2.46830     13.21695         0.076357      0.364441     -0.038096
     14.36179      5.07130     13.30361         0.141018     -0.412971      0.008122
      8.83773      2.40584     13.87130        -0.022539      0.222363      0.092477
      8.46509      0.22497     14.74275         0.016043     -0.106786     -0.158648
      6.74894     12.06211     12.36859        -0.003412      0.184677     -0.055967
      1.36599      3.29790     13.37988         0.266476      0.271999      0.117807
      5.60601      6.80514     12.02459        -0.097407     -0.302016      0.086293
     13.38361     13.57928     12.28201        -0.277471      0.012467      0.028958
      7.18263      9.79609     12.33957         0.027011     -0.256487     -0.221653
     11.93723      7.03858     11.60644         0.016773      0.299144     -0.297320
      3.46552      4.09640     14.03513        -0.174817     -0.026638      0.105911
     11.64423      0.54466     12.77088         0.060684      0.008513     -0.155177
      0.73209      1.50037     14.78359        -0.092748      0.428851      0.084283
 -----------------------------------------------------------------------------------
    total drift:                               -0.011272      0.004546     -0.004454


--------------------------------------------------------------------------------------------------------



  FREE ENERGIE OF THE ION-ELECTRON SYSTEM (eV)
  ---------------------------------------------------
  free  energy   TOTEN  =      -566.26806581 eV

  energy  without entropy=     -566.14185181  energy(sigma->0) =     -566.20495881



--------------------------------------------------------------------------------------------------------


    POTLOK:  cpu time      3.1722: real time      3.1747


--------------------------------------------------------------------------------------------------------


     LOOP+:  cpu time   6436.6548: real time   6441.1844
    4ORBIT:  cpu time      0.0000: real time      0.0000



 total charge

# of ion       s       p       d       tot
------------------------------------------
    1        0.558   0.020   0.000   0.578
    2        0.563   0.015   0.000   0.578
    3        0.801   0.885   0.000   1.685
    4        0.772   0.890   0.000   1.661
    5        0.814   0.815   0.000   1.629
    6        0.760   0.940   0.000   1.700
    7        0.805   0.856   0.000   1.661
    8        0.768   0.873   0.000   1.641
    9        0.798   0.838   0.000   1.636
   10        0.782   0.899   0.000   1.680
   11        0.772   0.926   0.000   1.698
   12        0.819   0.855   0.000   1.674
   13        0.804   0.870   0.000   1.673
   14        0.790   0.879   0.000   1.669
   15        0.759   0.906   0.000   1.665
   16        0.759   0.903   0.000   1.661
   17        0.756   0.918   0.000   1.674
   18        0.824   0.828   0.000   1.652
   19        0.770   0.941   0.000   1.711
   20        0.776   0.896   0.000   1.672
   21        0.764   0.946   0.000   1.710
   22        0.761   0.921   0.000   1.683
   23        0.819   0.862   0.000   1.680
   24        0.818   0.799   0.000   1.618
   25        0.808   0.867   0.000   1.675
   26        0.794   0.876   0.000   1.670
   27        0.801   0.829   0.000   1.630
   28        0.760   0.931   0.000   1.691
   29        0.806   0.844   0.000   1.650
   30        0.762   0.896   0.000   1.657
   31        0.797   0.881   0.000   1.678
   32        0.770   0.924   0.000   1.694
   33        0.802   0.863   0.000   1.665
   34        0.774   0.900   0.000   1.674
   35        0.800   0.882   0.000   1.681
   36        0.813   0.830   0.000   1.644
   37        0.824   0.791   0.000   1.615
   38        0.769   0.931   0.000   1.699
   39        0.757   0.931   0.000   1.688
   40        0.809   0.831   0.000   1.641
   41        0.816   0.801   0.000   1.617
   42        0.742   0.985   0.000   1.727
   43        0.777   0.903   0.000   1.680
   44        0.762   0.933   0.000   1.694
   45        0.755   0.916   0.000   1.671
   46        0.767   0.925   0.000   1.692
   47        0.754   0.902   0.000   1.656
   48        0.776   0.922   0.000   1.699
   49        0.794   0.893   0.000   1.687
   50        0.759   0.952   0.000   1.711
   51        0.757   0.897   0.000   1.654
   52        0.770   0.882   0.000   1.652
   53        0.800   0.843   0.000   1.643
   54        0.766   0.925   0.000   1.690
   55        0.763   0.911   0.000   1.674
   56        0.754   0.949   0.000   1.703
   57        0.778   0.900   0.000   1.679
   58        0.763   0.941   0.000   1.704
   59        0.767   0.939   0.000   1.706
   60        0.788   0.898   0.000   1.686
   61        0.758   0.907   0.000   1.665
   62        0.789   0.877   0.000   1.666
--------------------------------------------------
tot         48.010  53.491   0.000 101.500


 total amount of memory used by VASP MPI-rank0   354606. kBytes
=======================================================================

   base                                    :      30000. kBytes
   nonl-proj                               :      64899. kBytes
   fftplans                                :     100025. kBytes
   grid                                    :      77177. kBytes
   one-center                              :         12. kBytes
   wavefun                                 :      82493. kBytes

  
  
 General timing and accounting informations for this job:
 ========================================================
  
                  Total CPU time used (sec):     6574.839
                            User time (sec):     5793.935
                          System time (sec):      780.904
                         Elapsed time (sec):     6579.383
  
                   Maximum memory used (kb):      614064.
                   Average memory used (kb):          N/A
  
                          Minor page faults:     11970408
                          Major page faults:         1151
                 Voluntary context switches:         3233
