 vasp.6.5.0 16Dec24 (build Jan 20 2025 08:32:48) complex                         
 executed on        HPECrayEX_GCC date 2025.07.28  13:49:00
 running  128 mpi-ranks, with    1 threads/rank, on    1 nodes
 distrk:  each k-point on  128 cores,    1 groups
 distr:  one band on NCORE=  16 cores,    8 groups


--------------------------------------------------------------------------------------------------------


 INCAR:
   SYSTEM = a-Si SPC
   NCORE = 16
   ISTART = 1
   ICHARG = 1
   ISPIN = 1
   ISYM = 1
   EDIFF = 1E-6
   NELM = 150
   EDIFFG = -0.01
   NSW = 0
   ISIF = 2
   IBRION = -1
   PREC = Accurate
   ENCUT = 1200
   KSPACING = 0.23
   KGAMMA = .TRUE.
   METAGGA = SCAN
   LASPH = .TRUE.
   LDIAG = .FALSE.
   LMIXTAU = .TRUE.
   ADDGRID = .TRUE.
   ALGO = Normal
   ISMEAR = 0
   SIGMA = 0.1
   LORBIT = 11
   NEDOS = 2000
   LWAVE = .FALSE.
   LCHARG = .FALSE.

 POTCAR:    PAW_PBE H 15Jun2001                   
 POTCAR:    PAW_PBE Si 05Jan2001                  
 POTCAR:    PAW_PBE H 15Jun2001                   
   SHA256 =  030f79b5d3ab3cf0e668861823c8fb652ff669f3e15e46930bd03bfd63a607b6 H/POTCAR              
   COPYR  = (c) Copyright 15Jun2001 Georg Kresse                                                    
   COPYR  = This file is part of the software VASP. Any use, copying, and all other rights are regul
   COPYR  = If you do not have a valid VASP license, you may not use, copy or distribute this file. 
   VRHFIN =H: ultrasoft test                                                                        
   LEXCH  = PE                                                                                      
   EATOM  =    12.4884 eV,    0.9179 Ry                                                             
                                                                                                    
   TITEL  = PAW_PBE H 15Jun2001                                                                     
   LULTRA =        F    use ultrasoft PP ?                                                          
   IUNSCR =        0    unscreen: 0-lin 1-nonlin 2-no                                               
   RPACOR =    0.000    partial core radius                                                         
   POMASS =    1.000; ZVAL   =    1.000    mass and valenz                                          
   RCORE  =    1.100    outmost cutoff radius                                                       
   RWIGS  =    0.700; RWIGS  =    0.370    wigner-seitz radius (au A)                               
   ENMAX  =  250.000; ENMIN  =  200.000 eV                                                          
   RCLOC  =    0.701    cutoff for local pot                                                        
   LCOR   =        T    correct aug charges                                                         
   LPAW   =        T    paw PP                                                                      
   EAUG   =  400.000                                                                                
   RMAX   =    1.123    core radius for proj-oper                                                   
   RAUG   =    1.200    factor for augmentation sphere                                              
   RDEP   =    1.112    radius for radial grids                                                     
   RDEPT  =    0.926    core radius for aug-charge                                                  
                                                                                                    
   Atomic configuration                                                                             
    2 entries                                                                                       
     n  l   j            E        occ.                                                              
     1  0  0.50        -6.4927   1.0000                                                             
     2  1  0.50        -3.4015   0.0000                                                             
   Description                                                                                      
     l       E           TYP  RCUT    TYP  RCUT                                                     
     0     -6.4927494     23  1.100                                                                 
     0      6.8029130     23  1.100                                                                 
     1     -4.0817478     23  1.100                                                                 
  local pseudopotential read in
  atomic valenz-charges read in
  non local Contribution for L=           0  read in
    real space projection operators read in
  non local Contribution for L=           0  read in
    real space projection operators read in
  non local Contribution for L=           1  read in
    real space projection operators read in
    PAW grid and wavefunctions read in

   number of l-projection  operators is LMAX  =           3
   number of lm-projection operators is LMMAX =           5

 POTCAR:    PAW_PBE Si 05Jan2001                  
   SHA256 =  79d9987ad8750f624c4d6acb2a16d13abf6a777132adc04dc6c8399be72b42bb Si/POTCAR             
   COPYR  = (c) Copyright 05Jan2001 Georg Kresse                                                    
   COPYR  = This file is part of the software VASP. Any use, copying, and all other rights are regul
   COPYR  = If you do not have a valid VASP license, you may not use, copy or distribute this file. 
   VRHFIN =Si: s2p2                                                                                 
   LEXCH  = PE                                                                                      
   EATOM  =   103.0669 eV,    7.5752 Ry                                                             
                                                                                                    
   TITEL  = PAW_PBE Si 05Jan2001                                                                    
   LULTRA =        F    use ultrasoft PP ?                                                          
   IUNSCR =        1    unscreen: 0-lin 1-nonlin 2-no                                               
   RPACOR =    1.500    partial core radius                                                         
   POMASS =   28.085; ZVAL   =    4.000    mass and valenz                                          
   RCORE  =    1.900    outmost cutoff radius                                                       
   RWIGS  =    2.480; RWIGS  =    1.312    wigner-seitz radius (au A)                               
   ENMAX  =  245.345; ENMIN  =  184.009 eV                                                          
   ICORE  =        2    local potential                                                             
   LCOR   =        T    correct aug charges                                                         
   LPAW   =        T    paw PP                                                                      
   EAUG   =  322.069                                                                                
   DEXC   =    0.000                                                                                
   RMAX   =    1.950    core radius for proj-oper                                                   
   RAUG   =    1.300    factor for augmentation sphere                                              
   RDEP   =    1.993    radius for radial grids                                                     
   RDEPT  =    1.837    core radius for aug-charge                                                  
                                                                                                    
   Atomic configuration                                                                             
    6 entries                                                                                       
     n  l   j            E        occ.                                                              
     1  0  0.50     -1785.8828   2.0000                                                             
     2  0  0.50      -139.4969   2.0000                                                             
     2  1  1.50       -95.5546   6.0000                                                             
     3  0  0.50       -10.8127   2.0000                                                             
     3  1  0.50        -4.0811   2.0000                                                             
     3  2  1.50        -4.0817   0.0000                                                             
   Description                                                                                      
     l       E           TYP  RCUT    TYP  RCUT                                                     
     0    -10.8127223     23  1.900                                                                 
     0     -7.6451159     23  1.900                                                                 
     1     -4.0811372     23  1.900                                                                 
     1      2.4879257     23  1.900                                                                 
     2     -4.0817478      7  1.900                                                                 
  local pseudopotential read in
  partial core-charges read in
  partial kinetic energy density read in
  atomic valenz-charges read in
  non local Contribution for L=           0  read in
    real space projection operators read in
  non local Contribution for L=           0  read in
    real space projection operators read in
  non local Contribution for L=           1  read in
    real space projection operators read in
  non local Contribution for L=           1  read in
    real space projection operators read in
    PAW grid and wavefunctions read in

   number of l-projection  operators is LMAX  =           4
   number of lm-projection operators is LMMAX =           8

 -----------------------------------------------------------------------------
|                                                                             |
|               ----> ADVICE to this user running VASP <----                  |
|                                                                             |
|     You have a (more or less) 'large supercell' and for larger cells it     |
|     might be more efficient to use real-space projection operators.         |
|     Therefore, try LREAL= Auto in the INCAR file.                           |
|     Mind: For very accurate calculation, you might also keep the            |
|     reciprocal projection scheme (i.e. LREAL=.FALSE.).                      |
|                                                                             |
 -----------------------------------------------------------------------------

 -----------------------------------------------------------------------------
|                                                                             |
|               ----> ADVICE to this user running VASP <----                  |
|                                                                             |
|     You enforced a specific xc type in the INCAR file but a different       |
|     type was found in the POTCAR file.                                      |
|     I HOPE YOU KNOW WHAT YOU ARE DOING!                                     |
|                                                                             |
 -----------------------------------------------------------------------------

  PAW_PBE H 15Jun2001                   :
 energy of atom  1       EATOM=  -12.4884
 kinetic energy error for atom=    0.0000 (will be added to EATOM!!)
  PAW_PBE Si 05Jan2001                  :
 energy of atom  2       EATOM= -103.0669
 kinetic energy error for atom=    0.0001 (will be added to EATOM!!)


 POSCAR:  H Si
  positions in cartesian coordinates
  No initial velocities read in


 exchange-correlation table for SCAN
   RHO(1)=    0.500       N(1)  =     2000
   RHO(2)=  100.500       N(2)  =     4000



--------------------------------------------------------------------------------------------------------


 ion  position               nearest neighbor table
   1  0.452  0.470  0.343-  34 1.48
   2  0.455  0.780  0.637-  37 1.48
   3  0.641  0.530  0.429-  66 1.49
   4  0.235  0.680  0.386-  39 1.49
   5  0.592  0.870  0.424-  93 1.50
   6  0.485  0.742  0.368-  14 0.74
   7  0.647  0.697  0.389-  11 0.74
   8  0.705  0.851  0.340-  41 1.48
   9  0.358  0.596  0.368-  34 1.48
  10  0.784  0.615  0.557-  99 1.50
  11  0.598  0.693  0.381-   7 0.74
  12  0.542  0.858  0.577-  37 1.49
  13  0.012  0.330  0.430- 102 1.59  61 1.68
  14  0.445  0.771  0.374-   6 0.74
  15  0.412  0.816  0.438-  81 1.48
  16  0.113  0.262  0.598-  55 1.68  36 1.83
  17  0.577  0.726  0.469-  62 1.49
  18  0.796  0.370  0.409-  51 1.50
  19  0.208  0.068  0.485-  35 2.35  22 2.35  79 2.39  74 2.40
  20  0.347  0.083  0.617-  48 2.33  95 2.37  73 2.38  74 2.45
  21  0.796  0.794  0.605-  44 2.26  28 2.35  76 2.40
  22  0.060  0.115  0.462- 101 2.29 109 2.32  19 2.35 107 2.38
  23  0.927  0.669  0.344-  96 2.31  80 2.39 104 2.43
  24  0.259  0.449  0.460-  82 2.29  70 2.33  98 2.35  58 2.37  34 3.08
  25  0.744  0.293  0.534-  59 2.35  97 2.37  68 2.40  45 2.45  38 2.72
  26  0.918  0.598  0.637-  53 2.30  28 2.33  99 2.36
  27  0.386  0.567  0.647-  87 2.29 105 2.33
  28  0.950  0.745  0.610-  26 2.33  67 2.34  21 2.35  60 2.60
  29  0.923  0.364  0.629-  78 2.27  45 2.29  53 2.30
  30  0.093  0.832  0.522-  67 2.29  31 2.33  56 2.33  71 2.36  60 3.03
  31  0.209  0.868  0.574-  30 2.33  85 2.34  74 2.35  60 2.45  90 3.14
  32  0.217  0.992  0.356-  72 2.27  89 2.34  79 2.37
  33  0.579  0.226  0.420- 100 2.33  38 2.35  50 2.39  40 2.41
  34  0.381  0.499  0.377-   1 1.48   9 1.48  58 2.36  98 2.39  24 3.08
  35  0.271  0.213  0.471-  49 2.33  42 2.33  82 2.34  19 2.35
  36  0.016  0.182  0.593-  16 1.83  78 2.30  90 2.35 109 2.36
  37  0.475  0.783  0.587-   2 1.48  12 1.49  88 2.36  85 2.37
  38  0.639  0.165  0.489-  63 2.33  33 2.35  25 2.72  59 2.96  69 3.00
  39  0.153  0.675  0.417-   4 1.49  70 2.32  56 2.39  80 2.40
  40  0.510  0.343  0.468-  97 2.34  58 2.34  42 2.39  33 2.41
  41  0.775  0.893  0.371-   8 1.48  54 2.34 104 2.36
  42  0.402  0.256  0.512-  63 2.32  35 2.33  40 2.39  83 2.40
  43  0.844  0.563  0.463-  91 2.34  96 2.34  66 2.37  46 2.40
  44  0.848  0.934  0.582-  21 2.26  65 2.34  71 2.37  84 2.90  76 2.98
  45  0.843  0.414  0.566-  29 2.29  91 2.35  99 2.35  25 2.45
  46  0.875  0.722  0.478-  76 2.38  43 2.40  67 2.41 104 2.45
  47  0.535  0.271  0.630-  52 2.28  95 2.34 108 2.40  73 2.41
  48  0.451  0.974  0.645-  20 2.33  86 2.35  73 2.66
  49  0.308  0.243  0.394-  72 2.27  35 2.33 100 2.43  98 2.48
  50  0.707  0.190  0.370-  33 2.39  51 2.40  54 2.41
  51  0.832  0.274  0.404-  18 1.50  59 2.40  50 2.40  61 2.45
  52  0.647  0.174  0.657-  47 2.28  86 2.36  68 2.36  73 2.84
  53  0.016  0.480  0.657-  26 2.30  29 2.30  57 2.36
  54  0.724  0.035  0.399-  69 2.33  41 2.34  93 2.37  50 2.41
  55  0.183  0.345  0.578-  16 1.68  82 2.30  83 2.33  57 2.38
  56  0.126  0.829  0.442-  94 2.31  79 2.33  30 2.33  39 2.39
  57  0.130  0.494  0.599-  87 2.32  53 2.36  77 2.37  55 2.38
  58  0.419  0.473  0.456-  40 2.34  34 2.36  24 2.37 103 2.37
  59  0.837  0.212  0.482- 109 2.33  25 2.35  69 2.37  51 2.40  38 2.96
  60  0.074  0.870  0.625-  31 2.45  90 2.50  28 2.60  71 2.97  30 3.03
  61  0.987  0.301  0.374-  13 1.68 107 2.36  51 2.45  92 2.51
  62  0.639  0.683  0.504-  17 1.49  88 2.32  66 2.39  76 2.40
  63  0.495  0.127  0.518-  73 2.27  42 2.32  38 2.33  75 2.33
  64  0.628  0.551  0.621- 108 2.35  99 2.35  88 2.38
  65  0.721  0.032  0.580-  44 2.34  86 2.37  84 2.37  68 2.38
  66  0.686  0.536  0.476-   3 1.49  43 2.37  62 2.39  97 2.45
  67  0.998  0.710  0.534-  30 2.29  77 2.33  28 2.34  46 2.41
  68  0.759  0.187  0.598-  52 2.36  78 2.37  65 2.38  25 2.40
  69  0.807  0.054  0.467- 101 2.32  54 2.33  59 2.37  84 2.38  38 3.00
  70  0.189  0.587  0.481-  39 2.32 106 2.33  24 2.33  77 2.36
  71  0.987  0.950  0.541- 101 2.32  90 2.33  30 2.36  44 2.37  60 2.97
  72  0.211  0.148  0.355-  32 2.27  49 2.27 107 2.28  89 3.05
  73  0.501  0.123  0.597-  63 2.27  86 2.36  20 2.38  47 2.41  48 2.66  95 2.72  52 2.84
  74  0.224  0.028  0.566-  90 2.34  31 2.35  19 2.40  20 2.45
  75  0.462  0.022  0.460-  63 2.33  93 2.34  81 2.38 100 2.45
  76  0.757  0.792  0.524-  46 2.38  62 2.40  21 2.40  84 2.43  44 2.98
  77  0.064  0.565  0.532-  91 2.32  67 2.33  70 2.36  57 2.37
  78  0.895  0.212  0.641-  29 2.27  36 2.30  68 2.37
  79  0.239  0.942  0.434-  56 2.33  81 2.33  32 2.37  19 2.39
  80  0.046  0.577  0.377-  96 2.34  23 2.39  92 2.40  39 2.40
  81  0.372  0.887  0.469-  15 1.48  79 2.33  75 2.38  85 2.44
  82  0.181  0.334  0.498-  24 2.29 102 2.29  55 2.30  35 2.34
  83  0.340  0.318  0.583- 105 2.32  95 2.33  55 2.33  42 2.40
  84  0.712  0.950  0.509-  65 2.37  69 2.38  93 2.39  76 2.43  44 2.90
  85  0.341  0.803  0.541-  31 2.34 106 2.35  37 2.37  81 2.44
  86  0.603  0.024  0.637-  48 2.35  73 2.36  52 2.36  65 2.37
  87  0.254  0.593  0.606-  27 2.29  57 2.32 106 2.35 105 3.05
  88  0.546  0.642  0.566-  62 2.32  37 2.36 103 2.38  64 2.38
  89  0.057  0.005  0.354-  32 2.34  94 2.36 107 2.38  72 3.05
  90  0.074  0.031  0.595-  71 2.33  74 2.34  36 2.35  60 2.50  31 3.14
  91  0.942  0.474  0.509- 102 2.31  77 2.32  43 2.34  45 2.35
  92  0.097  0.428  0.353-  80 2.40  98 2.41  61 2.51
  93  0.609  0.963  0.444-   5 1.50  75 2.34  54 2.37  84 2.39
  94  1.000  0.896  0.407- 104 2.31 101 2.31  56 2.31  89 2.36
  95  0.383  0.230  0.647-  83 2.33  47 2.34  20 2.37  73 2.72
  96  0.891  0.538  0.386-  23 2.31  80 2.34  43 2.34
  97  0.627  0.400  0.516-  40 2.34  25 2.37 108 2.38  66 2.45
  98  0.250  0.402  0.382-  24 2.35  34 2.39  92 2.41  49 2.48
  99  0.784  0.550  0.598-  10 1.50  45 2.35  64 2.35  26 2.36
 100  0.443  0.147  0.404-  33 2.33  49 2.43  75 2.45
 101  0.956  0.997  0.465-  22 2.29  94 2.31  69 2.32  71 2.32
 102  0.027  0.350  0.483-  13 1.59 109 2.28  82 2.29  91 2.31
 103  0.429  0.560  0.526- 106 2.33 105 2.34  58 2.37  88 2.38
 104  0.885  0.788  0.400-  94 2.31  41 2.36  23 2.43  46 2.45
 105  0.412  0.459  0.589-  83 2.32  27 2.33 108 2.34 103 2.34  87 3.05
 106  0.297  0.649  0.532-  70 2.33 103 2.33  85 2.35  87 2.35
 107  0.064  0.159  0.382-  72 2.28  61 2.36  89 2.38  22 2.38
 108  0.566  0.414  0.592- 105 2.34  64 2.35  97 2.38  47 2.40
 109  0.984  0.212  0.513- 102 2.28  22 2.32  59 2.33  36 2.36

  LATTYP: Found a simple tetragonal cell.
 ALAT       =    14.5549806953
 C/A-ratio  =     1.9751443579
  
  Lattice vectors:
  
 A1 = (  14.5549806953,   0.0000000000,   0.0000000000)
 A2 = (   0.0000000000,  14.5549806953,   0.0000000000)
 A3 = (   0.0000000000,   0.0000000000,  28.7481880000)


Analysis of symmetry for initial positions (statically):
=====================================================================
 Subroutine PRICEL returns:
 Original cell was already a primitive cell.
 

 Routine SETGRP: Setting up the symmetry group for a 
 simple tetragonal supercell.


 Subroutine GETGRP returns: Found  1 space group operations
 (whereof  1 operations were pure point group operations)
 out of a pool of 16 trial point group operations.


The static configuration has the point symmetry C_1 .


Analysis of symmetry for dynamics (positions and initial velocities):
=====================================================================
 Subroutine PRICEL returns:
 Original cell was already a primitive cell.
 

 Routine SETGRP: Setting up the symmetry group for a 
 simple tetragonal supercell.


 Subroutine GETGRP returns: Found  1 space group operations
 (whereof  1 operations were pure point group operations)
 out of a pool of 16 trial point group operations.


The dynamic configuration has the point symmetry C_1 .


 Subroutine INISYM returns: Found  1 space group operations
 (whereof  1 operations are pure point group operations),
 and found     1 'primitive' translations


----------------------------------------------------------------------------------------

                                     Primitive cell                                     

  volume of cell :    6090.2307

  direct lattice vectors                    reciprocal lattice vectors
    14.554980695  0.000000000  0.000000000     0.068705004  0.000000000  0.000000000
     0.000000000 14.554980695  0.000000000     0.000000000  0.068705004  0.000000000
     0.000000000  0.000000000 28.748188000     0.000000000  0.000000000  0.034784801

  length of vectors
    14.554980695 14.554980695 28.748188000     0.068705004  0.068705004  0.034784801

  position of ions in fractional coordinates (direct lattice)
     0.452432393  0.469546678  0.343343679
     0.455047542  0.780099257  0.636876875
     0.641393590  0.530395252  0.428796631
     0.235275141  0.680377839  0.385603631
     0.592191613  0.869738656  0.424218735
     0.484709417  0.741563640  0.368271392
     0.646925887  0.696616351  0.388749111
     0.705155674  0.850858348  0.340384796
     0.357626752  0.596070696  0.367707069
     0.784103399  0.614599576  0.557354773
     0.598325154  0.693132615  0.380835560
     0.542064444  0.857677533  0.576560635
     0.012382735  0.330456837  0.429640658
     0.444970723  0.771221983  0.374322797
     0.412173328  0.816339618  0.438167222
     0.113127822  0.261812330  0.597791577
     0.576768639  0.725653545  0.469263001
     0.795887815  0.369643667  0.409314775
     0.207675889  0.067775199  0.485199614
     0.347179516  0.082691836  0.616666900
     0.796355107  0.794236142  0.604685299
     0.060142233  0.115287865  0.462169652
     0.926529693  0.669167157  0.344319373
     0.258677759  0.448844069  0.460148845
     0.743507273  0.292510511  0.534344654
     0.918111976  0.597657590  0.637425666
     0.385905422  0.567011609  0.647456761
     0.949600414  0.744973367  0.609967923
     0.923030460  0.364248875  0.629478089
     0.093046245  0.832460094  0.521527027
     0.209373211  0.868069924  0.574296324
     0.217357151  0.991870007  0.356229018
     0.579386454  0.225895027  0.419739272
     0.381212131  0.498970625  0.376740722
     0.271395794  0.213334306  0.470848076
     0.016237342  0.181832486  0.592539777
     0.475417384  0.782558433  0.586505332
     0.639051845  0.165108112  0.489336308
     0.153347887  0.675314285  0.416508716
     0.510207890  0.342607419  0.467624967
     0.775229628  0.892706342  0.371262022
     0.402179659  0.255994291  0.512292901
     0.844104837  0.563182463  0.462744214
     0.847818031  0.933838288  0.582265315
     0.842523102  0.414081669  0.565727129
     0.875230360  0.721920692  0.478348796
     0.535347584  0.270537451  0.630418728
     0.450732396  0.973918061  0.644561801
     0.308273869  0.243466833  0.393632992
     0.706792674  0.189840464  0.370291539
     0.831882922  0.273686309  0.404328186
     0.647332398  0.174242625  0.657316368
     0.015928935  0.479954024  0.656685721
     0.723888812  0.035148091  0.398953501
     0.182636465  0.345172101  0.578315003
     0.126374030  0.829015127  0.442135000
     0.129657867  0.494480983  0.598786029
     0.419148910  0.473276805  0.455613192
     0.836625744  0.212090999  0.481632449
     0.073913043  0.869737876  0.624751717
     0.987444909  0.300939544  0.374410395
     0.639250244  0.683498212  0.504101796
     0.494737168  0.127209745  0.518394826
     0.628301166  0.551184555  0.620546119
     0.720643983  0.031623820  0.579875793
     0.685563280  0.536376012  0.475576192
     0.997504009  0.710146733  0.534403474
     0.758604090  0.186611137  0.597790091
     0.807123567  0.054443109  0.467292222
     0.189112432  0.587236848  0.481140101
     0.987255669  0.949691886  0.540591804
     0.210751956  0.147762072  0.355283301
     0.501231179  0.122623476  0.597307774
     0.224059543  0.027851676  0.565898734
     0.462291195  0.021637784  0.459678363
     0.757088964  0.791964727  0.523588782
     0.064436226  0.564857613  0.532351114
     0.894804301  0.212497490  0.641315087
     0.238840706  0.942056220  0.434041840
     0.046299785  0.576906791  0.376807293
     0.372119983  0.886844011  0.469498420
     0.181201916  0.334465309  0.498335495
     0.340213766  0.318041323  0.583140856
     0.711951939  0.949740549  0.508713014
     0.341127111  0.802965498  0.541088569
     0.603132021  0.023869582  0.636747420
     0.254389047  0.593232793  0.605576234
     0.545671293  0.642073712  0.565898987
     0.056897606  0.005172210  0.353746643
     0.073904160  0.031148803  0.594713358
     0.941527965  0.474082100  0.508992458
     0.096745684  0.427606724  0.352732080
     0.608718133  0.963011086  0.444491305
     0.999990533  0.896324085  0.407241812
     0.383287189  0.229566777  0.646943842
     0.891354875  0.538150774  0.385952647
     0.627113402  0.399812196  0.515580092
     0.249610847  0.401674138  0.382266446
     0.783928450  0.550266717  0.598209766
     0.443283197  0.147156384  0.403899520
     0.955788265  0.997288522  0.465148673
     0.027246002  0.350465108  0.483355665
     0.429252031  0.559531504  0.525527197
     0.885455122  0.787875926  0.400021792
     0.412274810  0.459498787  0.588856497
     0.296910454  0.649026269  0.531982933
     0.063537458  0.158503928  0.382318725
     0.566088614  0.413528525  0.592142601
     0.984151794  0.212080975  0.513391954

  ion indices of the primitive-cell ions
   primitive index   ion index
                 1           1
                 2           2
                 3           3
                 4           4
                 5           5
                 6           6
                 7           7
                 8           8
                 9           9
                10          10
                11          11
                12          12
                13          13
                14          14
                15          15
                16          16
                17          17
                18          18
                19          19
                20          20
                21          21
                22          22
                23          23
                24          24
                25          25
                26          26
                27          27
                28          28
                29          29
                30          30
                31          31
                32          32
                33          33
                34          34
                35          35
                36          36
                37          37
                38          38
                39          39
                40          40
                41          41
                42          42
                43          43
                44          44
                45          45
                46          46
                47          47
                48          48
                49          49
                50          50
                51          51
                52          52
                53          53
                54          54
                55          55
                56          56
                57          57
                58          58
                59          59
                60          60
                61          61
                62          62
                63          63
                64          64
                65          65
                66          66
                67          67
                68          68
                69          69
                70          70
                71          71
                72          72
                73          73
                74          74
                75          75
                76          76
                77          77
                78          78
                79          79
                80          80
                81          81
                82          82
                83          83
                84          84
                85          85
                86          86
                87          87
                88          88
                89          89
                90          90
                91          91
                92          92
                93          93
                94          94
                95          95
                96          96
                97          97
                98          98
                99          99
               100         100
               101         101
               102         102
               103         103
               104         104
               105         105
               106         106
               107         107
               108         108
               109         109

----------------------------------------------------------------------------------------


 -----------------------------------------------------------------------------
|                                                                             |
|           W    W    AA    RRRRR   N    N  II  N    N   GGGG   !!!           |
|           W    W   A  A   R    R  NN   N  II  NN   N  G    G  !!!           |
|           W    W  A    A  R    R  N N  N  II  N N  N  G       !!!           |
|           W WW W  AAAAAA  RRRRR   N  N N  II  N  N N  G  GGG   !            |
|           WW  WW  A    A  R   R   N   NN  II  N   NN  G    G                |
|           W    W  A    A  R    R  N    N  II  N    N   GGGG   !!!           |
|                                                                             |
|     The requested file  could not be found or opened for reading            |
|     k-point information. Automatic k-point generation is used as a          |
|     fallback, which may lead to unwanted results.                           |
|                                                                             |
 -----------------------------------------------------------------------------



Automatic generation of k-mesh.
 Grid dimensions derived from KSPACING:
 generate k-points for:    2    2    1

 Generating k-lattice:

  Cartesian coordinates                     Fractional coordinates (reciprocal lattice)
     0.034352502  0.000000000  0.000000000     0.500000000  0.000000000  0.000000000
     0.000000000  0.034352502  0.000000000     0.000000000  0.500000000  0.000000000
     0.000000000  0.000000000  0.034784801     0.000000000  0.000000000  1.000000000

  Length of vectors
     0.034352502  0.034352502  0.034784801

  Shift w.r.t. Gamma in fractional coordinates (k-lattice)
     0.000000000  0.000000000  0.000000000

 
 Subroutine IBZKPT returns following result:
 ===========================================
 
 Found      4 irreducible k-points:
 
 Following reciprocal coordinates:
            Coordinates               Weight
  0.000000  0.000000  0.000000      1.000000
  0.500000  0.000000  0.000000      1.000000
  0.000000  0.500000  0.000000      1.000000
  0.500000  0.500000  0.000000      1.000000
 
 Following cartesian coordinates:
            Coordinates               Weight
  0.000000  0.000000  0.000000      1.000000
  0.034353  0.000000  0.000000      1.000000
  0.000000  0.034353  0.000000      1.000000
  0.034353  0.034353  0.000000      1.000000
 


--------------------------------------------------------------------------------------------------------




 Dimension of arrays:
   k-points           NKPTS =      4   k-points in BZ     NKDIM =      4   number of bands    NBANDS=    248
   number of dos      NEDOS =   2000   number of ions     NIONS =    109
   non local maximal  LDIM  =      4   non local SUM 2l+1 LMDIM =      8
   total plane-waves  NPLWV = ******
   max r-space proj   IRMAX =      1   max aug-charges    IRDMAX= 416650
   dimension x,y,z NGX =   168 NGY =  168 NGZ =  336
   dimension x,y,z NGXF=   336 NGYF=  336 NGZF=  672
   support grid    NGXF=   672 NGYF=  672 NGZF= 1344
   ions per type =              18  91
   NGX,Y,Z   is equivalent  to a cutoff of  19.19, 19.19, 19.43 a.u.
   NGXF,Y,Z  is equivalent  to a cutoff of  38.38, 38.38, 38.86 a.u.

 SYSTEM =  a-Si SPC                                
 POSCAR =   H Si                                   

 Startparameter for this run:
   NWRITE =      2    write-flag & timer
   PREC   = accura    normal or accurate (medium, high low for compatibility)
   ISTART =      1    job   : 0-new  1-cont  2-samecut
   ICHARG =      1    charge: 1-file 2-atom 10-const
   ISPIN  =      1    spin polarized calculation?
   LNONCOLLINEAR =      F non collinear calculations
   LSORBIT =      F    spin-orbit coupling
   INIWAV =      1    electr: 0-lowe 1-rand  2-diag
   LASPH  =      T    aspherical Exc in radial PAW
 Electronic Relaxation 1
   ENCUT  = 1200.0 eV  88.20 Ry    9.39 a.u.  41.11 41.11 81.20*2*pi/ulx,y,z
   ENINI  = 1200.0     initial cutoff
   ENAUG  =  400.0 eV  augmentation charge cutoff
   NELM   =    150;   NELMIN=  2; NELMDL=  0     # of ELM steps 
   EDIFF  = 0.1E-05   stopping-criterion for ELM
   LREAL  =      F    real-space projection
   NLSPLINE    = F    spline interpolate recip. space projectors
   LCOMPAT=      F    compatible to vasp.4.4
   GGA_COMPAT  = T    GGA compatible to vasp.4.4-vasp.4.6
   LMAXPAW     = -100 max onsite density
   LMAXMIX     =    2 max onsite mixed and CHGCAR
   VOSKOWN=      0    Vosko Wilk Nusair interpolation
   ROPT   =    0.00000   0.00000
 Ionic relaxation
   EDIFFG = -.1E-01   stopping-criterion for IOM
   NSW    =      0    number of steps for IOM
   NBLOCK =      1;   KBLOCK =      1    inner block; outer block 
   IBRION =     -1    ionic relax: 0-MD 1-quasi-New 2-CG
   NFREE  =      0    steps in history (QN), initial steepest desc. (CG)
   ISIF   =      2    stress and relaxation
   IWAVPR =     10    prediction:  0-non 1-charg 2-wave 3-comb
   ISYM   =      1    0-nonsym 1-usesym 2-fastsym
   LCORR  =      T    Harris-Foulkes like correction to forces

   POTIM  = 0.5000    time-step for ionic-motion
   TEIN   =    0.0    initial temperature
   TEBEG  =    0.0;   TEEND  =   0.0 temperature during run
   SMASS  =  -3.00    Nose mass-parameter (am)
   estimated Nose-frequenzy (Omega)   =  0.10E-29 period in steps = 0.13E+47 mass=  -0.484E-26a.u.
   SCALEE = 1.0000    scale energy and forces
   NPACO  =    256;   APACO  = 10.0  distance and # of slots for P.C.
   PSTRESS=    0.0 pullay stress

  Mass of Ions in am
   POMASS =   1.00 28.09
  Ionic Valenz
   ZVAL   =   1.00  4.00
  Atomic Wigner-Seitz radii
   RWIGS  =  -1.00 -1.00
  virtual crystal weights 
   VCA    =   1.00  1.00
   NELECT =     382.0000    total number of electrons
   NUPDOWN=      -1.0000    fix difference up-down

 DOS related values:
   EMIN   =  10.00;   EMAX   =-10.00  energy-range for DOS
   EFERMI =   0.00;   METHOD = LEGACY      
   ISMEAR =     0;   SIGMA  =   0.10  broadening in eV -4-tet -1-fermi 0-gaus
   EFERMI_NEDOS =   21; number of points for ismear=-14 and -15

 Electronic relaxation 2 (details)
   IALGO  =     38    algorithm
   LDIAG  =      F    sub-space diagonalisation (order eigenvalues)
   LSUBROT=      F    optimize rotation matrix (better conditioning)
   TURBO    =      0    0=normal 1=particle mesh
   IRESTART =      0    0=no restart 2=restart with 2 vectors
   NREBOOT  =      0    no. of reboots
   NMIN     =      0    reboot dimension
   EREF     =   0.00    reference energy to select bands
   IMIX   =      4    mixing-type and parameters
     AMIX     =   0.40;   BMIX     =  1.00
     AMIX_MAG =   1.60;   BMIX_MAG =  1.00
     AMIN     =   0.10
     WC   =   100.;   INIMIX=   1;  MIXPRE=   1;  MAXMIX= -45

 Intra band minimization:
   WEIMIN = 0.0000     energy-eigenvalue tresh-hold
   EBREAK =  0.10E-08  absolut break condition
   DEPER  =   0.30     relativ break condition  

   TIME   =   0.40     timestep for ELM

  volume/ion in A,a.u.               =      55.87       377.05
  Fermi-wavevector in a.u.,A,eV,Ry     =   0.650456  1.229184  5.756533  0.423093
  Thomas-Fermi vector in A             =   1.719740

 Write flags
   LWAVE        =      F    write WAVECAR
   LDOWNSAMPLE  =      F    k-point downsampling of WAVECAR
   LCHARG       =      F    write CHGCAR
   LVTOT        =      F    write LOCPOT, total local potential
   LVHAR        =      F    write LOCPOT, Hartree potential only
   WRT_POTENTIAL= false  ! write potential to hdf5 file
   LELF         =      F    write electronic localiz. function (ELF)
   LORBIT       =     11    0 simple, 1 ext, 2 COOP (PROOUT), +10 PAW based schemes


 Python interface
   PLUGINS active      =      F    recompile with -DPLUGINS to activate

 Dipole corrections
   LMONO      =      F    monopole corrections only (constant potential shift)
   LDIPOL     =      F    correct potential (dipole corrections)
   IDIPOL     =      0    1-x, 2-y, 3-z, 4-all directions 
   EPSILON    =  1.0000000 bulk dielectric constant
   LVACPOTAV  =      F  vacuum potentials using an averaging scheme for the charge density
   VACPOTFLAT =  0.1000000 required flatness to determine vacuum potential

Coulomb truncation method
  LTRUNCATE          =      F  Coulomb kernel truncation to be used
  IDIMENSIONALITY    =      3  Dimensionality of cutoff (0 molecules / 2 surfaces)
  ISURFACE           =     -1  Direction of surface normal
  LCOARSEN           =      F  Coarsen the charge grid before padding, preferred


 Exchange correlation treatment:
   METAGGA = SCAN    functional components
   XC_C    = 1    coefficients multiplying the functional components
   LIBXC   =     F    Libxc                    
   VOSKOWN =     0    Vosko Wilk Nusair interpolation
   LHFCALC =     F    Hartree Fock is set to
   LHFONE  =     F    Hartree Fock one center treatment
   AEXX    =    0.0000 exact exchange contribution

 Parameters of functionals:
   SCAN:
     P1 =  0.000000E+00
     P2 =  0.000000E+00
     P3 =  0.000000E+00

 Accuracy and mixing parameters for tau-dependent meta-GGA functionals:
   LMAXTAU = 6
   LMIXTAU = T

 Van der Waals corrections
   IVDW    =     0    specifies the selected vdW correction

 Linear response parameters
   LEPSILON=     F    determine dielectric tensor
   LRPA    =     F    only Hartree local field effects (RPA)
   LNABLA  =     F    use nabla operator in PAW spheres
   LVEL    =     F    velocity operator in full k-point grid
   CSHIFT  =0.1000    complex shift for real part using Kramers Kronig
   OMEGAMAX=  -1.0    maximum frequency
   DEG_THRESHOLD= 0.2000000E-02 threshold for treating states as degnerate
   RTIME   =   -0.100 relaxation time in fs
  (WPLASMAI=    0.000 imaginary part of plasma frequency in eV, 0.658/RTIME)
   DFIELD  = 0.0000000 0.0000000 0.0000000 field for delta impulse in time

  Optional k-point grid parameters
   LKPOINTS_OPT  =     F    use optional k-point grid
   KPOINTS_OPT_MODE=     1    mode for optional k-point grid

 Orbital magnetization related:
   ORBITALMAG=     F  switch on orbital magnetization
   LCHIMAG   =     F  perturbation theory with respect to B field
   DQ        =  0.001000  dq finite difference perturbation B field
   LLRAUG    =     F  two centre corrections for induced B field
   LBONE     =     F  B-component reconstruction in AE one-centre
   LVGVCALC  =     T  calculate vGv susceptibility
   LVGVAPPL  =     F  apply vGv susceptibility instead of pGv for G=0

 Random number generation:
   RANDOM_GENERATOR = DEFAULT
   PCG_SEED         = not used


--------------------------------------------------------------------------------------------------------


 Static calculation
 charge density and potential will be updated during run
 non-spin polarized calculation
 Variant of blocked Davidson
 perform Loewdin sub-space diagonalisation
    ordering is kept fixed
    before iterative eigenvector-optimisation
 modified Broyden-mixing scheme, WC =      100.0
 initial mixing is a Kerker type mixing with AMIX =  0.4000 and BMIX =      1.0000
 Hartree-type preconditioning will be used
 using additional bands           57
 reciprocal scheme for non local part
 use partial core corrections
 calculate Harris-corrections to forces   (improved forces if not selfconsistent)
 use gradient corrections 
 use of overlap-Matrix (Vanderbilt PP)
 Gauss-broadening in eV      SIGMA  =   0.10


--------------------------------------------------------------------------------------------------------


  energy-cutoff  :     1200.00
  volume of cell :     6090.23
      direct lattice vectors                 reciprocal lattice vectors
    14.554980695  0.000000000  0.000000000     0.068705004  0.000000000  0.000000000
     0.000000000 14.554980695  0.000000000     0.000000000  0.068705004  0.000000000
     0.000000000  0.000000000 28.748188000     0.000000000  0.000000000  0.034784801

  length of vectors
    14.554980695 14.554980695 28.748188000     0.068705004  0.068705004  0.034784801



 old parameters found on file WAVECAR:
  energy-cutoff  :     1200.00
  volume of cell :     6090.23
      direct lattice vectors                 reciprocal lattice vectors
    14.554980695  0.000000000  0.000000000     0.068705004  0.000000000  0.000000000
     0.000000000 14.554980695  0.000000000     0.000000000  0.068705004  0.000000000
     0.000000000  0.000000000 28.748188000     0.000000000  0.000000000  0.034784801

  length of vectors


 k-points in units of 2pi/SCALE and weight: read from INCAR                         
   0.00000000  0.00000000  0.00000000       0.250
   0.03435250  0.00000000  0.00000000       0.250
   0.00000000  0.03435250  0.00000000       0.250
   0.03435250  0.03435250  0.00000000       0.250

 k-points in reciprocal lattice and weights: read from INCAR                         
   0.00000000  0.00000000  0.00000000       0.250
   0.50000000  0.00000000  0.00000000       0.250
   0.00000000  0.50000000  0.00000000       0.250
   0.50000000  0.50000000  0.00000000       0.250

 position of ions in fractional coordinates (direct lattice) 
   0.45243239  0.46954668  0.34334368
   0.45504754  0.78009926  0.63687687
   0.64139359  0.53039525  0.42879663
   0.23527514  0.68037784  0.38560363
   0.59219161  0.86973866  0.42421874
   0.48470942  0.74156364  0.36827139
   0.64692589  0.69661635  0.38874911
   0.70515567  0.85085835  0.34038480
   0.35762675  0.59607070  0.36770707
   0.78410340  0.61459958  0.55735477
   0.59832515  0.69313261  0.38083556
   0.54206444  0.85767753  0.57656064
   0.01238274  0.33045684  0.42964066
   0.44497072  0.77122198  0.37432280
   0.41217333  0.81633962  0.43816722
   0.11312782  0.26181233  0.59779158
   0.57676864  0.72565355  0.46926300
   0.79588781  0.36964367  0.40931478
   0.20767589  0.06777520  0.48519961
   0.34717952  0.08269184  0.61666690
   0.79635511  0.79423614  0.60468530
   0.06014223  0.11528787  0.46216965
   0.92652969  0.66916716  0.34431937
   0.25867776  0.44884407  0.46014884
   0.74350727  0.29251051  0.53434465
   0.91811198  0.59765759  0.63742567
   0.38590542  0.56701161  0.64745676
   0.94960041  0.74497337  0.60996792
   0.92303046  0.36424888  0.62947809
   0.09304625  0.83246009  0.52152703
   0.20937321  0.86806992  0.57429632
   0.21735715  0.99187001  0.35622902
   0.57938645  0.22589503  0.41973927
   0.38121213  0.49897063  0.37674072
   0.27139579  0.21333431  0.47084808
   0.01623734  0.18183249  0.59253978
   0.47541738  0.78255843  0.58650533
   0.63905184  0.16510811  0.48933631
   0.15334789  0.67531428  0.41650872
   0.51020789  0.34260742  0.46762497
   0.77522963  0.89270634  0.37126202
   0.40217966  0.25599429  0.51229290
   0.84410484  0.56318246  0.46274421
   0.84781803  0.93383829  0.58226531
   0.84252310  0.41408167  0.56572713
   0.87523036  0.72192069  0.47834880
   0.53534758  0.27053745  0.63041873
   0.45073240  0.97391806  0.64456180
   0.30827387  0.24346683  0.39363299
   0.70679267  0.18984046  0.37029154
   0.83188292  0.27368631  0.40432819
   0.64733240  0.17424262  0.65731637
   0.01592894  0.47995402  0.65668572
   0.72388881  0.03514809  0.39895350
   0.18263646  0.34517210  0.57831500
   0.12637403  0.82901513  0.44213500
   0.12965787  0.49448098  0.59878603
   0.41914891  0.47327680  0.45561319
   0.83662574  0.21209100  0.48163245
   0.07391304  0.86973788  0.62475172
   0.98744491  0.30093954  0.37441039
   0.63925024  0.68349821  0.50410180
   0.49473717  0.12720974  0.51839483
   0.62830117  0.55118456  0.62054612
   0.72064398  0.03162382  0.57987579
   0.68556328  0.53637601  0.47557619
   0.99750401  0.71014673  0.53440347
   0.75860409  0.18661114  0.59779009
   0.80712357  0.05444311  0.46729222
   0.18911243  0.58723685  0.48114010
   0.98725567  0.94969189  0.54059180
   0.21075196  0.14776207  0.35528330
   0.50123118  0.12262348  0.59730777
   0.22405954  0.02785168  0.56589873
   0.46229120  0.02163778  0.45967836
   0.75708896  0.79196473  0.52358878
   0.06443623  0.56485761  0.53235111
   0.89480430  0.21249749  0.64131509
   0.23884071  0.94205622  0.43404184
   0.04629978  0.57690679  0.37680729
   0.37211998  0.88684401  0.46949842
   0.18120192  0.33446531  0.49833550
   0.34021377  0.31804132  0.58314086
   0.71195194  0.94974055  0.50871301
   0.34112711  0.80296550  0.54108857
   0.60313202  0.02386958  0.63674742
   0.25438905  0.59323279  0.60557623
   0.54567129  0.64207371  0.56589899
   0.05689761  0.00517221  0.35374664
   0.07390416  0.03114880  0.59471336
   0.94152796  0.47408210  0.50899246
   0.09674568  0.42760672  0.35273208
   0.60871813  0.96301109  0.44449130
   0.99999053  0.89632409  0.40724181
   0.38328719  0.22956678  0.64694384
   0.89135488  0.53815077  0.38595265
   0.62711340  0.39981220  0.51558009
   0.24961085  0.40167414  0.38226645
   0.78392845  0.55026672  0.59820977
   0.44328320  0.14715638  0.40389952
   0.95578827  0.99728852  0.46514867
   0.02724600  0.35046511  0.48335566
   0.42925203  0.55953150  0.52552720
   0.88545512  0.78787593  0.40002179
   0.41227481  0.45949879  0.58885650
   0.29691045  0.64902627  0.53198293
   0.06353746  0.15850393  0.38231872
   0.56608861  0.41352853  0.59214260
   0.98415179  0.21208098  0.51339195

 position of ions in cartesian coordinates  (Angst):
   6.58514475  6.83424283  9.87050863
   6.62320819 11.35432963 18.30905613
   9.33547132  7.71989265 12.32712617
   3.42442514  9.90288631 11.08540569
   8.61933749 12.65902935 12.19551995
   7.05493621 10.79344446 10.58713520
   9.41599380 10.13923754 11.17583252
  10.26352722 12.38422683  9.78544612
   5.20525047  8.67579748 10.57091195
  11.41260984  8.94548497 16.02293981
   8.70861107 10.08853183 10.94833227
   7.88973752 12.48347993 16.57507353
   0.18023047  4.80979288 12.35139041
   6.47654028 11.22512107 10.76110213
   5.99917483 11.88180738 12.59651367
   1.64657327  3.81067341 17.18542465
   8.39485640 10.56187334 13.49046097
  11.58413178  5.38015644 11.76705811
   3.02271856  0.98646672 13.94860972
   5.05319115  1.20357807 17.72805597
  11.59093321 11.56009172 17.38360665
   0.87536904  1.67801265 13.28654005
  13.48562180  9.73971505  9.89855808
   3.76504979  6.53291676 13.22844549
  10.82173400  4.25748484 15.36144056
  13.36310208  8.69889468 18.32483288
   5.61684597  8.25284303 18.61320870
  13.82141569 10.84307298 17.53547252
  13.43469053  5.30163535 18.09635444
   1.35428630 12.11644060 14.99295701
   3.04742305 12.63474098 16.50997870
   3.16362913 14.43664881 10.24093877
   8.43295865  3.28789775 12.06674350
   5.54853521  7.26250782 10.83061309
   3.95016054  3.10507670 13.53602900
   0.23633420  2.64656832 17.03444492
   6.91969084 11.39012288 16.86096556
   9.30138726  2.40314538 14.06753217
   2.23197554  9.82918638 11.97387088
   7.42606599  4.98664437 13.44337046
  11.28345227 12.99332357 10.67311040
   5.85371717  3.72599197 14.72749263
  12.28592961  8.19710987 13.30305767
  12.33997508 13.59199826 16.73907274
  12.26290749  6.02695070 16.26362985
  12.73896100 10.50754173 13.75166112
   7.79197375  3.93766738 18.12339612
   6.56040132 14.17535858 18.52998384
   4.48692021  3.54365506 11.31623527
  10.28735373  2.76312429 10.64521078
  12.10803987  3.98349895 11.62370270
   9.42191056  2.53609804 18.89665451
   0.23184534  6.98572156 18.87852456
  10.53618768  0.51157978 11.46919026
   2.65827022  5.02397327 16.62550844
   1.83937156 12.06629917 12.71058010
   1.88716775  7.19716116 17.21401334
   6.10070430  6.88853476 13.09805369
  12.17707156  3.08698040 13.84606018
   1.07580292 12.65901799 17.96047981
  14.37224160  4.38016926 10.76362042
   9.30427496  9.94830328 14.49201319
   7.20088993  1.85153538 14.90291193
   9.14491134  8.02248056 17.83957648
  10.48895926  0.46028409 16.67037830
   9.97836031  7.80694250 13.67195379
  14.51865159 10.33617199 15.36313155
  11.04146789  2.71612150 17.18538192
  11.74766793  0.79241840 13.43380466
   2.75252779  8.54722099 13.83190607
  14.36948720 13.82274706 15.54103481
   3.06749065  2.15067410 10.21375112
   7.29541014  1.78478232 17.17151617
   3.26118232  0.40538060 16.26856318
   6.72863942  0.31493752 13.21492001
  11.01941526 11.52703131 15.05222875
   0.93786803  8.22149165 15.30412991
  13.02385932  3.09289687 18.43664668
   3.47632187 13.71161009 12.47791643
   0.67389247  8.39686720 10.83252689
   5.41619917 12.90799746 13.49722883
   2.63739039  4.86813611 14.32624251
   4.95180480  4.62908532 16.76424296
  10.36244673 13.82345536 14.62457737
   4.96509852 11.68714732 15.55531592
   8.77857492  0.34742130 18.30533454
   3.70262767  8.63449185 17.40921941
   7.94223514  9.34537048 16.26857047
   0.82814355  0.07528141 10.16957500
   1.07567362  0.45337022 17.09693143
  13.70392135  6.90025582 14.63261086
   1.40813156  6.22380761 10.14040815
   8.85988068 14.01660777 12.77831959
  14.55484291 13.04597976 11.70746416
   5.57873763  3.34134001 18.59846319
  12.97365300  7.83277413 11.09543925
   9.12762346  5.81925880 14.82199342
   3.63308106  5.84635933 10.98946767
  11.41006346  8.00912144 17.19744681
   6.45197838  2.14185833 11.61137934
  13.91147975 14.51551519 13.37218151
   0.39656504  5.10101288 13.89559952
   6.24775503  8.14397024 15.10795465
  12.88778220 11.46751890 11.49990167
   6.00065190  6.68799597 16.92855729
   4.32152593  9.44656482 15.29354538
   0.92478647  2.30702161 10.99097057
   8.23940885  6.01889970 17.02302683
  14.32431036  3.08683450 14.75908840



--------------------------------------------------------------------------------------------------------


 k-point     1 :   0.0000 0.0000 0.0000  plane waves:  574451
 k-point     2 :   0.5000 0.0000 0.0000  plane waves:  574926
 k-point     3 :   0.0000 0.5000 0.0000  plane waves:  574926
 k-point     4 :   0.5000 0.5000 0.0000  plane waves:  574940

 maximum and minimum number of plane-waves per node :     35981    35834

 maximum number of plane-waves:    574940
 maximum index in each direction: 
   IXMAX=   41   IYMAX=   41   IZMAX=   81
   IXMIN=  -41   IYMIN=  -41   IZMIN=  -81


 parallel 3D FFT for wavefunctions:
    minimum data exchange during FFTs selected (reduces bandwidth)
 parallel 3D FFT for charge:
    minimum data exchange during FFTs selected (reduces bandwidth)


 total amount of memory used by VASP MPI-rank0   385089. kBytes
=======================================================================

   base                                    :      30000. kBytes
   nonl-proj                               :      81143. kBytes
   fftplans                                :     114270. kBytes
   grid                                    :      88184. kBytes
   one-center                              :         21. kBytes
   wavefun                                 :      71471. kBytes

     INWAV:  cpu time     20.3988: real time     20.4126
 Broyden mixing: mesh for mixing (old mesh)
   NGX = 83   NGY = 83   NGZ =163
  (NGX  =336   NGY  =336   NGZ  =672)
  gives a total of ****** points

 initial charge density was supplied:
 number of electron     381.9999999 magnetization 
 keeping initial charge density in first step


--------------------------------------------------------------------------------------------------------


 Maximum index for augmentation-charges        11429 (set IRDMAX)


--------------------------------------------------------------------------------------------------------


 First call to EWALD:  gamma=   0.097
 Maximum number of real-space cells   3x   3x   2
 Maximum number of reciprocal cells   2x   2x   4

    FEWALD:  cpu time      0.0163: real time      0.0163


--------------------------------------- Ionic step        1  -------------------------------------------




--------------------------------------- Iteration      1(   1)  ---------------------------------------


    POTLOK:  cpu time      2.2666: real time      2.2681
    SETDIJ:  cpu time      1.7854: real time      1.7866
    EDDIAG:  cpu time     41.6310: real time     41.6547
     EDDAV:  cpu time    195.0816: real time    195.1878
       DOS:  cpu time      0.0076: real time      0.0077
    CHARGE:  cpu time     24.3603: real time     24.3816
    MIXING:  cpu time      0.0508: real time      0.0516
    --------------------------------------------
      LOOP:  cpu time    265.1835: real time    265.3381

 eigenvalue-minimisations  :  1984
 total energy-change (2. order) :-0.9842469E+03  (-0.1082402E+01)
 number of electron     381.9999999 magnetization 
 augmentation part      -20.2833756 magnetization 

 Broyden mixing:
  rms(total) = 0.11854E+01    rms(broyden)= 0.11854E+01
  rms(prec ) = 0.11872E+01
  weight for this iteration     100.00

 Free energy of the ion-electron system (eV)
  ---------------------------------------------------
  alpha Z        PSCENC =        50.78633987
  Ewald energy   TEWEN  =     60610.85790576
  -Hartree energ DENC   =    -69124.85884213
  -exchange      EXHF   =         0.00000000
  -V(xc)+E(xc)   XCENC  =      -391.18200705
  PAW double counting   =     34909.62800534   -34002.73054710
  entropy T*S    EENTRO =        -0.23813197
  eigenvalues    EBANDS =     -2640.38218563
  atomic energy  EATOM  =      9603.87257323
  Solvation  Ediel_sol  =         0.00000000
  ---------------------------------------------------
  free energy    TOTEN  =      -984.24688968 eV

  energy without entropy =     -984.00875771  energy(sigma->0) =     -984.12782369


--------------------------------------------------------------------------------------------------------




--------------------------------------- Iteration      1(   2)  ---------------------------------------


    POTLOK:  cpu time      2.2242: real time      2.2411
    SETDIJ:  cpu time      1.7768: real time      1.7779
    EDDIAG:  cpu time     41.6598: real time     41.6853
     EDDAV:  cpu time    196.7688: real time    196.8832
       DOS:  cpu time      0.0025: real time      0.0025
    CHARGE:  cpu time     24.2504: real time     24.2718
    MIXING:  cpu time      0.0447: real time      0.0450
    --------------------------------------------
      LOOP:  cpu time    266.7274: real time    266.9068

 eigenvalue-minimisations  :  2016
 total energy-change (2. order) : 0.6761545E+02  (-0.1052652E+01)
 number of electron     381.9999999 magnetization 
 augmentation part      -20.2079559 magnetization 

 Broyden mixing:
  rms(total) = 0.80669E+00    rms(broyden)= 0.80669E+00
  rms(prec ) = 0.80898E+00
  weight for this iteration     100.00

 eigenvalues of (default mixing * dielectric matrix)
  average eigenvalue GAMMA=   2.6299
  2.6299

 Free energy of the ion-electron system (eV)
  ---------------------------------------------------
  alpha Z        PSCENC =        50.78633987
  Ewald energy   TEWEN  =     60610.85790576
  -Hartree energ DENC   =    -69110.39328361
  -exchange      EXHF   =         0.00000000
  -V(xc)+E(xc)   XCENC  =      -381.89649536
  PAW double counting   =     41649.77162013   -40742.62455208
  entropy T*S    EENTRO =        -0.21555368
  eigenvalues    EBANDS =     -2596.78999398
  atomic energy  EATOM  =      9603.87257323
  Solvation  Ediel_sol  =         0.00000000
  ---------------------------------------------------
  free energy    TOTEN  =      -916.63143971 eV

  energy without entropy =     -916.41588604  energy(sigma->0) =     -916.52366287


--------------------------------------------------------------------------------------------------------




--------------------------------------- Iteration      1(   3)  ---------------------------------------


    POTLOK:  cpu time      2.2329: real time      2.2380
    SETDIJ:  cpu time      1.7696: real time      1.7708
    EDDIAG:  cpu time     41.6432: real time     41.6690
     EDDAV:  cpu time    195.1124: real time    195.2193
       DOS:  cpu time      0.0064: real time      0.0064
    CHARGE:  cpu time     24.2234: real time     24.2466
    MIXING:  cpu time      0.0424: real time      0.0424
    --------------------------------------------
      LOOP:  cpu time    265.0302: real time    265.1924

 eigenvalue-minimisations  :  1992
 total energy-change (2. order) :-0.2855179E+01  (-0.8956859E+00)
 number of electron     381.9999999 magnetization 
 augmentation part      -20.1312263 magnetization 

 Broyden mixing:
  rms(total) = 0.19670E+00    rms(broyden)= 0.19670E+00
  rms(prec ) = 0.26328E+00
  weight for this iteration     100.00

 eigenvalues of (default mixing * dielectric matrix)
  average eigenvalue GAMMA=   1.7187
  0.7824  2.6550

 Free energy of the ion-electron system (eV)
  ---------------------------------------------------
  alpha Z        PSCENC =        50.78633987
  Ewald energy   TEWEN  =     60610.85790576
  -Hartree energ DENC   =    -69112.54818612
  -exchange      EXHF   =         0.00000000
  -V(xc)+E(xc)   XCENC  =      -384.69570838
  PAW double counting   =     54644.15219259   -53737.24278518
  entropy T*S    EENTRO =        -0.24422594
  eigenvalues    EBANDS =     -2594.42472469
  atomic energy  EATOM  =      9603.87257323
  Solvation  Ediel_sol  =         0.00000000
  ---------------------------------------------------
  free energy    TOTEN  =      -919.48661886 eV

  energy without entropy =     -919.24239292  energy(sigma->0) =     -919.36450589


--------------------------------------------------------------------------------------------------------




--------------------------------------- Iteration      1(   4)  ---------------------------------------


    POTLOK:  cpu time      2.2303: real time      2.2469
    SETDIJ:  cpu time      1.7726: real time      1.7738
    EDDIAG:  cpu time     41.6414: real time     41.6679
     EDDAV:  cpu time    211.2415: real time    211.3556
       DOS:  cpu time      0.0124: real time      0.0126
    CHARGE:  cpu time     24.2267: real time     24.2488
    MIXING:  cpu time      0.0584: real time      0.0584
    --------------------------------------------
      LOOP:  cpu time    281.1833: real time    281.3639

 eigenvalue-minimisations  :  2280
 total energy-change (2. order) :-0.1721941E+00  (-0.1816857E+00)
 number of electron     381.9999999 magnetization 
 augmentation part      -20.1386456 magnetization 

 Broyden mixing:
  rms(total) = 0.12408E+00    rms(broyden)= 0.12408E+00
  rms(prec ) = 0.18873E+00
  weight for this iteration     100.00

 eigenvalues of (default mixing * dielectric matrix)
  average eigenvalue GAMMA=   1.3397
  2.5833  0.9739  0.4619

 Free energy of the ion-electron system (eV)
  ---------------------------------------------------
  alpha Z        PSCENC =        50.78633987
  Ewald energy   TEWEN  =     60610.85790576
  -Hartree energ DENC   =    -69113.03368122
  -exchange      EXHF   =         0.00000000
  -V(xc)+E(xc)   XCENC  =      -386.86594037
  PAW double counting   =     55591.59828476   -54684.65931044
  entropy T*S    EENTRO =        -0.21284491
  eigenvalues    EBANDS =     -2592.00213961
  atomic energy  EATOM  =      9603.87257323
  Solvation  Ediel_sol  =         0.00000000
  ---------------------------------------------------
  free energy    TOTEN  =      -919.65881293 eV

  energy without entropy =     -919.44596802  energy(sigma->0) =     -919.55239047


--------------------------------------------------------------------------------------------------------




--------------------------------------- Iteration      1(   5)  ---------------------------------------


    POTLOK:  cpu time      2.2408: real time      2.2441
    SETDIJ:  cpu time      1.7863: real time      1.7875
    EDDIAG:  cpu time     41.6211: real time     41.6488
     EDDAV:  cpu time    209.7700: real time    209.8857
       DOS:  cpu time      0.0029: real time      0.0029
    CHARGE:  cpu time     24.2364: real time     24.2591
    MIXING:  cpu time      0.0425: real time      0.0425
    --------------------------------------------
      LOOP:  cpu time    279.7002: real time    279.8708

 eigenvalue-minimisations  :  2256
 total energy-change (2. order) : 0.4164737E-02  (-0.5308048E-01)
 number of electron     381.9999999 magnetization 
 augmentation part      -20.1394423 magnetization 

 Broyden mixing:
  rms(total) = 0.79871E-01    rms(broyden)= 0.79871E-01
  rms(prec ) = 0.12160E+00
  weight for this iteration     100.00

 eigenvalues of (default mixing * dielectric matrix)
  average eigenvalue GAMMA=   1.1352
  2.5470  1.1025  0.5690  0.3222

 Free energy of the ion-electron system (eV)
  ---------------------------------------------------
  alpha Z        PSCENC =        50.78633987
  Ewald energy   TEWEN  =     60610.85790576
  -Hartree energ DENC   =    -69114.84019881
  -exchange      EXHF   =         0.00000000
  -V(xc)+E(xc)   XCENC  =      -387.84034813
  PAW double counting   =     55316.10565003   -54409.14135354
  entropy T*S    EENTRO =        -0.22213384
  eigenvalues    EBANDS =     -2589.23308277
  atomic energy  EATOM  =      9603.87257323
  Solvation  Ediel_sol  =         0.00000000
  ---------------------------------------------------
  free energy    TOTEN  =      -919.65464819 eV

  energy without entropy =     -919.43251435  energy(sigma->0) =     -919.54358127


--------------------------------------------------------------------------------------------------------




--------------------------------------- Iteration      1(   6)  ---------------------------------------


    POTLOK:  cpu time      2.2216: real time      2.2395
    SETDIJ:  cpu time      1.7671: real time      1.7686
    EDDIAG:  cpu time     41.6425: real time     41.6691
     EDDAV:  cpu time    202.1469: real time    202.2509
       DOS:  cpu time      0.0020: real time      0.0020
    CHARGE:  cpu time     24.2204: real time     24.2643
    MIXING:  cpu time      0.0436: real time      0.0437
    --------------------------------------------
      LOOP:  cpu time    272.0441: real time    272.2379

 eigenvalue-minimisations  :  2112
 total energy-change (2. order) : 0.1756179E-01  (-0.1380922E-01)
 number of electron     381.9999999 magnetization 
 augmentation part      -20.1389762 magnetization 

 Broyden mixing:
  rms(total) = 0.38742E-01    rms(broyden)= 0.38742E-01
  rms(prec ) = 0.44177E-01
  weight for this iteration     100.00

 eigenvalues of (default mixing * dielectric matrix)
  average eigenvalue GAMMA=   1.1020
  2.4979  1.4552  0.7593  0.5039  0.2935

 Free energy of the ion-electron system (eV)
  ---------------------------------------------------
  alpha Z        PSCENC =        50.78633987
  Ewald energy   TEWEN  =     60610.85790576
  -Hartree energ DENC   =    -69115.37649016
  -exchange      EXHF   =         0.00000000
  -V(xc)+E(xc)   XCENC  =      -388.07722710
  PAW double counting   =     55187.04501551   -54280.06744470
  entropy T*S    EENTRO =        -0.22441695
  eigenvalues    EBANDS =     -2588.45334186
  atomic energy  EATOM  =      9603.87257323
  Solvation  Ediel_sol  =         0.00000000
  ---------------------------------------------------
  free energy    TOTEN  =      -919.63708640 eV

  energy without entropy =     -919.41266945  energy(sigma->0) =     -919.52487792


--------------------------------------------------------------------------------------------------------




--------------------------------------- Iteration      1(   7)  ---------------------------------------


    POTLOK:  cpu time      2.2226: real time      2.2465
    SETDIJ:  cpu time      1.7769: real time      1.7782
    EDDIAG:  cpu time     41.6344: real time     41.6615
     EDDAV:  cpu time    200.0739: real time    200.1788
       DOS:  cpu time      0.0031: real time      0.0031
    CHARGE:  cpu time     24.2462: real time     24.2683
    MIXING:  cpu time      0.0453: real time      0.0453
    --------------------------------------------
      LOOP:  cpu time    270.0023: real time    270.1817

 eigenvalue-minimisations  :  2080
 total energy-change (2. order) :-0.1585752E-02  (-0.3329647E-02)
 number of electron     381.9999999 magnetization 
 augmentation part      -20.1372314 magnetization 

 Broyden mixing:
  rms(total) = 0.25281E-01    rms(broyden)= 0.25281E-01
  rms(prec ) = 0.27133E-01
  weight for this iteration     100.00

 eigenvalues of (default mixing * dielectric matrix)
  average eigenvalue GAMMA=   1.1622
  2.3825  2.1542  0.8385  0.8385  0.4756  0.2841

 Free energy of the ion-electron system (eV)
  ---------------------------------------------------
  alpha Z        PSCENC =        50.78633987
  Ewald energy   TEWEN  =     60610.85790576
  -Hartree energ DENC   =    -69114.82740705
  -exchange      EXHF   =         0.00000000
  -V(xc)+E(xc)   XCENC  =      -387.98714681
  PAW double counting   =     55126.25865955   -54219.26462587
  entropy T*S    EENTRO =        -0.22509867
  eigenvalues    EBANDS =     -2589.10987216
  atomic energy  EATOM  =      9603.87257323
  Solvation  Ediel_sol  =         0.00000000
  ---------------------------------------------------
  free energy    TOTEN  =      -919.63867215 eV

  energy without entropy =     -919.41357348  energy(sigma->0) =     -919.52612282


--------------------------------------------------------------------------------------------------------




--------------------------------------- Iteration      1(   8)  ---------------------------------------


    POTLOK:  cpu time      2.2267: real time      2.2458
    SETDIJ:  cpu time      1.7741: real time      1.7750
    EDDIAG:  cpu time     41.6280: real time     41.6540
     EDDAV:  cpu time    210.7394: real time    210.8541
       DOS:  cpu time      0.0034: real time      0.0034
    CHARGE:  cpu time     24.2543: real time     24.2757
    MIXING:  cpu time      0.0432: real time      0.0442
    --------------------------------------------
      LOOP:  cpu time    280.6691: real time    280.8521

 eigenvalue-minimisations  :  2272
 total energy-change (2. order) :-0.1090549E-02  (-0.6353819E-03)
 number of electron     381.9999999 magnetization 
 augmentation part      -20.1354732 magnetization 

 Broyden mixing:
  rms(total) = 0.13701E-01    rms(broyden)= 0.13701E-01
  rms(prec ) = 0.15782E-01
  weight for this iteration     100.00

 eigenvalues of (default mixing * dielectric matrix)
  average eigenvalue GAMMA=   1.1983
  2.5935  2.5935  0.9267  0.9078  0.6103  0.4696  0.2867

 Free energy of the ion-electron system (eV)
  ---------------------------------------------------
  alpha Z        PSCENC =        50.78633987
  Ewald energy   TEWEN  =     60610.85790576
  -Hartree energ DENC   =    -69114.85109153
  -exchange      EXHF   =         0.00000000
  -V(xc)+E(xc)   XCENC  =      -387.79631338
  PAW double counting   =     55115.83613985   -54208.82496469
  entropy T*S    EENTRO =        -0.22388272
  eigenvalues    EBANDS =     -2589.29646910
  atomic energy  EATOM  =      9603.87257323
  Solvation  Ediel_sol  =         0.00000000
  ---------------------------------------------------
  free energy    TOTEN  =      -919.63976270 eV

  energy without entropy =     -919.41587998  energy(sigma->0) =     -919.52782134


--------------------------------------------------------------------------------------------------------




--------------------------------------- Iteration      1(   9)  ---------------------------------------


    POTLOK:  cpu time      2.2225: real time      2.2416
    SETDIJ:  cpu time      1.7664: real time      1.7673
    EDDIAG:  cpu time     41.6261: real time     41.6513
     EDDAV:  cpu time    201.8489: real time    201.9580
       DOS:  cpu time      0.0021: real time      0.0021
    CHARGE:  cpu time     24.2577: real time     24.2776
    MIXING:  cpu time      0.0456: real time      0.0456
    --------------------------------------------
      LOOP:  cpu time    271.7693: real time    271.9436

 eigenvalue-minimisations  :  2112
 total energy-change (2. order) :-0.6430079E-03  (-0.3673087E-03)
 number of electron     381.9999999 magnetization 
 augmentation part      -20.1340315 magnetization 

 Broyden mixing:
  rms(total) = 0.59720E-02    rms(broyden)= 0.59720E-02
  rms(prec ) = 0.77574E-02
  weight for this iteration     100.00

 eigenvalues of (default mixing * dielectric matrix)
  average eigenvalue GAMMA=   1.1593
  2.5982  2.5982  1.1398  0.9404  0.7403  0.2871  0.4852  0.4852

 Free energy of the ion-electron system (eV)
  ---------------------------------------------------
  alpha Z        PSCENC =        50.78633987
  Ewald energy   TEWEN  =     60610.85790576
  -Hartree energ DENC   =    -69114.66092860
  -exchange      EXHF   =         0.00000000
  -V(xc)+E(xc)   XCENC  =      -387.65285905
  PAW double counting   =     55145.04015503   -54238.01547854
  entropy T*S    EENTRO =        -0.22502532
  eigenvalues    EBANDS =     -2589.64308808
  atomic energy  EATOM  =      9603.87257323
  Solvation  Ediel_sol  =         0.00000000
  ---------------------------------------------------
  free energy    TOTEN  =      -919.64040571 eV

  energy without entropy =     -919.41538039  energy(sigma->0) =     -919.52789305


--------------------------------------------------------------------------------------------------------




--------------------------------------- Iteration      1(  10)  ---------------------------------------


    POTLOK:  cpu time      2.2364: real time      2.2395
    SETDIJ:  cpu time      1.7700: real time      1.7706
    EDDIAG:  cpu time     41.6281: real time     41.6522
     EDDAV:  cpu time    198.8951: real time    199.0042
       DOS:  cpu time      0.0044: real time      0.0044
    CHARGE:  cpu time     24.2610: real time     24.2819
    MIXING:  cpu time      0.0470: real time      0.0470
    --------------------------------------------
      LOOP:  cpu time    268.8420: real time    268.9998

 eigenvalue-minimisations  :  2056
 total energy-change (2. order) :-0.2150551E-04  (-0.1358731E-03)
 number of electron     381.9999999 magnetization 
 augmentation part      -20.1342901 magnetization 

 Broyden mixing:
  rms(total) = 0.28675E-02    rms(broyden)= 0.28675E-02
  rms(prec ) = 0.33808E-02
  weight for this iteration     100.00

 eigenvalues of (default mixing * dielectric matrix)
  average eigenvalue GAMMA=   1.1473
  2.6414  2.6414  1.3613  0.9777  0.8214  0.6802  0.2870  0.4576  0.4576

 Free energy of the ion-electron system (eV)
  ---------------------------------------------------
  alpha Z        PSCENC =        50.78633987
  Ewald energy   TEWEN  =     60610.85790576
  -Hartree energ DENC   =    -69114.74126754
  -exchange      EXHF   =         0.00000000
  -V(xc)+E(xc)   XCENC  =      -387.67979715
  PAW double counting   =     55152.99181875   -54245.96398525
  entropy T*S    EENTRO =        -0.22477441
  eigenvalues    EBANDS =     -2589.53924045
  atomic energy  EATOM  =      9603.87257323
  Solvation  Ediel_sol  =         0.00000000
  ---------------------------------------------------
  free energy    TOTEN  =      -919.64042721 eV

  energy without entropy =     -919.41565280  energy(sigma->0) =     -919.52804001


--------------------------------------------------------------------------------------------------------




--------------------------------------- Iteration      1(  11)  ---------------------------------------


    POTLOK:  cpu time      2.2928: real time      2.3121
    SETDIJ:  cpu time      1.7729: real time      1.7741
    EDDIAG:  cpu time     41.6562: real time     41.6801
     EDDAV:  cpu time    201.1635: real time    201.2770
       DOS:  cpu time      0.0031: real time      0.0032
    CHARGE:  cpu time     24.2491: real time     24.2708
    MIXING:  cpu time      0.0473: real time      0.0474
    --------------------------------------------
      LOOP:  cpu time    271.1849: real time    271.3647

 eigenvalue-minimisations  :  2096
 total energy-change (2. order) :-0.4432399E-04  (-0.5399815E-04)
 number of electron     381.9999999 magnetization 
 augmentation part      -20.1342775 magnetization 

 Broyden mixing:
  rms(total) = 0.16600E-02    rms(broyden)= 0.16600E-02
  rms(prec ) = 0.18984E-02
  weight for this iteration     100.00

 eigenvalues of (default mixing * dielectric matrix)
  average eigenvalue GAMMA=   1.1612
  2.7198  2.7198  1.6872  1.0287  0.8176  0.8176  0.2870  0.6054  0.4645  0.4645

 Free energy of the ion-electron system (eV)
  ---------------------------------------------------
  alpha Z        PSCENC =        50.78633987
  Ewald energy   TEWEN  =     60610.85790576
  -Hartree energ DENC   =    -69114.58494080
  -exchange      EXHF   =         0.00000000
  -V(xc)+E(xc)   XCENC  =      -387.68474984
  PAW double counting   =     55146.73161029   -54239.70145165
  entropy T*S    EENTRO =        -0.22461882
  eigenvalues    EBANDS =     -2589.69313959
  atomic energy  EATOM  =      9603.87257323
  Solvation  Ediel_sol  =         0.00000000
  ---------------------------------------------------
  free energy    TOTEN  =      -919.64047154 eV

  energy without entropy =     -919.41585272  energy(sigma->0) =     -919.52816213


--------------------------------------------------------------------------------------------------------




--------------------------------------- Iteration      1(  12)  ---------------------------------------


    POTLOK:  cpu time      2.3033: real time      2.3143
    SETDIJ:  cpu time      1.7798: real time      1.7812
    EDDIAG:  cpu time     41.6365: real time     41.6613
     EDDAV:  cpu time    206.8735: real time    206.9839
       DOS:  cpu time      0.0041: real time      0.0041
    CHARGE:  cpu time     24.2470: real time     24.2668
    MIXING:  cpu time      0.0484: real time      0.0484
    --------------------------------------------
      LOOP:  cpu time    276.8926: real time    277.0600

 eigenvalue-minimisations  :  2200
 total energy-change (2. order) :-0.4384189E-04  (-0.1941731E-04)
 number of electron     381.9999999 magnetization 
 augmentation part      -20.1343945 magnetization 

 Broyden mixing:
  rms(total) = 0.90979E-03    rms(broyden)= 0.90979E-03
  rms(prec ) = 0.11175E-02
  weight for this iteration     100.00

 eigenvalues of (default mixing * dielectric matrix)
  average eigenvalue GAMMA=   1.1848
  2.8251  2.8251  2.0709  1.1061  0.9016  0.9016  0.2870  0.5927  0.5927  0.4647
  0.4647

 Free energy of the ion-electron system (eV)
  ---------------------------------------------------
  alpha Z        PSCENC =        50.78633987
  Ewald energy   TEWEN  =     60610.85790576
  -Hartree energ DENC   =    -69114.43296760
  -exchange      EXHF   =         0.00000000
  -V(xc)+E(xc)   XCENC  =      -387.69174367
  PAW double counting   =     55142.06317433   -54235.03145803
  entropy T*S    EENTRO =        -0.22470585
  eigenvalues    EBANDS =     -2589.83963341
  atomic energy  EATOM  =      9603.87257323
  Solvation  Ediel_sol  =         0.00000000
  ---------------------------------------------------
  free energy    TOTEN  =      -919.64051538 eV

  energy without entropy =     -919.41580953  energy(sigma->0) =     -919.52816246


--------------------------------------------------------------------------------------------------------




--------------------------------------- Iteration      1(  13)  ---------------------------------------


    POTLOK:  cpu time      2.2254: real time      2.2440
    SETDIJ:  cpu time      1.7755: real time      1.7769
    EDDIAG:  cpu time     41.6203: real time     41.6467
     EDDAV:  cpu time    198.3828: real time    198.4927
       DOS:  cpu time      0.0021: real time      0.0021
    CHARGE:  cpu time     24.2280: real time     24.2497
    MIXING:  cpu time      0.0503: real time      0.0503
    --------------------------------------------
      LOOP:  cpu time    268.2844: real time    268.4624

 eigenvalue-minimisations  :  2048
 total energy-change (2. order) :-0.7670643E-04  (-0.1295807E-04)
 number of electron     381.9999999 magnetization 
 augmentation part      -20.1344360 magnetization 

 Broyden mixing:
  rms(total) = 0.47002E-03    rms(broyden)= 0.47002E-03
  rms(prec ) = 0.63296E-03
  weight for this iteration     100.00

 eigenvalues of (default mixing * dielectric matrix)
  average eigenvalue GAMMA=   1.1797
  2.9014  2.9014  2.1327  1.2461  0.8879  0.8478  0.8478  0.2870  0.4639  0.4639
  0.6005  0.5759

 Free energy of the ion-electron system (eV)
  ---------------------------------------------------
  alpha Z        PSCENC =        50.78633987
  Ewald energy   TEWEN  =     60610.85790576
  -Hartree energ DENC   =    -69114.28034689
  -exchange      EXHF   =         0.00000000
  -V(xc)+E(xc)   XCENC  =      -387.70055201
  PAW double counting   =     55139.24164294   -54232.20923779
  entropy T*S    EENTRO =        -0.22466547
  eigenvalues    EBANDS =     -2589.98425173
  atomic energy  EATOM  =      9603.87257323
  Solvation  Ediel_sol  =         0.00000000
  ---------------------------------------------------
  free energy    TOTEN  =      -919.64059209 eV

  energy without entropy =     -919.41592661  energy(sigma->0) =     -919.52825935


--------------------------------------------------------------------------------------------------------




--------------------------------------- Iteration      1(  14)  ---------------------------------------


    POTLOK:  cpu time      2.2535: real time      2.2553
    SETDIJ:  cpu time      1.7720: real time      1.7728
    EDDIAG:  cpu time     41.6266: real time     41.6567
     EDDAV:  cpu time    198.4711: real time    198.5784
       DOS:  cpu time      0.0054: real time      0.0054
    CHARGE:  cpu time     24.1965: real time     24.2794
    MIXING:  cpu time      0.0507: real time      0.0507
    --------------------------------------------
      LOOP:  cpu time    268.3759: real time    268.5988

 eigenvalue-minimisations  :  2048
 total energy-change (2. order) :-0.7597138E-04  (-0.8931283E-05)
 number of electron     381.9999999 magnetization 
 augmentation part      -20.1344788 magnetization 

 Broyden mixing:
  rms(total) = 0.29911E-03    rms(broyden)= 0.29911E-03
  rms(prec ) = 0.41391E-03
  weight for this iteration     100.00

 eigenvalues of (default mixing * dielectric matrix)
  average eigenvalue GAMMA=   1.2036
  3.0815  2.8297  2.2171  1.6695  0.9713  0.9713  0.9258  0.2870  0.6300  0.6300
  0.4659  0.4659  0.5022

 Free energy of the ion-electron system (eV)
  ---------------------------------------------------
  alpha Z        PSCENC =        50.78633987
  Ewald energy   TEWEN  =     60610.85790576
  -Hartree energ DENC   =    -69114.17589944
  -exchange      EXHF   =         0.00000000
  -V(xc)+E(xc)   XCENC  =      -387.70304755
  PAW double counting   =     55138.97113005   -54231.93858358
  entropy T*S    EENTRO =        -0.22469720
  eigenvalues    EBANDS =     -2590.08638919
  atomic energy  EATOM  =      9603.87257323
[...]
   0.371E+02 0.408E+02 -.112E+02   -.368E+02 -.400E+02 0.948E+01   -.370E+00 -.623E+00 0.144E+01   0.148E-04 -.883E-05 0.336E-04
   -.250E+02 -.715E+01 -.873E+02   0.248E+02 0.536E+01 0.883E+02   0.221E+00 0.171E+01 -.918E+00   -.270E-04 -.334E-04 0.189E-04
   -.197E+02 0.759E+02 -.339E+03   0.198E+02 -.745E+02 0.339E+03   0.797E-01 -.163E+01 0.776E+00   0.283E-04 -.171E-04 0.970E-05
   0.153E+02 -.423E+02 -.290E+03   -.126E+02 0.412E+02 0.291E+03   -.236E+01 0.107E+01 -.407E+00   0.314E-04 -.172E-04 0.248E-04
   -.545E+01 -.323E+02 -.162E+03   0.623E+01 0.329E+02 0.160E+03   -.637E+00 -.809E+00 0.188E+01   -.135E-04 -.358E-04 0.307E-04
   0.321E+02 0.244E+02 0.387E+03   -.306E+02 -.245E+02 -.387E+03   -.163E+01 -.118E+00 -.492E+00   0.374E-04 0.829E-05 0.345E-04
   -.424E+01 -.128E+02 -.293E+03   0.473E+01 0.127E+02 0.289E+03   -.539E+00 0.999E-01 0.357E+01   -.378E-05 -.201E-04 0.144E-04
   0.134E+02 -.656E+01 0.551E+01   -.131E+02 0.749E+01 -.528E+01   -.334E+00 -.777E+00 -.317E+00   0.713E-05 0.911E-05 0.196E-04
   -.185E+00 -.782E+01 0.370E+03   0.876E+00 0.101E+02 -.372E+03   -.108E+01 -.174E+01 0.210E+01   0.218E-05 0.922E-05 0.113E-04
   0.334E+02 0.431E+02 0.178E+03   -.339E+02 -.450E+02 -.179E+03   0.488E+00 0.165E+01 0.206E+00   -.169E-04 0.512E-05 0.285E-04
   0.998E+01 0.216E+02 0.275E+03   -.968E+01 -.216E+02 -.273E+03   -.363E+00 0.753E-01 -.176E+01   0.266E-04 -.274E-04 0.537E-04
   0.471E+02 -.777E+01 -.387E+03   -.476E+02 0.922E+01 0.387E+03   0.130E+00 -.122E+01 -.262E+00   -.112E-04 0.405E-04 -.177E-04
   0.643E+02 0.283E+02 0.305E+03   -.637E+02 -.283E+02 -.307E+03   -.110E+01 -.383E+00 0.137E+01   0.166E-04 -.131E-04 0.204E-04
   -.871E+01 -.269E+02 0.373E+01   0.716E+01 0.253E+02 -.386E+01   0.151E+01 0.158E+01 0.242E+00   -.848E-06 0.236E-04 0.291E-04
   -.147E+02 -.115E+02 0.334E+03   0.152E+02 0.136E+02 -.332E+03   -.690E-01 -.222E+01 -.220E+01   -.670E-05 0.112E-04 0.788E-05
   0.231E+02 -.133E+02 -.264E+03   -.238E+02 0.139E+02 0.261E+03   0.411E+00 -.341E+00 0.320E+01   0.577E-05 -.528E-05 0.158E-04
   -.104E+02 0.273E+02 0.308E+03   0.126E+02 -.272E+02 -.310E+03   -.213E+01 -.256E+00 0.213E+01   -.640E-05 0.223E-04 0.120E-04
   0.212E+02 0.160E+02 0.111E+03   -.207E+02 -.148E+02 -.111E+03   -.591E+00 -.104E+01 -.699E+00   0.212E-04 -.235E-07 0.559E-04
   0.838E+01 -.251E+02 0.646E+02   -.771E+01 0.236E+02 -.620E+02   -.668E+00 0.133E+01 -.238E+01   0.140E-05 0.207E-04 0.170E-04
   -.209E+02 -.348E+02 -.880E+01   0.191E+02 0.350E+02 0.112E+02   0.178E+01 -.244E+00 -.231E+01   -.951E-05 -.118E-04 0.467E-04
   0.386E+02 0.191E+02 0.269E+03   -.361E+02 -.186E+02 -.270E+03   -.228E+01 -.597E+00 0.797E+00   0.381E-04 -.600E-04 0.403E-04
   0.108E+02 -.114E+02 -.228E+03   -.909E+01 0.115E+02 0.228E+03   -.178E+01 -.126E+00 -.203E-01   -.117E-04 0.544E-04 0.248E-04
   -.114E+02 -.354E+02 -.526E+02   0.125E+02 0.338E+02 0.527E+02   -.958E+00 0.160E+01 -.188E+00   -.364E-05 -.227E-04 0.350E-04
   0.297E+02 -.123E+02 0.316E+03   -.270E+02 0.118E+02 -.315E+03   -.263E+01 0.631E+00 -.808E+00   0.553E-05 0.418E-04 0.239E-04
   -.224E+02 -.621E+01 -.239E+03   0.202E+02 0.982E+01 0.238E+03   0.209E+01 -.328E+01 0.102E+01   -.407E-05 0.448E-04 0.213E-05
   0.406E+01 0.356E+01 -.484E+02   -.400E+01 -.251E+01 0.458E+02   -.518E-01 -.114E+01 0.250E+01   0.817E-05 0.134E-04 0.291E-04
 -----------------------------------------------------------------------------------------------
   0.540E+01 -.867E+01 -.272E+02   -.260E-12 0.902E-13 0.327E-12   -.540E+01 0.866E+01 0.272E+02   0.152E-03 0.189E-03 0.152E-02


 POSITION                                       TOTAL-FORCE (eV/Angst)
 -----------------------------------------------------------------------------------
      6.58514      6.83424      9.87051         0.123716     -0.016705     -0.125576
      6.62321     11.35433     18.30906        -0.029044      0.015045      0.070045
      9.33547      7.71989     12.32713         0.007948     -0.152447     -0.008148
      3.42443      9.90289     11.08541         0.018555     -0.052386      0.039277
      8.61934     12.65903     12.19552        -0.037460      0.004817      0.105902
      7.05494     10.79344     10.58714        -0.110218      0.048065     -0.095745
      9.41599     10.13924     11.17583        -0.020093     -0.037171     -0.082683
     10.26353     12.38423      9.78545        -0.067389     -0.047435     -0.067966
      5.20525      8.67580     10.57091        -0.059116      0.025013     -0.100446
     11.41261      8.94548     16.02294         0.112982      0.180298      0.009857
      8.70861     10.08853     10.94833         0.225698     -0.047391      0.021261
      7.88974     12.48348     16.57507         0.110947      0.036673      0.005933
      0.18023      4.80979     12.35139        -0.018415     -0.032838     -0.048205
      6.47654     11.22512     10.76110        -0.014865     -0.018428     -0.081029
      5.99917     11.88181     12.59651         0.141115     -0.030141      0.116978
      1.64657      3.81067     17.18542        -0.047954     -0.039473      0.013111
      8.39486     10.56187     13.49046        -0.028922      0.108169     -0.093037
     11.58413      5.38016     11.76706        -0.055590     -0.080482      0.057918
      3.02272      0.98647     13.94861         0.017319      0.035701     -0.005813
      5.05319      1.20358     17.72806        -0.077453     -0.160119      0.022936
     11.59093     11.56009     17.38361        -0.226213     -0.066114      0.405848
      0.87537      1.67801     13.28654         0.096032      0.018598      0.040341
     13.48562      9.73972      9.89856        -0.321423     -0.079092      0.277265
      3.76505      6.53292     13.22845         0.107373      0.037236      0.132571
     10.82173      4.25748     15.36144         0.035560     -0.118601     -0.046356
     13.36310      8.69889     18.32483         0.421661     -0.441456     -0.373302
      5.61685      8.25284     18.61321         0.272940      0.147662      0.566514
     13.82142     10.84307     17.53547         0.055560      0.427526     -0.025572
     13.43469      5.30164     18.09635         0.076374     -0.419734     -0.512876
      1.35429     12.11644     14.99296         0.115846      0.194995      0.076904
      3.04742     12.63474     16.50998        -0.044515     -0.061151      0.003835
      3.16363     14.43665     10.24094        -0.145216      0.038195      0.208469
      8.43296      3.28790     12.06674        -0.040233      0.169970     -0.128517
      5.54854      7.26251     10.83061        -0.006180      0.090782     -0.073159
      3.95016      3.10508     13.53603        -0.102087     -0.376782      0.116310
      0.23633      2.64657     17.03444        -0.074143      0.081490     -0.106250
      6.91969     11.39012     16.86097        -0.153646      0.057266      0.160618
      9.30139      2.40315     14.06753         0.157637     -0.037428      0.348456
      2.23198      9.82919     11.97387         0.061710     -0.035393     -0.281389
      7.42607      4.98664     13.44337        -0.219511     -0.074029     -0.092601
     11.28345     12.99332     10.67311         0.099588     -0.013864      0.036653
      5.85372      3.72599     14.72749         0.164620      0.027818      0.028067
     12.28593      8.19711     13.30306        -0.069601      0.122200     -0.218303
     12.33998     13.59200     16.73907        -0.092385     -0.383825     -0.254089
     12.26291      6.02695     16.26363        -0.176791     -0.105866      0.234792
     12.73896     10.50754     13.75166        -0.092283      0.029569      0.100195
      7.79197      3.93767     18.12340         0.478877      0.142901      0.097735
      6.56040     14.17536     18.52998        -0.141170     -0.357267     -0.187127
      4.48692      3.54366     11.31624         0.179251      0.070942     -0.237810
     10.28735      2.76312     10.64521        -0.004709      0.169572     -0.418584
     12.10804      3.98350     11.62370        -0.240822      0.251508     -0.044046
      9.42191      2.53610     18.89665         0.071024      0.397854     -0.070792
      0.23185      6.98572     18.87852        -0.005259      0.234359      0.198532
     10.53619      0.51158     11.46919         0.129038      0.126102      0.143419
      2.65827      5.02397     16.62551         0.066235      0.147285     -0.009095
      1.83937     12.06630     12.71058        -0.228160     -0.103663     -0.342851
      1.88717      7.19716     17.21401        -0.227909      0.180525     -0.078380
      6.10070      6.88853     13.09805        -0.179696      0.032810     -0.199906
     12.17707      3.08698     13.84606         0.231100     -0.273452      0.079913
      1.07580     12.65902     17.96048         0.143384      0.067999     -0.011643
     14.37224      4.38017     10.76362         0.097041      0.334768      0.427040
      9.30427      9.94830     14.49201        -0.098204     -0.133780      0.287748
      7.20089      1.85154     14.90291        -0.215579      0.102062      0.113078
      9.14491      8.02248     17.83958        -0.219855     -0.123084      0.292964
     10.48896      0.46028     16.67038        -0.201021     -0.022973     -0.400895
      9.97836      7.80694     13.67195         0.039068      0.153248      0.163308
     14.51865     10.33617     15.36313        -0.010372     -0.369101     -0.079488
     11.04147      2.71612     17.18538        -0.000344      0.348524     -0.205521
     11.74767      0.79242     13.43380         0.004181      0.124779      0.051248
      2.75253      8.54722     13.83191        -0.158949     -0.144320     -0.001109
     14.36949     13.82275     15.54103         0.103783      0.120542      0.276910
      3.06749      2.15067     10.21375         0.086383     -0.012297      0.293633
      7.29541      1.78478     17.17152         0.094268     -0.487374     -0.103944
      3.26118      0.40538     16.26856         0.041695      0.148401      0.087084
      6.72864      0.31494     13.21492        -0.187124      0.175708      0.195503
     11.01942     11.52703     15.05223         0.356796      0.034338     -0.008148
      0.93787      8.22149     15.30413         0.182270      0.032504     -0.121068
     13.02386      3.09290     18.43665        -0.111749     -0.204012      0.631471
      3.47632     13.71161     12.47792         0.234396      0.009082      0.054127
      0.67389      8.39687     10.83253         0.559352     -0.270221     -0.140176
      5.41620     12.90800     13.49723        -0.168121     -0.061791     -0.102989
      2.63739      4.86814     14.32624        -0.120574      0.077500     -0.151480
      4.95180      4.62909     16.76424         0.038058      0.034945     -0.125215
     10.36245     13.82346     14.62458         0.027237      0.170144     -0.171889
      4.96510     11.68715     15.55532         0.033557     -0.010491      0.069573
      8.77857      0.34742     18.30533         0.022789     -0.054594      0.342089
      3.70263      8.63449     17.40922         0.323206     -0.180173     -0.150808
      7.94224      9.34537     16.26857         0.084511     -0.264663     -0.212338
      0.82814      0.07528     10.16958        -0.063852     -0.228047      0.220010
      1.07567      0.45337     17.09693        -0.077098     -0.028571      0.067735
     13.70392      6.90026     14.63261        -0.008903      0.093685     -0.088921
      1.40813      6.22381     10.14041        -0.448253      0.418357      0.139371
      8.85988     14.01661     12.77832         0.066684     -0.126009     -0.118074
     14.55484     13.04598     11.70746        -0.068553      0.046728      0.110753
      5.57874      3.34134     18.59846        -0.265999      0.122493      0.016773
     12.97365      7.83277     11.09544        -0.396855     -0.121258     -0.197729
      9.12762      5.81926     14.82199         0.044862      0.007277      0.140414
      3.63308      5.84636     10.98947         0.462236     -0.229963      0.228732
     11.41006      8.00912     17.19745        -0.195909      0.280554     -0.168450
      6.45198      2.14186     11.61138        -0.024565     -0.057889     -0.063229
     13.91148     14.51552     13.37218        -0.102680      0.145943     -0.328496
      0.39657      5.10101     13.89560        -0.045408     -0.064450      0.115294
      6.24776      8.14397     15.10795         0.013911     -0.058841      0.047817
     12.88778     11.46752     11.49990         0.063159     -0.061448     -0.041572
      6.00065      6.68800     16.92856        -0.154695      0.039762     -0.469202
      4.32153      9.44656     15.29355         0.065376      0.088552     -0.090975
      0.92479      2.30702     10.99097        -0.056646      0.148610     -0.268869
      8.23941      6.01890     17.02303        -0.033708      0.141869      0.143862
     14.32431      3.08683     14.75909         0.026581     -0.141234     -0.004307
 -----------------------------------------------------------------------------------
    total drift:                               -0.004685     -0.010412     -0.004215


--------------------------------------------------------------------------------------------------------



  FREE ENERGIE OF THE ION-ELECTRON SYSTEM (eV)
  ---------------------------------------------------
  free  energy   TOTEN  =      -919.64102085 eV

  energy  without entropy=     -919.41632904  energy(sigma->0) =     -919.52867494



--------------------------------------------------------------------------------------------------------


    POTLOK:  cpu time      3.9902: real time      3.9932


--------------------------------------------------------------------------------------------------------


     LOOP+:  cpu time   6632.9490: real time   6637.3499
    4ORBIT:  cpu time      0.0000: real time      0.0000



 total charge

# of ion       s       p       d       tot
------------------------------------------
    1        0.576   0.015   0.000   0.592
    2        0.570   0.017   0.000   0.586
    3        0.565   0.015   0.000   0.580
    4        0.565   0.016   0.000   0.581
    5        0.566   0.015   0.000   0.581
    6        0.617   0.032   0.000   0.649
    7        0.613   0.032   0.000   0.645
    8        0.570   0.016   0.000   0.586
    9        0.574   0.016   0.000   0.590
   10        0.566   0.017   0.000   0.582
   11        0.612   0.032   0.000   0.645
   12        0.565   0.016   0.000   0.581
   13        0.588   0.018   0.000   0.606
   14        0.613   0.033   0.000   0.646
   15        0.569   0.016   0.000   0.585
   16        0.528   0.016   0.000   0.544
   17        0.568   0.016   0.000   0.584
   18        0.561   0.016   0.000   0.577
   19        0.750   0.927   0.000   1.676
   20        0.763   0.893   0.000   1.656
   21        0.818   0.866   0.000   1.684
   22        0.759   0.955   0.000   1.713
   23        0.830   0.804   0.000   1.635
   24        0.761   0.962   0.000   1.724
   25        0.742   0.917   0.000   1.659
   26        0.793   0.859   0.000   1.652
   27        0.876   0.741   0.000   1.618
   28        0.767   0.890   0.000   1.657
   29        0.791   0.882   0.000   1.674
   30        0.768   0.948   0.000   1.716
   31        0.754   0.928   0.000   1.682
   32        0.788   0.878   0.000   1.665
   33        0.754   0.918   0.000   1.672
   34        0.736   0.984   0.000   1.720
   35        0.760   0.940   0.000   1.699
   36        0.780   0.851   0.000   1.631
   37        0.743   0.981   0.000   1.725
   38        0.846   0.782   0.000   1.627
   39        0.739   0.962   0.000   1.702
   40        0.753   0.917   0.000   1.669
   41        0.775   0.876   0.000   1.651
   42        0.758   0.942   0.000   1.700
   43        0.755   0.936   0.000   1.692
   44        0.802   0.852   0.000   1.655
   45        0.770   0.929   0.000   1.699
   46        0.761   0.895   0.000   1.657
   47        0.769   0.904   0.000   1.672
   48        0.860   0.750   0.000   1.610
   49        0.754   0.923   0.000   1.677
   50        0.810   0.814   0.000   1.623
   51        0.754   0.921   0.000   1.676
   52        0.813   0.851   0.000   1.664
   53        0.786   0.896   0.000   1.682
   54        0.754   0.931   0.000   1.685
   55        0.772   0.911   0.000   1.683
   56        0.759   0.959   0.000   1.718
   57        0.751   0.911   0.000   1.662
   58        0.752   0.939   0.000   1.691
   59        0.764   0.920   0.000   1.684
   60        0.821   0.736   0.000   1.557
   61        0.788   0.813   0.000   1.601
   62        0.750   0.961   0.000   1.711
   63        0.760   0.968   0.000   1.728
   64        0.798   0.851   0.000   1.649
   65        0.766   0.890   0.000   1.656
   66        0.741   0.946   0.000   1.687
   67        0.761   0.943   0.000   1.704
   68        0.769   0.895   0.000   1.664
   69        0.754   0.939   0.000   1.693
   70        0.749   0.969   0.000   1.719
   71        0.760   0.934   0.000   1.694
   72        0.792   0.902   0.000   1.694
   73        0.758   0.906   0.000   1.664
   74        0.753   0.909   0.000   1.662
   75        0.755   0.915   0.000   1.671
   76        0.750   0.896   0.000   1.647
   77        0.755   0.952   0.000   1.707
   78        0.804   0.881   0.000   1.686
   79        0.753   0.923   0.000   1.676
   80        0.753   0.883   0.000   1.636
   81        0.740   0.963   0.000   1.702
   82        0.757   0.985   0.000   1.743
   83        0.753   0.947   0.000   1.699
   84        0.756   0.899   0.000   1.655
   85        0.746   0.927   0.000   1.673
   86        0.778   0.909   0.000   1.687
   87        0.796   0.880   0.000   1.677
   88        0.751   0.947   0.000   1.699
   89        0.807   0.828   0.000   1.635
   90        0.768   0.904   0.000   1.672
   91        0.751   0.965   0.000   1.716
   92        0.798   0.786   0.000   1.584
   93        0.751   0.943   0.000   1.693
   94        0.759   0.967   0.000   1.726
   95        0.819   0.842   0.000   1.661
   96        0.816   0.852   0.000   1.668
   97        0.759   0.902   0.000   1.661
   98        0.758   0.899   0.000   1.658
   99        0.750   0.949   0.000   1.699
  100        0.799   0.815   0.000   1.614
  101        0.769   0.979   0.000   1.748
  102        0.776   0.939   0.000   1.715
  103        0.760   0.927   0.000   1.686
  104        0.757   0.899   0.000   1.656
  105        0.760   0.953   0.000   1.713
  106        0.754   0.957   0.000   1.711
  107        0.753   0.933   0.000   1.686
  108        0.755   0.924   0.000   1.679
  109        0.757   0.982   0.000   1.740
--------------------------------------------------
tot         80.523  82.815   0.000 163.338


 total amount of memory used by VASP MPI-rank0   385089. kBytes
=======================================================================

   base                                    :      30000. kBytes
   nonl-proj                               :      81143. kBytes
   fftplans                                :     114270. kBytes
   grid                                    :      88184. kBytes
   one-center                              :         21. kBytes
   wavefun                                 :      71471. kBytes

  
  
 General timing and accounting informations for this job:
 ========================================================
  
                  Total CPU time used (sec):     6789.074
                            User time (sec):     6038.373
                          System time (sec):      750.700
                         Elapsed time (sec):     6793.455
  
                   Maximum memory used (kb):      662920.
                   Average memory used (kb):          N/A
  
                          Minor page faults:     11663834
                          Major page faults:         1188
                 Voluntary context switches:         2896
