LAMMPS data file via write_data, version 2 Apr 2025, timestep = 6560000, units = metal

1000 atoms
2 atom types

-0.9298289166623306 25.453161692914847 xlo xhi
-0.9298289166623306 25.453161692914847 ylo yhi
-0.9298289166623306 25.453161692914847 zlo zhi

Atom Type Labels

1 H
2 Si

Masses

1 1.00784
2 28.0855

Atoms # atomic

494 2 2.144448724889555 2.344021779188941 3.4388996846516955 0 0 0
467 2 0.31905770149280666 2.3969352972141444 1.8861833116798845 0 0 1
452 2 1.1178186949877698 0.7944554353408106 4.9404820836015215 0 1 0
507 2 0.8380430884653081 1.1359599322724843 -0.0069959921069581155 0 0 1
427 2 4.407234519727252 1.9918742213365879 3.0124363089590473 0 0 0
937 2 5.4059195257136 2.456164811749907 0.8289509445027095 1 1 1
362 2 4.9417545940630125 -0.38721107203012706 3.0674612239176993 0 1 0
241 1 4.717740850894456 2.118318620087759 -0.49953937391415965 1 0 1
182 1 7.96820073864569 1.0651181243878323 -0.53349101304908 1 1 1
128 1 6.227738880816069 -0.7128579117463115 2.434590641801775 0 0 0
704 2 7.817323296653868 2.2424138742881774 4.437591814775621 0 0 0
964 2 7.724327162471903 2.1332212375264756 0.5637799610803265 1 0 1
689 2 8.903891462378454 1.221527966155458 2.4362016514182665 0 1 0
448 2 11.209059052140434 1.7492480630845115 2.4585845604080117 0 0 1
679 2 11.579129330788867 1.6846473951255598 4.852675515073826 0 0 0
117 1 8.343510709471097 -0.6990476173684501 -0.5296161579695742 -1 1 1
669 2 10.10063376106765 -0.10344232361841388 5.333731282139571 0 0 1
18 1 2.33229886780472 0.9769319771900784 -0.33861471170821955 1 0 0
194 1 2.4464843677999837 4.0304390475806695 -0.3836809086402999 0 0 2
282 2 -0.11524809231319522 4.7258273781056035 1.1759416603224642 0 0 0
553 2 1.648266211293611 4.472220568142019 4.152011190067584 0 0 0
826 2 2.481880419129636 6.499623262603656 3.311406070680767 1 0 1
810 2 1.695320022183504 6.439512787789571 1.0849910627951744 0 0 1
633 2 -0.582964260080668 5.071279192360592 3.484701668113998 1 0 0
340 2 0.9572284542230471 7.8106936308826995 4.595733954688477 1 0 1
753 2 3.136994738701576 5.3078268698542965 -0.24562149947936873 0 0 0
925 2 5.9649668168166485 3.52558252619837 4.121420581104261 0 0 1
691 2 6.157966330542096 5.422490617524513 2.6861608593498216 0 0 1
732 2 4.8488761102259605 7.080861407333744 3.7029775816493444 0 0 0
804 2 5.455677130870643 4.760383819182589 0.5167342387990179 0 0 1
901 2 9.106715862659666 3.990035296143434 -0.4229141580137299 0 0 0
457 2 11.699654173089685 5.0788967706105 4.821603471987494 0 0 0
484 2 10.3377657729143 5.131673889440572 1.2190130857164663 0 0 1
990 2 8.391007409794852 6.164384070226592 2.3793791705425367 0 0 0
251 2 9.442760340213361 5.933750360885531 4.5817875238715855 0 0 0
958 2 11.843128953547884 4.0249301324503195 2.721692356560854 0 0 0
993 2 11.929518511748638 6.850047709881951 0.563254732536369 0 0 1
678 2 3.276253829734735 12.212032324455727 -0.3107527569989328 1 0 0
999 2 9.404322869610136 -0.8931654694339803 3.2283271889942853 0 1 0
284 2 2.1375644980903417 9.665894139338237 5.152653773547287 0 0 0
554 2 1.3315981669346142 8.756800160836972 0.42050943893642234 0 0 1
617 2 2.18893817735276 10.81397196370503 1.3536751086788783 0 0 0
290 2 -0.9234819736897079 9.433653726786313 0.28800854016577726 0 0 0
572 2 8.24676392833256 11.403470891551063 4.142596673347721 0 0 0
738 2 3.2884797691693297 10.655897963095411 3.453293466904409 1 0 0
426 2 6.931886755029983 9.714085072753097 1.381485986542816 0 0 1
726 2 5.2143393663886455 9.39713187517729 3.1406132906572237 0 0 0
304 2 6.302207811340072 10.61344470937499 4.960434610619472 0 0 0
674 2 7.860018453285468 12.009291062949853 1.899197169885388 0 0 0
912 2 4.579285476523782 12.111696421430924 4.864824895053941 0 0 0
262 2 11.776278584228432 10.244410761905483 3.668399970316769 0 0 0
475 2 9.64054366233761 9.326677236676426 4.087316029963272 0 0 0
508 2 9.936020733073166 12.114114516777756 0.8051037443502667 0 0 0
496 2 10.55178943799457 8.596540871813167 0.5332452995788928 0 0 0
286 2 11.602073850374126 10.660132305278733 1.2324705257830804 0 0 0
602 2 8.813328370256398 8.464009199071208 2.117898786601952 0 0 1
800 2 2.4533460749651153 1.761103962351351 10.078620293659107 0 0 0
813 2 1.5317622846237207 -0.3165671967639624 11.14483316713622 0 1 0
965 2 3.034754062271681 -0.011297712282436034 6.3282072465294785 0 1 0
837 2 -0.6530280549028284 1.614018426008677 6.639894624568866 0 1 0
368 2 0.8142624866965322 3.394014812342637 9.877173335010141 1 1 0
257 2 3.7196750832504293 1.6397445818308438 8.05660603391457 0 1 0
370 2 5.751652007533115 1.1200502380855637 9.032881473705771 0 1 0
590 2 5.894792697947228 1.5068123281118355 11.50658825172091 1 1 0
979 2 4.0855319738960185 2.8734429767629535 11.375224100662306 0 0 1
297 2 7.749886951137 1.7691116710285004 8.059099711581243 0 0 1
331 2 8.13371619698746 2.3095929269852573 11.70085371671948 0 1 1
544 2 8.004245062656222 0.6383929560801054 6.130503295351247 1 1 0
542 2 11.079370575436709 0.993228345258335 9.731201990018006 0 1 0
663 2 8.769862452515259 1.027730248659112 9.959444387040685 0 1 0
791 2 11.6238601918372 3.086768888293875 8.54004027780601 0 0 0
966 2 11.069791616771338 3.299450983744385 6.274187712887414 0 0 0
616 2 11.768197985872737 0.26692706354426443 12.129888736967297 0 0 -1
339 2 -0.020507389456345226 3.5453225681389435 7.592367157635245 1 1 0
382 2 1.631792303010013 6.947978817421218 6.651453322112707 0 0 0
441 2 1.8026542488942914 4.613790769890521 6.560060011894031 1 0 0
363 2 -0.043854148915879465 7.271989621680559 8.143598875412772 1 1 0
913 2 1.2538868525988907 7.048921433611353 10.167973271196999 1 1 0
721 2 0.4804351831255438 5.276578965141381 11.338480745507518 0 1 0
600 2 3.5625795461323033 6.860578730464401 10.495421345749536 0 1 0
442 2 3.873154630566379 3.968192516788693 7.591827789758677 0 0 1
504 2 4.41954664393545 4.6316670984104995 9.755408624715859 0 0 0
988 2 6.662834217725571 5.169415151119027 9.561493576685322 0 0 0
390 2 7.301000480495654 7.437632250844274 9.295958909383884 0 0 0
854 2 5.737144516610748 4.359008128592471 6.243521392052248 0 0 0
876 2 7.618537666539694 3.990777427092085 7.703447373610349 0 1 1
439 2 7.597217412554642 4.441282866556624 11.634062374864502 0 1 0
428 2 5.598600390408153 6.682867001718837 5.924074283695498 0 0 0
549 2 8.98002914817145 4.065385915559323 5.787037083403893 0 0 0
851 2 9.620250339169395 5.442363680079951 11.3082633742134 0 0 0
717 2 10.776439457787555 5.158689545397905 9.47348342201661 0 1 0
6 1 10.498733265681146 6.283554532875075 8.456795783553462 0 1 0
567 2 9.0299162239033 7.676842935543089 10.89284214689825 0 0 0
430 2 2.8846335518757202 11.2681487138945 8.26905896891576 1 0 0
956 2 0.9372111502786968 10.879029671689947 6.757123773058039 1 0 0
655 2 1.85029546002065 10.973266398095976 10.405044311546115 0 0 0
299 2 1.0376802098506885 8.912692355407241 11.448177865204507 1 0 0
635 2 -0.13011270688416254 11.903305697927225 10.115869231702309 0 0 0
770 2 -0.8156797133670477 9.411274747651458 7.854707839333141 1 0 0
499 2 3.0524839671289308 12.25178996103872 12.026589084624346 0 0 0
489 2 7.335703904148101 7.813324350754135 6.966527538656402 0 0 0
336 2 3.5858990694526787 8.072510095804775 6.6876037911025445 1 1 0
476 2 5.191464998126054 8.51572937147461 9.933528085775785 0 0 0
410 2 4.550781082644545 9.628160066667911 8.042844596272447 0 1 0
628 2 6.763011488471325 10.114644791526356 7.172508577737268 0 0 0
334 2 5.769784323061166 10.144857518165587 11.510387391983683 0 0 0
509 2 7.004131887941054 11.979361048895193 10.440789274748406 0 0 0
345 2 11.33676975864402 8.403933535016126 10.609373728941645 0 0 1
277 2 8.096782282201762 11.6775973561589 8.410603417401186 0 0 0
161 1 10.426973899321222 7.793338097243646 6.772044422700823 -1 0 0
661 2 10.569072606649247 11.815268839933626 8.199122767014405 0 0 0
768 2 11.701582610674542 9.866868433054568 8.757996984658925 0 0 0
29 1 11.40505675413745 8.963157487819355 7.552402575193804 1 0 -2
361 2 9.318968739732012 7.824204309843267 5.890352801636369 0 0 1
193 1 1.6767442040291307 0.41941425016513945 15.065727791116034 0 0 0
702 2 -0.12964189926606673 -0.4784292239115176 12.803965836781131 0 0 0
199 1 0.29575349725915445 2.1957964391377076 13.300397031154573 1 0 0
259 2 -0.7953525841524444 1.6875679896353977 12.453563562117434 1 0 0
207 1 -0.3729336497790642 -0.06187167292743456 17.802447965306506 0 0 0
96 1 2.2592891509968283 2.4653568205133576 16.884933115747593 0 1 0
23 1 1.8059371226057879 2.9398461948692747 16.51772354057736 -1 1 0
142 1 4.611576735852143 1.933180087127878 14.401437020093608 1 1 0
167 1 7.0614997542778175 0.6837774380340751 16.311433995612383 0 1 -1
53 1 7.266983268982624 0.4228855037553436 15.65428594161656 -1 0 0
932 2 5.3874435976580175 -0.5274402156648119 12.550139600588809 0 0 0
81 1 -0.3027238874353414 5.430874943230087 16.314847390515236 0 1 0
47 1 5.165926497389939 2.101015409298278 14.841902649815255 1 0 0
190 1 5.432674789099303 4.8828780519570385 16.410569256956364 1 1 0
247 1 3.2026191407488547 -0.3751321795882132 18.256627084709027 0 0 0
137 1 9.43990451483697 2.4730813673013223 15.105118461886274 0 0 0
202 1 10.408275183680235 0.7829523741064488 17.025039092167148 0 1 0
35 1 8.990446185580572 2.2397470857965107 12.943091474344858 0 0 1
145 1 9.296140362152457 0.7187299992190179 14.335590328699615 1 1 0
817 2 10.143501648519168 -0.41598071342043963 13.963252804867214 0 1 0
217 1 10.418524594813709 0.8773719419636468 17.741996217253746 1 0 -1
57 1 10.952944175517528 -0.6955334531769582 15.203711965088857 1 1 0
179 1 11.40713283573468 3.3555067851307063 14.864503329876234 0 0 0
151 1 7.5624828069948276 4.466855700602731 17.99373810911487 0 0 -1
62 1 -0.4477143586476382 4.960620855931973 14.45496471873138 0 0 0
881 2 1.9054601892777252 5.380425827905121 13.199857581962982 0 0 0
168 1 1.609839033746224 5.1144483676756645 14.592996628646953 1 1 0
141 1 2.8664510799946235 6.034661430693232 15.627461878507383 0 1 0
156 1 3.022604011743931 6.532417840308826 16.16666047418635 -1 0 -1
216 1 -0.08172647897452312 5.77271361640998 16.835375656769923 1 2 -1
49 1 5.5466015157141 5.050663438561422 17.087964779982084 0 1 0
538 2 4.038197189843546 4.818699524581354 12.508443129816582 0 0 0
79 1 6.392357841445557 4.045501827663393 14.557185806633143 1 0 0
373 2 6.161744114380947 4.988811999811841 13.433762185823579 0 0 0
737 2 6.542539438384826 7.443480618864001 14.10223113716593 0 1 0
886 2 6.622774779603815 8.008088820525282 16.36993109893497 0 0 0
33 1 7.222335392880884 6.5958829028988815 16.862554473790407 -1 1 -1
65 1 5.042958937268511 7.775750619186839 13.984091344166998 1 0 0
28 1 5.048719252966324 -0.1441819405059528 14.018239685706348 1 0 1
73 1 9.791251897016311 2.9377195487655374 15.568636717260357 1 0 0
77 1 10.31762578141715 5.268347985816238 17.17911919977379 0 0 -1
275 2 11.152280707786089 6.410149830122885 17.58648861689428 0 0 0
686 2 11.396958395945424 5.638356587234518 12.785557039651113 0 0 0
705 2 11.12655680523928 7.604516944504111 14.227675531826279 0 0 0
126 1 9.629870031196942 7.299366545641842 14.886972924949916 0 0 0
256 2 2.3979722808419055 7.543288393867334 12.583759912333202 0 0 0
46 1 1.103453392455351 9.881628730334612 17.610548679690098 1 0 0
927 2 -0.45675750159800826 9.47286672379796 13.144610932085108 0 0 0
942 2 1.1432177612594976 10.314021773477 14.58593427922891 1 0 0
355 2 1.3632732772060532 11.054263051229462 16.687015929654248 0 0 0
253 2 -0.6250264873437119 12.050600326666638 17.46586793714435 1 0 0
411 2 3.0265148439129725 9.105775912305 14.041350698568042 0 0 0
330 2 3.6320147148712936 11.501588234086766 17.53464022090711 0 0 0
109 1 3.884453968687767 7.09948711830566 17.811515728425338 0 0 -1
834 2 5.189687913284398 7.890248828921996 18.15860217328639 0 0 0
152 1 3.7391290105871704 8.648650147253578 15.205655060219378 0 0 0
433 2 4.365101923441794 10.794716916524955 13.203906554057657 1 0 0
545 2 4.780652154653167 11.712630384381784 15.380614154065764 0 0 0
31 1 6.115190954043905 11.296805267364853 15.692466904987597 1 0 0
491 2 7.498768663623091 8.821522293951112 12.474296050262126 1 0 0
944 2 8.403863611777437 9.41901956365747 17.10745446585449 0 0 0
766 2 11.286447961831211 11.980969735569051 15.426558885070275 0 0 0
848 2 9.853671977544215 8.258329583012026 18.447075147268897 0 0 -1
420 2 11.637187600267097 9.458141218984483 12.692425033320989 0 0 0
144 1 10.104897674821228 10.15296598663935 12.546031059935553 1 0 0
353 2 8.681575640617256 10.657130506717692 13.413709052823462 0 0 0
571 2 9.047620954462507 11.145065442934614 15.56830527663757 0 0 0
923 2 0.962277422291749 -0.8225495287055649 14.81884072071863 0 0 0
157 1 2.868232563431064 0.015958517848351006 17.792758870173685 1 0 0
22 1 6.900185734970399 4.281234360183224 18.30607429289734 -1 0 -1
899 2 12.247081694602814 11.985956647646793 17.65951247266656 0 0 -1
75 1 8.40403024565543 12.131417944056727 18.1062480266119 0 -1 0
2 1 12.192647214353652 -0.6594711871411547 17.2374277552902 0 0 0
250 1 0.43521019367567915 0.7849809104847982 20.003816794138697 0 1 0
750 2 3.0901008763372415 2.587714862066719 22.78383385349095 0 1 0
962 2 -0.2955682298888439 -0.3713554746792719 19.2256939778382 1 0 0
39 1 2.3701742932195713 1.44977046060839 22.167367217910957 1 0 -2
3 1 2.6343819342583066 0.3743244484696786 20.47869551413875 0 0 0
246 1 3.43546453205297 1.976980381804259 24.159664603592944 1 1 1
66 1 1.2299343675407366 -0.8140736195088567 21.945430545693213 0 1 0
843 2 2.2975054859835935 -0.860158336831223 22.90167161672914 0 0 0
164 1 1.8358771146992896 -0.06238777781707283 24.015382644696693 0 0 -1
100 1 0.7293455387921761 1.496390010697672 23.184056830584648 0 1 0
328 2 -0.26708580507437785 1.6911477030483044 24.361345873017108 0 0 0
218 1 1.8782947071709288 3.435855840606324 20.66392510774353 0 1 -1
238 1 2.9268325934452264 0.9223379176456725 20.166050674250247 2 1 0
67 1 3.6371354466538435 -0.6377115437293401 22.326426811102593 1 1 0
608 2 9.24058963653171 11.79865939012946 24.992291539640256 0 0 -1
52 1 4.282536242261165 3.123958730415552 22.131809949131565 1 0 0
204 1 6.281051068391056 3.123377137779581 20.68791990105564 1 0 0
72 1 5.94856056903608 2.7372966453369347 20.169232428031297 0 0 0
236 1 5.575824769511056 3.3076118433396138 23.678179165780357 0 1 0
103 1 5.8544482233073145 0.024190402704267977 22.504773511268525 -1 0 0
106 1 7.977310627672541 0.7300719411373318 23.357406047739474 0 0 0
212 1 5.835383918945005 0.05615903340219963 24.618017063225377 0 0 0
134 1 5.4599133100042545 0.07015447455186363 21.916920054801324 0 1 -1
781 2 12.148129955436131 1.7994070069418404 24.96780728695748 1 0 0
809 2 8.457000087386659 2.0698779740615936 23.039963732575583 0 0 0
239 1 8.946279050636232 1.8064958210410116 21.512388411495287 0 1 -1
338 2 10.13242091947559 2.7251226278169756 24.358459152601238 0 0 0
32 1 11.602927650305292 1.4569741831197516 21.253441822915036 0 -1 -1
163 1 12.146949837486705 0.211124376541016 24.02927259366 0 0 0
88 1 2.0571463642927172 3.4057383418727607 19.957748770685793 1 -1 0
249 1 2.071855139922302 3.728708174986747 23.122383371454227 0 0 -1
219 1 0.1948732440577836 4.35052059372208 21.694347395706334 0 0 -1
243 1 2.6074464369062778 6.174631172221342 21.483848031719535 0 1 -2
120 1 2.9606764530348926 5.835240944435567 24.73631888235752 0 0 0
320 2 1.0374365435274286 7.635749228378954 23.219292038687676 1 0 0
51 1 1.360199076285706 6.135020052898466 23.29110727264725 0 -1 -1
185 1 -0.3775226588557632 7.685890348634615 23.35020563423417 1 1 -1
110 1 1.2397520653495846 8.130481772920863 21.79828908041336 1 1 0
91 1 1.1394158470408948 6.730231561233009 20.072522984077022 0 0 0
159 1 1.3646930915930033 6.454142924778165 19.45290148112785 0 0 0
155 1 4.342524851514227 5.405494420286243 22.539832217997358 0 -1 0
532 2 4.0911364449905445 6.329494583288209 21.403321985878872 0 1 -1
729 2 7.004600997768015 3.8734419820306005 23.56924115277082 0 0 0
232 1 4.435634970354786 5.445511602162638 20.330209014931967 0 0 -2
58 1 6.933108242307023 4.856840870974757 22.341323168279413 0 1 0
629 2 7.194523435562708 5.449334047911281 25.285927847496854 0 0 -1
160 1 4.484996429549975 6.970256324657046 24.8737820640364 0 1 0
121 1 7.363898452572563 6.451729726836024 21.193410005583388 -1 1 0
189 1 5.92763196827988 7.103229263001811 19.19457560092086 0 0 0
183 1 10.40269126402956 2.8889338002653053 19.25353807281912 0 1 1
520 2 7.303987658369387 7.659663441298859 22.009119493164498 0 0 0
516 2 7.810435494812348 7.532229328557298 24.36804049195802 0 0 -1
94 1 10.745616524414778 3.775234790913559 23.412774233848143 0 1 0
89 1 10.142656268429967 3.155002554833139 19.897082942732023 0 0 0
877 2 11.309404290445478 6.779615741123632 23.036662162349113 0 0 0
5 1 10.615199030752933 5.564458205605334 22.50844096832652 -1 0 -1
171 1 11.140616748534274 4.690191490230133 20.325299320775756 2 1 -1
215 1 11.913523004787873 4.627866820646779 24.96074722822168 0 0 0
211 1 8.741622420938238 7.380765444060026 18.9957799702398 1 1 -1
444 2 12.191245818373917 5.711118764009107 19.66443903035287 0 0 0
209 1 -0.2143473500090578 9.71843995068144 22.388741678168703 1 0 -1
861 2 -0.05931826586686817 12.177794791635641 24.095261586249542 1 0 0
561 2 -0.5916061481952193 11.067224859275498 22.05793893505752 1 0 -1
625 2 2.9612231041784396 11.833795358032463 22.0478093668211 1 0 0
244 1 1.2049610824894832 10.434148699211098 20.055088073247497 0 0 0
828 2 2.1675700184514346 11.382989231163121 24.079038723209557 1 0 -1
654 2 2.1901498431661337 9.069239797924178 24.66978018956241 0 0 0
856 2 1.0652563688861936 11.83034145520985 20.506409210950352 1 0 -1
666 2 4.942522137695799 10.118956797644492 18.919895579008937 1 0 0
974 2 7.149076447321178 10.446208005210453 19.055627777298252 0 0 0
935 2 5.060325320057985 8.33994181121679 22.147226607933447 0 0 -1
792 2 4.555917921622467 8.378892846181792 24.318052699614046 0 0 -1
808 2 6.956259357065601 11.446145933149067 24.44669251642914 0 0 -1
982 2 4.7064288607532285 10.520169678398084 21.20149660933617 0 0 0
701 2 6.528976048966281 11.325027007976402 22.126357239551158 0 0 0
274 2 10.018189178462027 10.647849174959282 21.372967979536835 0 0 -1
357 2 11.321108277248658 9.300720605919553 20.027376985209695 0 0 0
479 2 8.012154461833166 9.710679860550751 21.189563298993523 0 0 0
882 2 10.040601093709439 8.337635242522133 24.57487335461796 0 0 0
387 2 10.459393274396733 10.387600725983996 23.641056019785104 0 1 -1
83 1 3.6624890622242283 -0.46163888365523165 25.164314102808905 0 0 -1
698 2 6.2906128949164515 9.419190607603097 25.399584701147962 0 0 0
919 2 1.743568218143225 14.008832432271088 0.23414438303750473 1 0 0
659 2 2.3876288998590236 16.210147567313477 0.5444618148305533 1 0 0
321 2 -0.3788790219554329 12.671128938270662 3.3785005287925687 1 0 0
631 2 11.22262531960094 24.03357097022941 2.7561372596681437 0 0 1
60 1 3.4813576801357105 13.274869363820653 2.237351320819189 0 0 1
694 2 0.4810144509664418 12.427398225236407 1.2859828019938027 0 0 0
492 2 3.6745628761005023 15.425407898053017 4.207208971634547 1 0 1
332 2 6.310479864127465 13.768461902926127 1.408005966427282 0 0 0
598 2 4.625704140946167 13.643192029578818 3.0965500784370192 1 0 1
205 1 6.249339699441276 15.756387615948167 3.0634571544345786 -1 -1 0
270 2 7.442505349844957 15.829255640394496 0.7615313753169535 0 0 0
303 2 6.927934647635058 16.52899045688257 4.2510639477505 0 0 0
461 2 5.485829731091463 12.902415954127594 -0.6352218824966511 0 0 0
493 2 9.05803707907931 15.342230192335727 4.292317496947559 0 0 0
819 2 9.347143015657384 15.651292242577782 2.071882697636843 0 0 0
936 2 10.95041563885897 14.11350809381784 1.3313343655094996 0 0 0
437 2 9.037720898570175 13.207767345507273 5.368783396382146 0 0 0
356 2 12.150635641563214 12.3087220012773 4.407101759937276 0 0 0
695 2 2.9432828052465667 17.066999560909696 2.7822999508358124 0 0 0
295 2 0.5187698425203389 17.500526544740822 -0.13204384296546545 1 -1 1
909 2 0.8750021013923914 17.718844562758974 3.6897986786219352 0 0 0
405 2 0.6182173863427547 19.93144788055257 2.638747613599352 1 0 0
796 2 2.7585040543471995 20.637985319737297 2.02398456695808 0 -1 1
835 2 2.6016261555888645 20.695236147153096 -0.43211555746146224 0 -1 1
481 2 9.975578255476492 22.021512398872176 2.899916657254903 0 0 0
178 1 3.907223358899194 25.427970412140773 2.2832156663554226 0 -1 1
375 2 5.323021220102039 18.635908728479027 -0.4811946569062122 1 0 0
785 2 3.9795006592819444 19.071855727135056 3.0819687427009432 1 0 1
487 2 6.336666841980888 18.618754228129255 3.1921754335999557 0 0 0
761 2 7.085553560577138 18.126489737491035 0.9928008761831646 0 0 1
680 2 7.201824731741423 20.18536409638608 4.799312165972845 0 0 0
515 2 10.732727920682429 16.693752444719774 5.326693603732045 0 0 0
527 2 10.831320205855613 18.630530228906167 4.060802149431565 0 -1 0
374 2 9.141339714248298 18.878144898278983 0.527229902666289 0 -1 1
697 2 10.523867064376235 17.57821435113338 1.8900572704827527 0 0 0
802 2 9.514279437319844 20.633015056734866 4.57595090441022 0 0 1
897 2 3.522677220894371 19.38868778695528 5.493621489078865 1 0 0
976 2 -0.1627855627992345 25.199942056420348 4.303013645885935 0 -1 0
593 2 0.8969817675475302 23.06413531172542 4.455417613211936 1 0 0
653 2 2.816757530834872 22.68932373979688 3.0327578341039865 1 0 1
225 1 2.851591178552411 23.334344000638694 1.798172955835116 1 -1 1
895 2 -0.5437982486089361 21.054882218467977 4.322935256559765 0 -1 0
377 2 -0.7881981892547396 18.943315590103158 1.0651604413365352 1 0 0
43 1 1.854488966431965 21.8778405696154 -0.6633692143309398 0 0 1
188 1 1.4202067406663046 24.796100625155717 0.8714546429114995 1 -1 0
660 2 0.1630287813442879 25.386536426991757 0.3959863312438898 0 0 0
418 2 12.096366669178847 24.594692681837167 0.6965620260286085 0 0 0
101 1 -0.08279760105316891 24.85038225614919 -0.9060763074979906 0 0 2
929 2 4.778942855568638 25.228785193551868 5.283418439705817 0 -1 0
354 2 4.543551981292825 22.952090854016017 4.572041649065628 0 0 1
599 2 6.774162874658167 22.427933815102847 4.464218377011941 0 0 0
4 1 6.434631109152903 22.167246734206007 0.5895081808739573 1 -1 1
533 2 7.786420552872629 22.635684727892016 0.4840966952529655 0 -1 0
7 1 5.331397015615828 25.344007209189222 0.30270510841398157 0 -1 0
296 2 11.087021385259963 14.709636545797046 -0.7717308319815593 0 0 1
1000 2 8.054331178455111 23.45153850397798 2.6979805637494905 0 0 0
735 2 11.062306833424786 21.650896916319205 -0.9290710252896389 0 0 1
610 2 9.535977124446026 21.119659494113222 0.7492165941256304 0 0 0
560 2 4.070445908204591 16.86387588852275 -0.9007602305218899 1 0 1
488 2 1.3701307273012002 14.91079932428037 10.111121113629997 0 0 0
947 2 -0.48905092986965376 13.944177797597515 8.971832069458582 0 0 0
440 2 -0.4475265100387267 15.09911382189513 11.477435120560331 0 0 0
963 2 1.0511862003239745 16.459918909340683 6.851789887916899 0 -1 0
703 2 2.2044870107771244 14.492616839456062 5.876311156091174 0 0 0
402 2 3.478443517565016 14.352605488273772 11.059819600723863 0 0 0
879 2 3.784913022569487 13.071142713066186 6.800305875875641 0 0 0
524 2 5.193437170587202 15.24301525948955 9.534928717259955 0 0 0
464 2 5.47810278019913 14.346925357391413 7.460188518084145 0 0 0
577 2 7.237765196244558 16.046529681730146 10.375053833737235 0 0 0
693 2 7.642172892079246 13.632851230571527 7.273646564682039 0 0 0
260 2 9.67888303412022 23.288426393219112 9.687565026251463 0 0 0
214 1 5.901790786100036 12.913440849934064 10.029594641098805 1 1 -1
845 2 -0.46833950563739407 12.894193799480394 12.213867644705111 0 0 0
945 2 8.699674250035981 15.462938072320846 8.556176860328833 0 0 0
727 2 10.278315110928345 13.92969007390162 9.486335508205144 0 0 0
392 2 10.494759236141562 13.660984259273777 11.60155288212334 0 0 0
465 2 11.020698130644746 13.130360601018488 6.390558047793046 0 0 0
80 1 11.539848657378089 14.411592500465181 6.845982996533034 0 0 0
688 2 7.067739273632687 24.382841979237398 12.0972097313077 0 0 0
867 2 8.10926220925813 25.049075851483995 10.040293133497288 0 -1 0
676 2 1.8229942471692824 16.93656555181467 8.992006402657156 0 0 0
889 2 0.5826479741288011 18.711076434303855 10.041550940463594 1 -1 0
358 2 -0.24917998277982933 19.947186100234735 6.429882947744647 0 0 0
836 2 1.499129232966066 20.875208659479725 9.864158208986217 0 0 0
326 2 1.471278202191579 18.431473875860206 5.754444356356764 0 0 1
517 2 5.322283406883113 16.04693704994139 5.809369771341226 1 0 1
619 2 4.067632914984894 17.108100634509945 8.867642171575135 1 0 0
463 2 4.582954767644879 18.515534909912695 10.666451898931884 1 0 0
581 2 4.879079581981967 18.025014711317226 6.793549590405375 0 0 0
276 2 6.90505516518607 19.44511600269921 6.883291923733121 0 0 0
793 2 6.985359620917346 18.307843054674542 10.898331675451367 0 -1 0
692 2 3.785764276608484 20.639652813555845 10.22009964389963 0 0 0
269 2 10.308586293333086 16.965244567996763 7.676545424900942 0 0 0
789 2 10.640724105560139 20.87453848008619 6.787844521234075 0 0 0
325 2 9.255350146311818 19.15819416333514 7.763506958528229 0 0 0
798 2 8.730751923789905 19.591807389529304 10.05981262345668 0 0 0
997 2 10.686646684745941 19.186143931975113 11.335037032056903 0 -1 0
180 1 12.017304455804181 18.931380642611042 10.814341514847172 0 0 0
822 2 1.8308883311714403 22.86939312984653 6.545627928479593 1 0 0
327 2 0.5061384749948914 21.67498493460909 7.875163060629067 1 0 0
503 2 2.450960945412191 24.705973556946766 7.682773081119304 0 -1 1
903 2 1.0168101483344778 22.056978398603988 11.888820192277825 0 0 0
555 2 -0.522630496390966 23.32444633671791 9.094278192682333 1 -1 0
550 2 0.7385393291077658 25.350931655274824 9.123942947534037 0 -1 0
404 2 3.566327393147347 24.939373492356665 11.465584699073078 0 -1 0
407 2 3.716663521403902 21.482145188360647 6.2955006386323 0 0 0
658 2 6.094383605355373 25.25651084727306 8.684312229610725 0 0 0
620 2 6.754440857604605 21.529051222742304 7.982345220902667 0 0 0
677 2 4.439452457643012 21.90874659553823 8.462458695033193 0 0 0
690 2 4.040297996283132 24.2012839111252 9.236675699813775 0 0 0
548 2 7.701792197758081 23.092181307673354 6.638222354075597 0 -1 0
637 2 6.614969993007276 22.016059026566175 11.950492095871464 0 0 -1
643 2 7.961888137703664 21.72713214070958 10.03241326243424 0 0 0
841 2 6.633961399230032 25.12110515176397 6.61493422727535 0 0 0
904 2 10.742257252202407 23.196012699477535 11.796988960196899 0 -1 0
414 2 10.029697244106588 23.111022889235088 7.313162311289499 0 0 0
559 2 11.263165496398427 25.007692040022203 6.603209209709637 0 0 0
483 2 8.502187354805127 12.690482526099666 12.114087961588313 0 0 0
596 2 0.47201148279702076 12.915407792283345 5.689624792756712 0 0 0
431 2 1.6236138967948275 14.753655195454943 14.431450786486026 0 0 0
784 2 0.0272488461326027 16.353334512954095 15.10120914252862 1 0 0
536 2 2.8997129454888153 13.609000442036983 18.443014388504135 0 0 0
471 2 3.1887769695443424 14.76120643354926 16.306870976035107 1 0 0
984 2 1.3241887731017439 12.494311956834538 13.598246223930868 1 0 0
645 2 11.674110843701614 21.105147727696828 12.55174646796648 0 0 0
406 2 3.543562868477644 15.545337699925327 13.045055191106927 0 0 0
530 2 5.187498440619936 13.947120086900922 15.63060526144115 0 0 0
279 2 6.630744958002106 14.358921096154326 17.369585481570375 0 0 0
535 2 5.850150599696919 15.541242077266745 13.988900281452722 0 0 0
112 1 6.993920310822905 15.728875884578013 16.980841601807683 0 -2 -1
959 2 7.594464813819702 14.96369697886587 12.569517660807959 0 0 0
84 1 6.502720339166258 24.085516160767657 17.269102045014883 0 0 0
482 2 9.840719420423635 15.481798705015226 13.115465840444418 0 0 0
381 2 10.960568795497725 14.504707579806606 14.963314784225641 0 0 0
983 2 10.277756570963728 14.623151671729977 17.17992862031697 0 0 0
371 2 8.420045203842028 13.022090544695153 16.925908485467186 0 0 0
730 2 9.378880611563725 21.924110469677693 16.95403615990548 0 -1 0
788 2 -0.4359499116391999 16.82509649200844 12.97899389306653 0 0 0
459 2 0.021596798790524896 18.596983640377854 18.230931361554518 1 0 0
969 2 1.2462169177333404 18.14660183152978 16.31648207538032 0 0 0
684 2 0.34815834322324357 20.236492595954807 13.435674893228635 0 -1 0
323 2 1.9125868123667464 20.06023805125873 15.138153113922982 0 0 0
416 2 3.35466358179003 17.907218070587692 12.610438797154993 0 0 0
622 2 3.1448407564918046 16.979209046714033 17.08590654838499 0 0 0
292 2 8.989403553376038 22.305500309778523 14.621491367056194 0 0 0
505 2 3.833562076202509 19.76018026572762 13.809924571438573 0 0 0
11 1 4.315182425917789 17.618130136457882 16.339995113347083 0 -1 1
948 2 6.724466415199185 17.78919320840712 14.910948503068163 0 0 0
611 2 5.575726519851871 19.88879021970377 15.248691023429274 1 0 0
365 2 7.372531957929411 20.77956442311818 13.826791189726947 0 -1 0
470 2 5.765987359662288 20.828456596203374 17.395890267578896 0 0 0
10 1 4.744006184879302 20.283174612824254 18.28255014169061 1 -2 0
744 2 7.841295675972649 18.560177397560008 13.112241869160393 0 0 0
644 2 9.533492007140405 16.66174732851131 17.85129902451853 0 0 0
723 2 7.834966716006992 20.10783383711015 17.58897409184657 0 0 0
317 2 11.749663211067698 17.457775489753654 18.290555458472845 0 0 0
255 2 8.563065398836056 18.242480337586 16.272108595810582 0 0 -1
931 2 10.570001211575127 18.763749184438726 15.10716394020293 0 0 0
401 2 10.185239965058567 17.771869958910948 13.131818313303974 0 0 -1
305 2 11.920728448144 19.768732442861932 18.597679990834678 0 -1 0
916 2 11.002306549273513 21.095720766314077 14.9093892652654 0 -1 0
486 2 10.362616468997544 23.226418963187005 18.497789216379214 0 0 -1
833 2 1.7849623351348916 22.236808354005024 16.21804660525443 0 -1 0
799 2 -0.05251270194743152 22.62931532219639 17.542715266146995 0 -1 0
638 2 2.647043581348298 23.95838141556526 14.953763334907295 0 -1 0
350 2 2.8299850017908055 23.178111330704024 12.732376043334861 0 0 0
235 1 2.7987481123946183 22.001269666549977 17.291901788978066 0 -1 0
170 1 -0.011354011357595284 25.27496642287243 15.890937361071469 0 -1 0