 vasp.6.5.0 16Dec24 (build Jan 20 2025 08:32:48) complex                         
 executed on        HPECrayEX_GCC date 2025.07.29  09:57:11
 running  128 mpi-ranks, with    1 threads/rank, on    1 nodes
 distrk:  each k-point on  128 cores,    1 groups
 distr:  one band on NCORE=  16 cores,    8 groups


--------------------------------------------------------------------------------------------------------


 INCAR:
   SYSTEM = a-Si SPC
   NCORE = 16
   ISTART = 1
   ICHARG = 1
   ISPIN = 1
   ISYM = 1
   EDIFF = 1E-6
   NELM = 150
   EDIFFG = -0.01
   NSW = 0
   ISIF = 2
   IBRION = -1
   PREC = Accurate
   ENCUT = 1200
   KSPACING = 0.23
   KGAMMA = .TRUE.
   METAGGA = SCAN
   LASPH = .TRUE.
   LDIAG = .FALSE.
   LMIXTAU = .TRUE.
   ADDGRID = .TRUE.
   ALGO = Normal
   ISMEAR = 0
   SIGMA = 0.1
   LORBIT = 11
   NEDOS = 2000
   LWAVE = .FALSE.
   LCHARG = .FALSE.

 POTCAR:    PAW_PBE H 15Jun2001                   
 POTCAR:    PAW_PBE Si 05Jan2001                  
 POTCAR:    PAW_PBE H 15Jun2001                   
   SHA256 =  030f79b5d3ab3cf0e668861823c8fb652ff669f3e15e46930bd03bfd63a607b6 H/POTCAR              
   COPYR  = (c) Copyright 15Jun2001 Georg Kresse                                                    
   COPYR  = This file is part of the software VASP. Any use, copying, and all other rights are regul
   COPYR  = If you do not have a valid VASP license, you may not use, copy or distribute this file. 
   VRHFIN =H: ultrasoft test                                                                        
   LEXCH  = PE                                                                                      
   EATOM  =    12.4884 eV,    0.9179 Ry                                                             
                                                                                                    
   TITEL  = PAW_PBE H 15Jun2001                                                                     
   LULTRA =        F    use ultrasoft PP ?                                                          
   IUNSCR =        0    unscreen: 0-lin 1-nonlin 2-no                                               
   RPACOR =    0.000    partial core radius                                                         
   POMASS =    1.000; ZVAL   =    1.000    mass and valenz                                          
   RCORE  =    1.100    outmost cutoff radius                                                       
   RWIGS  =    0.700; RWIGS  =    0.370    wigner-seitz radius (au A)                               
   ENMAX  =  250.000; ENMIN  =  200.000 eV                                                          
   RCLOC  =    0.701    cutoff for local pot                                                        
   LCOR   =        T    correct aug charges                                                         
   LPAW   =        T    paw PP                                                                      
   EAUG   =  400.000                                                                                
   RMAX   =    1.123    core radius for proj-oper                                                   
   RAUG   =    1.200    factor for augmentation sphere                                              
   RDEP   =    1.112    radius for radial grids                                                     
   RDEPT  =    0.926    core radius for aug-charge                                                  
                                                                                                    
   Atomic configuration                                                                             
    2 entries                                                                                       
     n  l   j            E        occ.                                                              
     1  0  0.50        -6.4927   1.0000                                                             
     2  1  0.50        -3.4015   0.0000                                                             
   Description                                                                                      
     l       E           TYP  RCUT    TYP  RCUT                                                     
     0     -6.4927494     23  1.100                                                                 
     0      6.8029130     23  1.100                                                                 
     1     -4.0817478     23  1.100                                                                 
  local pseudopotential read in
  atomic valenz-charges read in
  non local Contribution for L=           0  read in
    real space projection operators read in
  non local Contribution for L=           0  read in
    real space projection operators read in
  non local Contribution for L=           1  read in
    real space projection operators read in
    PAW grid and wavefunctions read in

   number of l-projection  operators is LMAX  =           3
   number of lm-projection operators is LMMAX =           5

 POTCAR:    PAW_PBE Si 05Jan2001                  
   SHA256 =  79d9987ad8750f624c4d6acb2a16d13abf6a777132adc04dc6c8399be72b42bb Si/POTCAR             
   COPYR  = (c) Copyright 05Jan2001 Georg Kresse                                                    
   COPYR  = This file is part of the software VASP. Any use, copying, and all other rights are regul
   COPYR  = If you do not have a valid VASP license, you may not use, copy or distribute this file. 
   VRHFIN =Si: s2p2                                                                                 
   LEXCH  = PE                                                                                      
   EATOM  =   103.0669 eV,    7.5752 Ry                                                             
                                                                                                    
   TITEL  = PAW_PBE Si 05Jan2001                                                                    
   LULTRA =        F    use ultrasoft PP ?                                                          
   IUNSCR =        1    unscreen: 0-lin 1-nonlin 2-no                                               
   RPACOR =    1.500    partial core radius                                                         
   POMASS =   28.085; ZVAL   =    4.000    mass and valenz                                          
   RCORE  =    1.900    outmost cutoff radius                                                       
   RWIGS  =    2.480; RWIGS  =    1.312    wigner-seitz radius (au A)                               
   ENMAX  =  245.345; ENMIN  =  184.009 eV                                                          
   ICORE  =        2    local potential                                                             
   LCOR   =        T    correct aug charges                                                         
   LPAW   =        T    paw PP                                                                      
   EAUG   =  322.069                                                                                
   DEXC   =    0.000                                                                                
   RMAX   =    1.950    core radius for proj-oper                                                   
   RAUG   =    1.300    factor for augmentation sphere                                              
   RDEP   =    1.993    radius for radial grids                                                     
   RDEPT  =    1.837    core radius for aug-charge                                                  
                                                                                                    
   Atomic configuration                                                                             
    6 entries                                                                                       
     n  l   j            E        occ.                                                              
     1  0  0.50     -1785.8828   2.0000                                                             
     2  0  0.50      -139.4969   2.0000                                                             
     2  1  1.50       -95.5546   6.0000                                                             
     3  0  0.50       -10.8127   2.0000                                                             
     3  1  0.50        -4.0811   2.0000                                                             
     3  2  1.50        -4.0817   0.0000                                                             
   Description                                                                                      
     l       E           TYP  RCUT    TYP  RCUT                                                     
     0    -10.8127223     23  1.900                                                                 
     0     -7.6451159     23  1.900                                                                 
     1     -4.0811372     23  1.900                                                                 
     1      2.4879257     23  1.900                                                                 
     2     -4.0817478      7  1.900                                                                 
  local pseudopotential read in
  partial core-charges read in
  partial kinetic energy density read in
  atomic valenz-charges read in
  non local Contribution for L=           0  read in
    real space projection operators read in
  non local Contribution for L=           0  read in
    real space projection operators read in
  non local Contribution for L=           1  read in
    real space projection operators read in
  non local Contribution for L=           1  read in
    real space projection operators read in
    PAW grid and wavefunctions read in

   number of l-projection  operators is LMAX  =           4
   number of lm-projection operators is LMMAX =           8

 -----------------------------------------------------------------------------
|                                                                             |
|               ----> ADVICE to this user running VASP <----                  |
|                                                                             |
|     You have a (more or less) 'large supercell' and for larger cells it     |
|     might be more efficient to use real-space projection operators.         |
|     Therefore, try LREAL= Auto in the INCAR file.                           |
|     Mind: For very accurate calculation, you might also keep the            |
|     reciprocal projection scheme (i.e. LREAL=.FALSE.).                      |
|                                                                             |
 -----------------------------------------------------------------------------

 -----------------------------------------------------------------------------
|                                                                             |
|               ----> ADVICE to this user running VASP <----                  |
|                                                                             |
|     You enforced a specific xc type in the INCAR file but a different       |
|     type was found in the POTCAR file.                                      |
|     I HOPE YOU KNOW WHAT YOU ARE DOING!                                     |
|                                                                             |
 -----------------------------------------------------------------------------

  PAW_PBE H 15Jun2001                   :
 energy of atom  1       EATOM=  -12.4884
 kinetic energy error for atom=    0.0000 (will be added to EATOM!!)
  PAW_PBE Si 05Jan2001                  :
 energy of atom  2       EATOM= -103.0669
 kinetic energy error for atom=    0.0001 (will be added to EATOM!!)


 POSCAR:  H Si
  positions in cartesian coordinates
  No initial velocities read in


 exchange-correlation table for SCAN
   RHO(1)=    0.500       N(1)  =     2000
   RHO(2)=  100.500       N(2)  =     4000



--------------------------------------------------------------------------------------------------------


 ion  position               nearest neighbor table
   1  0.899  0.389  0.446-  55 1.51
   2  0.742  0.552  0.382-   5 1.47
   3  0.764  0.332  0.512-  13 1.63  23 1.68
   4  0.964  0.674  0.515-  30 1.49
   5  0.748  0.534  0.439-   2 1.47  39 2.34  55 2.36  38 2.41
   6  0.468  0.181  0.587-  25 2.34  37 2.36  27 2.41
   7  0.539  0.667  0.536-  61 2.34  44 2.36  57 2.37  12 2.39
   8  0.175  0.236  0.537-  34 2.33  28 2.34  58 2.37  41 2.38
   9  0.110  0.815  0.458-  22 2.36  42 2.40  45 2.50  32 2.60  29 2.78  26 2.85
  10  0.692  0.146  0.488-  49 2.30  13 2.32  20 2.34  37 2.34  43 3.06
  11  0.918  0.851  0.570-  35 2.29  45 2.31  30 2.37  29 2.85
  12  0.637  0.764  0.484-  39 2.29  24 2.37  59 2.37   7 2.39  48 2.77  57 3.06
  13  0.808  0.253  0.474-   3 1.63  50 2.31  10 2.32
  14  0.120  0.420  0.457-  47 2.31  31 2.34  28 2.35  16 2.38
  15  0.323  0.080  0.444-  56 2.28  34 2.36  32 2.41  33 2.74  27 2.86
  16  0.262  0.361  0.425-  14 2.38  34 2.39  31 2.45  19 2.46
  17  0.382  0.438  0.532-  40 2.31  25 2.32  44 2.32  19 2.48  53 3.07
  18  0.742  0.484  0.605-  23 2.32  57 2.33  46 2.35
  19  0.356  0.498  0.442-  53 2.36  44 2.40  16 2.46  17 2.48
  20  0.591  0.165  0.417-  56 2.32  43 2.33  10 2.34
  21  0.494  0.901  0.553-  24 2.29  27 2.32  61 2.34  48 2.38  33 3.05
  22  0.128  0.656  0.474-  53 2.30  47 2.31   9 2.36  26 2.37
  23  0.678  0.376  0.548-   3 1.68  18 2.32  38 2.33  37 2.34  43 3.05
  24  0.650  0.884  0.547-  21 2.29  49 2.31  12 2.37  59 2.75  48 2.88
  25  0.423  0.285  0.522-  34 2.30  17 2.32   6 2.34  43 2.36  37 2.89
  26  0.149  0.729  0.557-  45 2.31  54 2.37  22 2.37   9 2.85  53 3.01
  27  0.431  0.045  0.537-  21 2.32  56 2.39   6 2.41  33 2.47  15 2.86  48 3.04
  28  0.146  0.393  0.548-  36 2.31   8 2.34  14 2.35  40 2.38
  29  0.973  0.944  0.476-  52 2.31  35 2.31  42 2.31  45 2.60   9 2.78  11 2.85  30 3.14
  30  0.896  0.747  0.499-   4 1.49  39 2.32  11 2.37  42 2.37  29 3.14
  31  0.113  0.303  0.394-  14 2.34  58 2.37  16 2.45
  32  0.215  0.955  0.436-  52 2.33  33 2.40  15 2.41   9 2.60  60 2.98
  33  0.298  0.944  0.518-  60 2.34  32 2.40  27 2.47  54 2.67  15 2.74  21 3.05
  34  0.297  0.229  0.478-  25 2.30   8 2.33  15 2.36  16 2.39
  35  0.883  0.998  0.545-  11 2.29  49 2.30  51 2.31  29 2.31
  36  0.989  0.375  0.559-  46 2.26  28 2.31  50 2.35  55 3.12
  37  0.608  0.231  0.550-  23 2.34  10 2.34   6 2.36  43 2.53  25 2.89
  38  0.621  0.444  0.471-  44 2.32  23 2.33  43 2.37   5 2.41
  39  0.760  0.665  0.492-  12 2.29  30 2.32  57 2.32   5 2.34
  40  0.256  0.509  0.570-  17 2.31  28 2.38  53 2.43
  41  0.122  0.125  0.600-  60 2.30  51 2.37   8 2.38
  42  0.958  0.817  0.422-  29 2.31  30 2.37   9 2.40
  43  0.550  0.297  0.464-  20 2.33  25 2.36  38 2.37  37 2.53  23 3.05  10 3.06
  44  0.492  0.531  0.493-  17 2.32  38 2.32   7 2.36  19 2.40
  45  0.072  0.868  0.550-  26 2.31  60 2.31  11 2.31   9 2.50  29 2.60
  46  0.885  0.491  0.561-  36 2.26  55 2.34  18 2.35
  47  0.034  0.547  0.435-  22 2.31  14 2.31  55 2.37
  48  0.524  0.911  0.461-  56 2.33  59 2.37  21 2.38  12 2.77  24 2.88  27 3.04
  49  0.737  0.999  0.509-  10 2.30  35 2.30  24 2.31  59 2.38
  50  0.944  0.235  0.520-  51 2.29  13 2.31  36 2.35  58 2.36
  51  0.962  0.120  0.581-  50 2.29  35 2.31  41 2.37
  52  0.092  0.046  0.463-  29 2.31  32 2.33  58 2.35  60 2.39
  53  0.275  0.607  0.493-  22 2.30  19 2.36  40 2.43  54 2.46  26 3.01  17 3.07
  54  0.302  0.761  0.530-  61 2.30  26 2.37  53 2.46  33 2.67
  55  0.894  0.486  0.468-   1 1.51  46 2.34   5 2.36  47 2.37  36 3.12
  56  0.479  0.063  0.447-  15 2.28  20 2.32  48 2.33  27 2.39
  57  0.684  0.620  0.569-  39 2.32  18 2.33   7 2.37  12 3.06
  58  0.073  0.207  0.466-  52 2.35  50 2.36  31 2.37   8 2.37
  59  0.683  0.901  0.440-  48 2.37  12 2.37  49 2.38  24 2.75
  60  0.156  0.003  0.546-  41 2.30  45 2.31  33 2.34  52 2.39  32 2.98
  61  0.433  0.760  0.580-  54 2.30  21 2.34   7 2.34

  LATTYP: Found a simple tetragonal cell.
 ALAT       =    14.5342042383
 C/A-ratio  =     1.7360200522
  
  Lattice vectors:
  
 A1 = (  14.5342042383,   0.0000000000,   0.0000000000)
 A2 = (   0.0000000000,  14.5342042383,   0.0000000000)
 A3 = (   0.0000000000,   0.0000000000,  25.2316700000)


Analysis of symmetry for initial positions (statically):
=====================================================================
 Subroutine PRICEL returns:
 Original cell was already a primitive cell.
 

 Routine SETGRP: Setting up the symmetry group for a 
 simple tetragonal supercell.


 Subroutine GETGRP returns: Found  1 space group operations
 (whereof  1 operations were pure point group operations)
 out of a pool of 16 trial point group operations.


The static configuration has the point symmetry C_1 .


Analysis of symmetry for dynamics (positions and initial velocities):
=====================================================================
 Subroutine PRICEL returns:
 Original cell was already a primitive cell.
 

 Routine SETGRP: Setting up the symmetry group for a 
 simple tetragonal supercell.


 Subroutine GETGRP returns: Found  1 space group operations
 (whereof  1 operations were pure point group operations)
 out of a pool of 16 trial point group operations.


The dynamic configuration has the point symmetry C_1 .


 Subroutine INISYM returns: Found  1 space group operations
 (whereof  1 operations are pure point group operations),
 and found     1 'primitive' translations


----------------------------------------------------------------------------------------

                                     Primitive cell                                     

  volume of cell :    5330.0160

  direct lattice vectors                    reciprocal lattice vectors
    14.534204238  0.000000000  0.000000000     0.068803216  0.000000000  0.000000000
     0.000000000 14.534204238  0.000000000     0.000000000  0.068803216  0.000000000
     0.000000000  0.000000000 25.231670000     0.000000000  0.000000000  0.039632731

  length of vectors
    14.534204238 14.534204238 25.231670000     0.068803216  0.068803216  0.039632731

  position of ions in fractional coordinates (direct lattice)
     0.899272337  0.389206667  0.446391969
     0.741536717  0.551659571  0.381770063
     0.764035488  0.331779249  0.512041963
     0.963710681  0.674282353  0.515119556
     0.747759004  0.533588349  0.439147529
     0.467526718  0.180574899  0.587185191
     0.538562765  0.666947168  0.535572407
     0.174762403  0.236099710  0.537460849
     0.110304839  0.814572622  0.457781509
     0.691698506  0.146263503  0.488112368
     0.917983740  0.850684813  0.570178734
     0.637297986  0.763829044  0.484098721
     0.808347100  0.252598399  0.474118095
     0.120157564  0.419679298  0.457488859
     0.323214827  0.079632810  0.443840820
     0.262299296  0.360763749  0.425164759
     0.381895661  0.437944241  0.532366824
     0.742262129  0.484449241  0.604578179
     0.356322824  0.498293746  0.441663748
     0.590776631  0.164709943  0.416676149
     0.494467602  0.901379642  0.553291153
     0.128369953  0.655880555  0.473576632
     0.677616105  0.376044099  0.548425423
     0.650441885  0.883741996  0.547190096
     0.423075813  0.284995976  0.521617118
     0.149248265  0.729168636  0.556769513
     0.431114349  0.044811897  0.536658136
     0.146023433  0.393350902  0.548006103
     0.973103092  0.944313844  0.476163443
     0.896301458  0.746661537  0.499131082
     0.113341511  0.302740774  0.394000732
     0.215128308  0.954880629  0.436035446
     0.297978877  0.943751827  0.517918873
     0.296669288  0.228663786  0.477739395
     0.882550625  0.998054639  0.544807478
     0.988960260  0.375308588  0.558882802
     0.607981490  0.231171648  0.550463162
     0.620559979  0.443525069  0.471278880
     0.759770083  0.665210818  0.492289738
     0.255712301  0.508741115  0.570276329
     0.122015372  0.125460106  0.599767122
     0.957632098  0.816946842  0.421980360
     0.550357790  0.296542620  0.463781312
     0.491887158  0.530839455  0.492515376
     0.072237617  0.867749684  0.549586803
     0.885004069  0.491009226  0.560638909
     0.033758772  0.547256831  0.434770592
     0.523703132  0.911262355  0.460819280
     0.737315949  0.999454579  0.508984336
     0.944326219  0.235294012  0.520441611
     0.962353512  0.120011130  0.581450871
     0.092207645  0.046470368  0.462579168
     0.274667086  0.606832478  0.493133095
     0.301684886  0.761442898  0.529554047
     0.894362960  0.485822702  0.467982945
     0.479298808  0.063236808  0.446918662
     0.683636385  0.620275669  0.568825899
     0.073272986  0.206746442  0.466124522
     0.682509818  0.901075263  0.440266218
     0.156237958  0.002685443  0.545932425
     0.433374631  0.760447323  0.580446624

  ion indices of the primitive-cell ions
   primitive index   ion index
                 1           1
                 2           2
                 3           3
                 4           4
                 5           5
                 6           6
                 7           7
                 8           8
                 9           9
                10          10
                11          11
                12          12
                13          13
                14          14
                15          15
                16          16
                17          17
                18          18
                19          19
                20          20
                21          21
                22          22
                23          23
                24          24
                25          25
                26          26
                27          27
                28          28
                29          29
                30          30
                31          31
                32          32
                33          33
                34          34
                35          35
                36          36
                37          37
                38          38
                39          39
                40          40
                41          41
                42          42
                43          43
                44          44
                45          45
                46          46
                47          47
                48          48
                49          49
                50          50
                51          51
                52          52
                53          53
                54          54
                55          55
                56          56
                57          57
                58          58
                59          59
                60          60
                61          61

----------------------------------------------------------------------------------------


 -----------------------------------------------------------------------------
|                                                                             |
|           W    W    AA    RRRRR   N    N  II  N    N   GGGG   !!!           |
|           W    W   A  A   R    R  NN   N  II  NN   N  G    G  !!!           |
|           W    W  A    A  R    R  N N  N  II  N N  N  G       !!!           |
|           W WW W  AAAAAA  RRRRR   N  N N  II  N  N N  G  GGG   !            |
|           WW  WW  A    A  R   R   N   NN  II  N   NN  G    G                |
|           W    W  A    A  R    R  N    N  II  N    N   GGGG   !!!           |
|                                                                             |
|     The requested file  could not be found or opened for reading            |
|     k-point information. Automatic k-point generation is used as a          |
|     fallback, which may lead to unwanted results.                           |
|                                                                             |
 -----------------------------------------------------------------------------



Automatic generation of k-mesh.
 Grid dimensions derived from KSPACING:
 generate k-points for:    2    2    2

 Generating k-lattice:

  Cartesian coordinates                     Fractional coordinates (reciprocal lattice)
     0.034401608  0.000000000  0.000000000     0.500000000  0.000000000  0.000000000
     0.000000000  0.034401608  0.000000000     0.000000000  0.500000000  0.000000000
     0.000000000  0.000000000  0.019816366     0.000000000  0.000000000  0.500000000

  Length of vectors
     0.034401608  0.034401608  0.019816366

  Shift w.r.t. Gamma in fractional coordinates (k-lattice)
     0.000000000  0.000000000  0.000000000

 
 Subroutine IBZKPT returns following result:
 ===========================================
 
 Found      8 irreducible k-points:
 
 Following reciprocal coordinates:
            Coordinates               Weight
  0.000000  0.000000  0.000000      1.000000
  0.500000  0.000000  0.000000      1.000000
  0.000000  0.500000  0.000000      1.000000
  0.500000  0.500000  0.000000      1.000000
  0.000000  0.000000  0.500000      1.000000
  0.500000  0.000000  0.500000      1.000000
  0.000000  0.500000  0.500000      1.000000
  0.500000  0.500000  0.500000      1.000000
 
 Following cartesian coordinates:
            Coordinates               Weight
  0.000000  0.000000  0.000000      1.000000
  0.034402  0.000000  0.000000      1.000000
  0.000000  0.034402  0.000000      1.000000
  0.034402  0.034402  0.000000      1.000000
  0.000000  0.000000  0.019816      1.000000
  0.034402  0.000000  0.019816      1.000000
  0.000000  0.034402  0.019816      1.000000
  0.034402  0.034402  0.019816      1.000000
 


--------------------------------------------------------------------------------------------------------




 Dimension of arrays:
   k-points           NKPTS =      8   k-points in BZ     NKDIM =      8   number of bands    NBANDS=    152
   number of dos      NEDOS =   2000   number of ions     NIONS =     61
   non local maximal  LDIM  =      4   non local SUM 2l+1 LMDIM =      8
   total plane-waves  NPLWV = ******
   max r-space proj   IRMAX =      1   max aug-charges    IRDMAX= 408070
   dimension x,y,z NGX =   168 NGY =  168 NGZ =  288
   dimension x,y,z NGXF=   336 NGYF=  336 NGZF=  576
   support grid    NGXF=   672 NGYF=  672 NGZF= 1152
   ions per type =               4  57
   NGX,Y,Z   is equivalent  to a cutoff of  19.22, 19.22, 18.98 a.u.
   NGXF,Y,Z  is equivalent  to a cutoff of  38.43, 38.43, 37.95 a.u.

 SYSTEM =  a-Si SPC                                
 POSCAR =   H Si                                   

 Startparameter for this run:
   NWRITE =      2    write-flag & timer
   PREC   = accura    normal or accurate (medium, high low for compatibility)
   ISTART =      1    job   : 0-new  1-cont  2-samecut
   ICHARG =      1    charge: 1-file 2-atom 10-const
   ISPIN  =      1    spin polarized calculation?
   LNONCOLLINEAR =      F non collinear calculations
   LSORBIT =      F    spin-orbit coupling
   INIWAV =      1    electr: 0-lowe 1-rand  2-diag
   LASPH  =      T    aspherical Exc in radial PAW
 Electronic Relaxation 1
   ENCUT  = 1200.0 eV  88.20 Ry    9.39 a.u.  41.05 41.05 71.27*2*pi/ulx,y,z
   ENINI  = 1200.0     initial cutoff
   ENAUG  =  400.0 eV  augmentation charge cutoff
   NELM   =    150;   NELMIN=  2; NELMDL=  0     # of ELM steps 
   EDIFF  = 0.1E-05   stopping-criterion for ELM
   LREAL  =      F    real-space projection
   NLSPLINE    = F    spline interpolate recip. space projectors
   LCOMPAT=      F    compatible to vasp.4.4
   GGA_COMPAT  = T    GGA compatible to vasp.4.4-vasp.4.6
   LMAXPAW     = -100 max onsite density
   LMAXMIX     =    2 max onsite mixed and CHGCAR
   VOSKOWN=      0    Vosko Wilk Nusair interpolation
   ROPT   =    0.00000   0.00000
 Ionic relaxation
   EDIFFG = -.1E-01   stopping-criterion for IOM
   NSW    =      0    number of steps for IOM
   NBLOCK =      1;   KBLOCK =      1    inner block; outer block 
   IBRION =     -1    ionic relax: 0-MD 1-quasi-New 2-CG
   NFREE  =      0    steps in history (QN), initial steepest desc. (CG)
   ISIF   =      2    stress and relaxation
   IWAVPR =     10    prediction:  0-non 1-charg 2-wave 3-comb
   ISYM   =      1    0-nonsym 1-usesym 2-fastsym
   LCORR  =      T    Harris-Foulkes like correction to forces

   POTIM  = 0.5000    time-step for ionic-motion
   TEIN   =    0.0    initial temperature
   TEBEG  =    0.0;   TEEND  =   0.0 temperature during run
   SMASS  =  -3.00    Nose mass-parameter (am)
   estimated Nose-frequenzy (Omega)   =  0.10E-29 period in steps = 0.13E+47 mass=  -0.483E-26a.u.
   SCALEE = 1.0000    scale energy and forces
   NPACO  =    256;   APACO  = 10.0  distance and # of slots for P.C.
   PSTRESS=    0.0 pullay stress

  Mass of Ions in am
   POMASS =   1.00 28.09
  Ionic Valenz
   ZVAL   =   1.00  4.00
  Atomic Wigner-Seitz radii
   RWIGS  =  -1.00 -1.00
  virtual crystal weights 
   VCA    =   1.00  1.00
   NELECT =     232.0000    total number of electrons
   NUPDOWN=      -1.0000    fix difference up-down

 DOS related values:
   EMIN   =  10.00;   EMAX   =-10.00  energy-range for DOS
   EFERMI =   0.00;   METHOD = LEGACY      
   ISMEAR =     0;   SIGMA  =   0.10  broadening in eV -4-tet -1-fermi 0-gaus
   EFERMI_NEDOS =   21; number of points for ismear=-14 and -15

 Electronic relaxation 2 (details)
   IALGO  =     38    algorithm
   LDIAG  =      F    sub-space diagonalisation (order eigenvalues)
   LSUBROT=      F    optimize rotation matrix (better conditioning)
   TURBO    =      0    0=normal 1=particle mesh
   IRESTART =      0    0=no restart 2=restart with 2 vectors
   NREBOOT  =      0    no. of reboots
   NMIN     =      0    reboot dimension
   EREF     =   0.00    reference energy to select bands
   IMIX   =      4    mixing-type and parameters
     AMIX     =   0.40;   BMIX     =  1.00
     AMIX_MAG =   1.60;   BMIX_MAG =  1.00
     AMIN     =   0.10
     WC   =   100.;   INIMIX=   1;  MIXPRE=   1;  MAXMIX= -45

 Intra band minimization:
   WEIMIN = 0.0000     energy-eigenvalue tresh-hold
   EBREAK =  0.16E-08  absolut break condition
   DEPER  =   0.30     relativ break condition  

   TIME   =   0.40     timestep for ELM

  volume/ion in A,a.u.               =      87.38       589.65
  Fermi-wavevector in a.u.,A,eV,Ry     =   0.575875  1.088245  4.512123  0.331632
  Thomas-Fermi vector in A             =   1.618147

 Write flags
   LWAVE        =      F    write WAVECAR
   LDOWNSAMPLE  =      F    k-point downsampling of WAVECAR
   LCHARG       =      F    write CHGCAR
   LVTOT        =      F    write LOCPOT, total local potential
   LVHAR        =      F    write LOCPOT, Hartree potential only
   WRT_POTENTIAL= false  ! write potential to hdf5 file
   LELF         =      F    write electronic localiz. function (ELF)
   LORBIT       =     11    0 simple, 1 ext, 2 COOP (PROOUT), +10 PAW based schemes


 Python interface
   PLUGINS active      =      F    recompile with -DPLUGINS to activate

 Dipole corrections
   LMONO      =      F    monopole corrections only (constant potential shift)
   LDIPOL     =      F    correct potential (dipole corrections)
   IDIPOL     =      0    1-x, 2-y, 3-z, 4-all directions 
   EPSILON    =  1.0000000 bulk dielectric constant
   LVACPOTAV  =      F  vacuum potentials using an averaging scheme for the charge density
   VACPOTFLAT =  0.1000000 required flatness to determine vacuum potential

Coulomb truncation method
  LTRUNCATE          =      F  Coulomb kernel truncation to be used
  IDIMENSIONALITY    =      3  Dimensionality of cutoff (0 molecules / 2 surfaces)
  ISURFACE           =     -1  Direction of surface normal
  LCOARSEN           =      F  Coarsen the charge grid before padding, preferred


 Exchange correlation treatment:
   METAGGA = SCAN    functional components
   XC_C    = 1    coefficients multiplying the functional components
   LIBXC   =     F    Libxc                    
   VOSKOWN =     0    Vosko Wilk Nusair interpolation
   LHFCALC =     F    Hartree Fock is set to
   LHFONE  =     F    Hartree Fock one center treatment
   AEXX    =    0.0000 exact exchange contribution

 Parameters of functionals:
   SCAN:
     P1 =  0.000000E+00
     P2 =  0.000000E+00
     P3 =  0.000000E+00

 Accuracy and mixing parameters for tau-dependent meta-GGA functionals:
   LMAXTAU = 6
   LMIXTAU = T

 Van der Waals corrections
   IVDW    =     0    specifies the selected vdW correction

 Linear response parameters
   LEPSILON=     F    determine dielectric tensor
   LRPA    =     F    only Hartree local field effects (RPA)
   LNABLA  =     F    use nabla operator in PAW spheres
   LVEL    =     F    velocity operator in full k-point grid
   CSHIFT  =0.1000    complex shift for real part using Kramers Kronig
   OMEGAMAX=  -1.0    maximum frequency
   DEG_THRESHOLD= 0.2000000E-02 threshold for treating states as degnerate
   RTIME   =   -0.100 relaxation time in fs
  (WPLASMAI=    0.000 imaginary part of plasma frequency in eV, 0.658/RTIME)
   DFIELD  = 0.0000000 0.0000000 0.0000000 field for delta impulse in time

  Optional k-point grid parameters
   LKPOINTS_OPT  =     F    use optional k-point grid
   KPOINTS_OPT_MODE=     1    mode for optional k-point grid

 Orbital magnetization related:
   ORBITALMAG=     F  switch on orbital magnetization
   LCHIMAG   =     F  perturbation theory with respect to B field
   DQ        =  0.001000  dq finite difference perturbation B field
   LLRAUG    =     F  two centre corrections for induced B field
   LBONE     =     F  B-component reconstruction in AE one-centre
   LVGVCALC  =     T  calculate vGv susceptibility
   LVGVAPPL  =     F  apply vGv susceptibility instead of pGv for G=0

 Random number generation:
   RANDOM_GENERATOR = DEFAULT
   PCG_SEED         = not used


--------------------------------------------------------------------------------------------------------


 Static calculation
 charge density and potential will be updated during run
 non-spin polarized calculation
 Variant of blocked Davidson
 perform Loewdin sub-space diagonalisation
    ordering is kept fixed
    before iterative eigenvector-optimisation
 modified Broyden-mixing scheme, WC =      100.0
 initial mixing is a Kerker type mixing with AMIX =  0.4000 and BMIX =      1.0000
 Hartree-type preconditioning will be used
 using additional bands           36
 reciprocal scheme for non local part
 use partial core corrections
 calculate Harris-corrections to forces   (improved forces if not selfconsistent)
 use gradient corrections 
 use of overlap-Matrix (Vanderbilt PP)
 Gauss-broadening in eV      SIGMA  =   0.10


--------------------------------------------------------------------------------------------------------


  energy-cutoff  :     1200.00
  volume of cell :     5330.02
      direct lattice vectors                 reciprocal lattice vectors
    14.534204238  0.000000000  0.000000000     0.068803216  0.000000000  0.000000000
     0.000000000 14.534204238  0.000000000     0.000000000  0.068803216  0.000000000
     0.000000000  0.000000000 25.231670000     0.000000000  0.000000000  0.039632731

  length of vectors
    14.534204238 14.534204238 25.231670000     0.068803216  0.068803216  0.039632731



 old parameters found on file WAVECAR:
  energy-cutoff  :     1200.00
  volume of cell :     5330.02
      direct lattice vectors                 reciprocal lattice vectors
    14.534204238  0.000000000  0.000000000     0.068803216  0.000000000  0.000000000
     0.000000000 14.534204238  0.000000000     0.000000000  0.068803216  0.000000000
     0.000000000  0.000000000 25.231670000     0.000000000  0.000000000  0.039632731

  length of vectors


 k-points in units of 2pi/SCALE and weight: read from INCAR                         
   0.00000000  0.00000000  0.00000000       0.125
   0.03440161  0.00000000  0.00000000       0.125
   0.00000000  0.03440161  0.00000000       0.125
   0.03440161  0.03440161  0.00000000       0.125
   0.00000000  0.00000000  0.01981637       0.125
   0.03440161  0.00000000  0.01981637       0.125
   0.00000000  0.03440161  0.01981637       0.125
   0.03440161  0.03440161  0.01981637       0.125

 k-points in reciprocal lattice and weights: read from INCAR                         
   0.00000000  0.00000000  0.00000000       0.125
   0.50000000  0.00000000  0.00000000       0.125
   0.00000000  0.50000000  0.00000000       0.125
   0.50000000  0.50000000  0.00000000       0.125
   0.00000000  0.00000000  0.50000000       0.125
   0.50000000  0.00000000  0.50000000       0.125
   0.00000000  0.50000000  0.50000000       0.125
   0.50000000  0.50000000  0.50000000       0.125

 position of ions in fractional coordinates (direct lattice) 
   0.89927234  0.38920667  0.44639197
   0.74153672  0.55165957  0.38177006
   0.76403549  0.33177925  0.51204196
   0.96371068  0.67428235  0.51511956
   0.74775900  0.53358835  0.43914753
   0.46752672  0.18057490  0.58718519
   0.53856276  0.66694717  0.53557241
   0.17476240  0.23609971  0.53746085
   0.11030484  0.81457262  0.45778151
   0.69169851  0.14626350  0.48811237
   0.91798374  0.85068481  0.57017873
   0.63729799  0.76382904  0.48409872
   0.80834710  0.25259840  0.47411810
   0.12015756  0.41967930  0.45748886
   0.32321483  0.07963281  0.44384082
   0.26229930  0.36076375  0.42516476
   0.38189566  0.43794424  0.53236682
   0.74226213  0.48444924  0.60457818
   0.35632282  0.49829375  0.44166375
   0.59077663  0.16470994  0.41667615
   0.49446760  0.90137964  0.55329115
   0.12836995  0.65588055  0.47357663
   0.67761610  0.37604410  0.54842542
   0.65044188  0.88374200  0.54719010
   0.42307581  0.28499598  0.52161712
   0.14924827  0.72916864  0.55676951
   0.43111435  0.04481190  0.53665814
   0.14602343  0.39335090  0.54800610
   0.97310309  0.94431384  0.47616344
   0.89630146  0.74666154  0.49913108
   0.11334151  0.30274077  0.39400073
   0.21512831  0.95488063  0.43603545
   0.29797888  0.94375183  0.51791887
   0.29666929  0.22866379  0.47773939
   0.88255062  0.99805464  0.54480748
   0.98896026  0.37530859  0.55888280
   0.60798149  0.23117165  0.55046316
   0.62055998  0.44352507  0.47127888
   0.75977008  0.66521082  0.49228974
   0.25571230  0.50874112  0.57027633
   0.12201537  0.12546011  0.59976712
   0.95763210  0.81694684  0.42198036
   0.55035779  0.29654262  0.46378131
   0.49188716  0.53083946  0.49251538
   0.07223762  0.86774968  0.54958680
   0.88500407  0.49100923  0.56063891
   0.03375877  0.54725683  0.43477059
   0.52370313  0.91126235  0.46081928
   0.73731595  0.99945458  0.50898434
   0.94432622  0.23529401  0.52044161
   0.96235351  0.12001113  0.58145087
   0.09220764  0.04647037  0.46257917
   0.27466709  0.60683248  0.49313310
   0.30168489  0.76144290  0.52955405
   0.89436296  0.48582270  0.46798294
   0.47929881  0.06323681  0.44691866
   0.68363638  0.62027567  0.56882590
   0.07327299  0.20674644  0.46612452
   0.68250982  0.90107526  0.44026622
   0.15623796  0.00268544  0.54593243
   0.43337463  0.76044732  0.58044662

 position of ions in cartesian coordinates  (Angst):
  13.07020781  5.65680919 11.26321485
  10.77764609  8.01793288  9.63269624
  11.10464783  4.82214737 12.91967384
  14.00676787  9.80015743 12.99732664
  10.86808209  7.75528204 11.08042553
   6.79512880  2.62451246 14.81566297
   7.82758122  9.69354636 13.51338624
   2.54003246  3.43152141 13.56103478
   1.60319306 11.83916486 11.55059197
  10.05328736  2.12582362 12.31589019
  13.34216317 12.36402681 14.38656166
   9.26261909 11.10164733 12.21461917
  11.74868184  3.67131672 11.96279132
   1.74639457  6.09970463 11.54320793
   4.69767031  1.15739952 11.19884511
   3.81231154  5.24341401 10.72761690
   5.55054954  6.36517105 13.43250403
  10.78818938  7.04108421 15.25451710
   5.17886870  7.24230307 11.14391393
   8.58646822  2.39392795 10.51343509
   7.18669311 13.10083581 13.96045978
   1.86575511  9.53270194 11.94912929
   9.84861086  5.46550174 13.83768930
   9.45365520 12.84448667 13.80651992
   6.14907027  4.14218972 13.16127098
   2.16920477 10.59788588 14.04822461
   6.26590400  0.65130527 13.54078099
   2.12233440  5.71704235 13.82710916
  14.14327909 13.72485027 12.01439887
  13.02702845 10.85213128 12.59391076
   1.64732867  4.40009624  9.94129645
   3.12671876 13.87843008 11.00190248
   4.33088585 13.71668180 13.06795809
   4.31185203  3.32344617 12.05416276
  12.82717103 14.50592997 13.74640250
  14.37375040  5.45481167 14.10154644
   8.83652715  3.35989594 13.88910486
   9.01934547  6.44628394 11.89115319
  11.04265356  9.66830989 12.42129221
   3.71657481  7.39414727 14.38902413
   1.77339634  1.82346280 15.13312611
  13.91842050 11.87367226 10.64726920
   7.99901252  4.31001101 11.70197701
   7.14918841  7.71532906 12.42698543
   1.04991628 12.61205113 13.86699285
  12.86282989  7.13642838 14.14585595
   0.49065689  7.95394255 10.96998811
   7.61160828 13.24447318 11.62724000
  10.71630059 14.52627698 12.84252479
  13.72503014  3.41981123 13.13161099
  13.98704250  1.74426627 14.67097651
   1.34016474  0.67540982 11.67164492
   3.99206753  8.81982718 12.44257152
   4.38474975 11.06696659 13.36153297
  12.99885392  7.06104637 11.80799123
   6.96622677  0.91909668 11.27650420
   9.93611084  9.01521326 14.35242736
   1.06496454  3.00489502 11.76110012
   9.91973709 13.09641191 11.10865192
   2.27079439  0.03903078 13.77478680
   6.29875540 11.05249670 14.64563767



--------------------------------------------------------------------------------------------------------


 k-point     1 :   0.0000 0.0000 0.0000  plane waves:  502975
 k-point     2 :   0.5000 0.0000 0.0000  plane waves:  503202
 k-point     3 :   0.0000 0.5000 0.0000  plane waves:  503202
 k-point     4 :   0.5000 0.5000 0.0000  plane waves:  502964
 k-point     5 :   0.0000 0.0000 0.5000  plane waves:  502998
 k-point     6 :   0.5000 0.0000 0.5000  plane waves:  503144
 k-point     7 :   0.0000 0.5000 0.5000  plane waves:  503144
 k-point     8 :   0.5000 0.5000 0.5000  plane waves:  503264

 maximum and minimum number of plane-waves per node :     31524    31381

 maximum number of plane-waves:    503264
 maximum index in each direction: 
   IXMAX=   41   IYMAX=   41   IZMAX=   71
   IXMIN=  -41   IYMIN=  -41   IZMIN=  -71


 parallel 3D FFT for wavefunctions:
    minimum data exchange during FFTs selected (reduces bandwidth)
 parallel 3D FFT for charge:
    minimum data exchange during FFTs selected (reduces bandwidth)


 total amount of memory used by VASP MPI-rank0   343244. kBytes
=======================================================================

   base                                    :      30000. kBytes
   nonl-proj                               :      62976. kBytes
   fftplans                                :      97995. kBytes
   grid                                    :      75605. kBytes
   one-center                              :         12. kBytes
   wavefun                                 :      76656. kBytes

     INWAV:  cpu time     22.7312: real time     22.7454
 Broyden mixing: mesh for mixing (old mesh)
   NGX = 83   NGY = 83   NGZ =143
  (NGX  =336   NGY  =336   NGZ  =576)
  gives a total of 985127 points

 initial charge density was supplied:
 number of electron     231.9999999 magnetization 
 keeping initial charge density in first step


--------------------------------------------------------------------------------------------------------


 Maximum index for augmentation-charges        11362 (set IRDMAX)


--------------------------------------------------------------------------------------------------------


 First call to EWALD:  gamma=   0.101
 Maximum number of real-space cells   3x   3x   2
 Maximum number of reciprocal cells   2x   2x   4

    FEWALD:  cpu time      0.0144: real time      0.0146


--------------------------------------- Ionic step        1  -------------------------------------------




--------------------------------------- Iteration      1(   1)  ---------------------------------------


    POTLOK:  cpu time      1.9481: real time      1.9493
    SETDIJ:  cpu time      1.2509: real time      1.2516
    EDDIAG:  cpu time     43.6608: real time     43.6860
     EDDAV:  cpu time    190.4546: real time    190.5647
       DOS:  cpu time      0.0090: real time      0.0090
    CHARGE:  cpu time     24.7834: real time     24.8050
    MIXING:  cpu time      0.0435: real time      0.0452
    --------------------------------------------
      LOOP:  cpu time    262.1504: real time    262.3109

 eigenvalue-minimisations  :  2432
 total energy-change (2. order) :-0.5802404E+03  (-0.6568228E+00)
 number of electron     231.9999999 magnetization 
 augmentation part      -13.0264454 magnetization 

 Broyden mixing:
  rms(total) = 0.90522E+00    rms(broyden)= 0.23502E+02
  rms(prec ) = 0.93693E+00
  weight for this iteration     100.00
  WARNING: grid for Broyden might be to small

 Free energy of the ion-electron system (eV)
  ---------------------------------------------------
  alpha Z        PSCENC =        21.30407745
  Ewald energy   TEWEN  =     25978.07765245
  -Hartree energ DENC   =    -30995.87712624
  -exchange      EXHF   =         0.00000000
  -V(xc)+E(xc)   XCENC  =      -270.28038099
  PAW double counting   =     21064.08636911   -20495.70657481
  entropy T*S    EENTRO =        -0.17518139
  eigenvalues    EBANDS =     -1806.43230152
  atomic energy  EATOM  =      5924.76308760
  Solvation  Ediel_sol  =         0.00000000
  ---------------------------------------------------
  free energy    TOTEN  =      -580.24037833 eV

  energy without entropy =     -580.06519694  energy(sigma->0) =     -580.15278764


--------------------------------------------------------------------------------------------------------




--------------------------------------- Iteration      1(   2)  ---------------------------------------


    POTLOK:  cpu time      1.9130: real time      1.9412
    SETDIJ:  cpu time      1.2458: real time      1.2468
    EDDIAG:  cpu time     43.7563: real time     43.7789
     EDDAV:  cpu time    193.5195: real time    193.6260
       DOS:  cpu time      0.0027: real time      0.0027
    CHARGE:  cpu time     24.7609: real time     24.7825
    MIXING:  cpu time      0.0377: real time      0.0378
    --------------------------------------------
      LOOP:  cpu time    265.2359: real time    265.4159

 eigenvalue-minimisations  :  2496
 total energy-change (2. order) : 0.4045063E+02  (-0.6367937E+00)
 number of electron     231.9999999 magnetization 
 augmentation part      -12.9795575 magnetization 

 Broyden mixing:
  rms(total) = 0.62001E+00    rms(broyden)= 0.13581E+02
  rms(prec ) = 0.63623E+00
  weight for this iteration     100.00
  WARNING: grid for Broyden might be to small

 eigenvalues of (default mixing * dielectric matrix)
  average eigenvalue GAMMA=   0.6339
  0.6339

 Free energy of the ion-electron system (eV)
  ---------------------------------------------------
  alpha Z        PSCENC =        21.30407745
  Ewald energy   TEWEN  =     25978.07765245
  -Hartree energ DENC   =    -30986.10164424
  -exchange      EXHF   =         0.00000000
  -V(xc)+E(xc)   XCENC  =      -264.70672451
  PAW double counting   =     25061.58953238   -24493.08173574
  entropy T*S    EENTRO =        -0.16790770
  eigenvalues    EBANDS =     -1781.46608982
  atomic energy  EATOM  =      5924.76308760
  Solvation  Ediel_sol  =         0.00000000
  ---------------------------------------------------
  free energy    TOTEN  =      -539.78975213 eV

  energy without entropy =     -539.62184443  energy(sigma->0) =     -539.70579828


--------------------------------------------------------------------------------------------------------




--------------------------------------- Iteration      1(   3)  ---------------------------------------


    POTLOK:  cpu time      1.9168: real time      1.9405
    SETDIJ:  cpu time      1.2407: real time      1.2414
    EDDIAG:  cpu time     43.8041: real time     43.8277
     EDDAV:  cpu time    190.8905: real time    190.9997
       DOS:  cpu time      0.0062: real time      0.0062
    CHARGE:  cpu time     24.7198: real time     24.7415
    MIXING:  cpu time      0.0354: real time      0.0354
    --------------------------------------------
      LOOP:  cpu time    262.6135: real time    262.7925

 eigenvalue-minimisations  :  2432
 total energy-change (2. order) :-0.1862738E+01  (-0.5080831E+00)
 number of electron     231.9999999 magnetization 
 augmentation part      -12.9422067 magnetization 

 Broyden mixing:
  rms(total) = 0.27508E+00    rms(broyden)= 0.18229E+02
  rms(prec ) = 0.33306E+00
  weight for this iteration     100.00
  WARNING: grid for Broyden might be to small

 eigenvalues of (default mixing * dielectric matrix)
  average eigenvalue GAMMA=   0.7819
  0.9367  0.6271

 Free energy of the ion-electron system (eV)
  ---------------------------------------------------
  alpha Z        PSCENC =        21.30407745
  Ewald energy   TEWEN  =     25978.07765245
  -Hartree energ DENC   =    -30986.26563361
  -exchange      EXHF   =         0.00000000
  -V(xc)+E(xc)   XCENC  =      -266.37038671
  PAW double counting   =     29562.50990994   -28994.09426473
  entropy T*S    EENTRO =        -0.17618683
  eigenvalues    EBANDS =     -1781.40074577
  atomic energy  EATOM  =      5924.76308760
  Solvation  Ediel_sol  =         0.00000000
  ---------------------------------------------------
  free energy    TOTEN  =      -541.65249021 eV

  energy without entropy =     -541.47630339  energy(sigma->0) =     -541.56439680


--------------------------------------------------------------------------------------------------------




--------------------------------------- Iteration      1(   4)  ---------------------------------------


    POTLOK:  cpu time      1.9479: real time      1.9494
    SETDIJ:  cpu time      1.2476: real time      1.2484
    EDDIAG:  cpu time     43.7808: real time     43.8047
     EDDAV:  cpu time    194.9199: real time    195.0310
       DOS:  cpu time      0.0025: real time      0.0025
    CHARGE:  cpu time     24.7288: real time     24.7519
    MIXING:  cpu time      0.0369: real time      0.0369
    --------------------------------------------
      LOOP:  cpu time    266.6644: real time    266.8247

 eigenvalue-minimisations  :  2528
 total energy-change (2. order) : 0.2052367E+00  (-0.5480865E-01)
 number of electron     231.9999999 magnetization 
 augmentation part      -12.9382369 magnetization 

 Broyden mixing:
  rms(total) = 0.46839E-01    rms(broyden)= 0.14649E+01
  rms(prec ) = 0.55179E-01
  weight for this iteration     100.00
  WARNING: grid for Broyden might be to small

 eigenvalues of (default mixing * dielectric matrix)
  average eigenvalue GAMMA=   1.1265
  2.0722  0.6910  0.6163

 Free energy of the ion-electron system (eV)
  ---------------------------------------------------
  alpha Z        PSCENC =        21.30407745
  Ewald energy   TEWEN  =     25978.07765245
  -Hartree energ DENC   =    -30986.90623050
  -exchange      EXHF   =         0.00000000
  -V(xc)+E(xc)   XCENC  =      -266.85098540
  PAW double counting   =     33535.59013321   -32967.21667860
  entropy T*S    EENTRO =        -0.17304371
  eigenvalues    EBANDS =     -1780.03526598
  atomic energy  EATOM  =      5924.76308760
  Solvation  Ediel_sol  =         0.00000000
  ---------------------------------------------------
  free energy    TOTEN  =      -541.44725348 eV

  energy without entropy =     -541.27420977  energy(sigma->0) =     -541.36073162


--------------------------------------------------------------------------------------------------------




--------------------------------------- Iteration      1(   5)  ---------------------------------------


    POTLOK:  cpu time      1.9132: real time      1.9372
    SETDIJ:  cpu time      1.2482: real time      1.2488
    EDDIAG:  cpu time     43.7413: real time     43.7641
     EDDAV:  cpu time    215.3238: real time    215.4501
       DOS:  cpu time      0.0042: real time      0.0042
    CHARGE:  cpu time     24.7385: real time     24.7616
    MIXING:  cpu time      0.0361: real time      0.0362
    --------------------------------------------
      LOOP:  cpu time    287.0052: real time    287.2021

 eigenvalue-minimisations  :  3000
 total energy-change (2. order) :-0.2276043E-01  (-0.5834703E-02)
 number of electron     231.9999999 magnetization 
 augmentation part      -12.9394354 magnetization 

 Broyden mixing:
  rms(total) = 0.30631E-01    rms(broyden)= 0.24495E+00
  rms(prec ) = 0.37067E-01
  weight for this iteration     100.00
  WARNING: grid for Broyden might be to small

 eigenvalues of (default mixing * dielectric matrix)
  average eigenvalue GAMMA=   1.1538
  2.5335  0.8420  0.6198  0.6198

 Free energy of the ion-electron system (eV)
  ---------------------------------------------------
  alpha Z        PSCENC =        21.30407745
  Ewald energy   TEWEN  =     25978.07765245
  -Hartree energ DENC   =    -30986.98672650
  -exchange      EXHF   =         0.00000000
  -V(xc)+E(xc)   XCENC  =      -267.56642403
  PAW double counting   =     33129.34186306   -32560.94805278
  entropy T*S    EENTRO =        -0.17301447
  eigenvalues    EBANDS =     -1779.28247669
  atomic energy  EATOM  =      5924.76308760
  Solvation  Ediel_sol  =         0.00000000
  ---------------------------------------------------
  free energy    TOTEN  =      -541.47001390 eV

  energy without entropy =     -541.29699943  energy(sigma->0) =     -541.38350667


--------------------------------------------------------------------------------------------------------




--------------------------------------- Iteration      1(   6)  ---------------------------------------


    POTLOK:  cpu time      1.9414: real time      1.9607
    SETDIJ:  cpu time      1.2482: real time      1.2489
    EDDIAG:  cpu time     43.8375: real time     43.8613
     EDDAV:  cpu time    202.2633: real time    202.3788
       DOS:  cpu time      0.0026: real time      0.0026
    CHARGE:  cpu time     24.7521: real time     24.7740
    MIXING:  cpu time      0.0370: real time      0.0370
    --------------------------------------------
      LOOP:  cpu time    274.0819: real time    274.2633

 eigenvalue-minimisations  :  2696
 total energy-change (2. order) :-0.2125633E-02  (-0.1387207E-02)
 number of electron     231.9999999 magnetization 
 augmentation part      -12.9391654 magnetization 

 Broyden mixing:
  rms(total) = 0.20496E-01    rms(broyden)= 0.19001E+00
  rms(prec ) = 0.22497E-01
  weight for this iteration     100.00
  WARNING: grid for Broyden might be to small

 eigenvalues of (default mixing * dielectric matrix)
  average eigenvalue GAMMA=   1.0719
  2.5562  0.9068  0.6795  0.6083  0.6083

 Free energy of the ion-electron system (eV)
  ---------------------------------------------------
  alpha Z        PSCENC =        21.30407745
  Ewald energy   TEWEN  =     25978.07765245
  -Hartree energ DENC   =    -30987.00022189
  -exchange      EXHF   =         0.00000000
  -V(xc)+E(xc)   XCENC  =      -267.72705738
  PAW double counting   =     33052.18142731   -32483.78017523
  entropy T*S    EENTRO =        -0.17383783
  eigenvalues    EBANDS =     -1779.11709202
  atomic energy  EATOM  =      5924.76308760
  Solvation  Ediel_sol  =         0.00000000
  ---------------------------------------------------
  free energy    TOTEN  =      -541.47213954 eV

  energy without entropy =     -541.29830171  energy(sigma->0) =     -541.38522062


--------------------------------------------------------------------------------------------------------




--------------------------------------- Iteration      1(   7)  ---------------------------------------


    POTLOK:  cpu time      1.9097: real time      1.9404
    SETDIJ:  cpu time      1.2505: real time      1.2514
    EDDIAG:  cpu time     43.7903: real time     43.8145
     EDDAV:  cpu time    197.9920: real time    198.1045
       DOS:  cpu time      0.0025: real time      0.0025
    CHARGE:  cpu time     24.7334: real time     24.7569
    MIXING:  cpu time      0.0373: real time      0.0374
    --------------------------------------------
      LOOP:  cpu time    269.7157: real time    269.9076

 eigenvalue-minimisations  :  2600
 total energy-change (2. order) :-0.8533105E-03  (-0.6956668E-03)
 number of electron     231.9999999 magnetization 
 augmentation part      -12.9381356 magnetization 

 Broyden mixing:
  rms(total) = 0.94771E-02    rms(broyden)= 0.79031E-01
  rms(prec ) = 0.10236E-01
  weight for this iteration     100.00
  WARNING: grid for Broyden might be to small

 eigenvalues of (default mixing * dielectric matrix)
  average eigenvalue GAMMA=   1.0737
  2.5499  1.3381  0.8502  0.6241  0.6241  0.4560

 Free energy of the ion-electron system (eV)
  ---------------------------------------------------
  alpha Z        PSCENC =        21.30407745
  Ewald energy   TEWEN  =     25978.07765245
  -Hartree energ DENC   =    -30986.79974124
  -exchange      EXHF   =         0.00000000
  -V(xc)+E(xc)   XCENC  =      -267.66782341
  PAW double counting   =     33047.05869049   -32478.64980640
  entropy T*S    EENTRO =        -0.17353014
  eigenvalues    EBANDS =     -1779.38559965
  atomic energy  EATOM  =      5924.76308760
  Solvation  Ediel_sol  =         0.00000000
  ---------------------------------------------------
  free energy    TOTEN  =      -541.47299285 eV

  energy without entropy =     -541.29946271  energy(sigma->0) =     -541.38622778


--------------------------------------------------------------------------------------------------------




--------------------------------------- Iteration      1(   8)  ---------------------------------------


    POTLOK:  cpu time      1.9078: real time      1.9364
    SETDIJ:  cpu time      1.2558: real time      1.2565
    EDDIAG:  cpu time     43.8038: real time     43.8287
     EDDAV:  cpu time    199.5530: real time    199.6671
       DOS:  cpu time      0.0024: real time      0.0024
    CHARGE:  cpu time     24.7341: real time     24.7578
    MIXING:  cpu time      0.0380: real time      0.0380
    --------------------------------------------
      LOOP:  cpu time    271.2947: real time    271.4869

 eigenvalue-minimisations  :  2640
 total energy-change (2. order) :-0.5154653E-03  (-0.2187726E-03)
 number of electron     231.9999999 magnetization 
 augmentation part      -12.9377131 magnetization 

 Broyden mixing:
  rms(total) = 0.32388E-02    rms(broyden)= 0.81676E-01
  rms(prec ) = 0.40723E-02
  weight for this iteration     100.00
  WARNING: grid for Broyden might be to small

 eigenvalues of (default mixing * dielectric matrix)
  average eigenvalue GAMMA=   1.1326
  2.5670  1.8747  0.9070  0.8691  0.6362  0.6149  0.4591

 Free energy of the ion-electron system (eV)
  ---------------------------------------------------
  alpha Z        PSCENC =        21.30407745
  Ewald energy   TEWEN  =     25978.07765245
  -Hartree energ DENC   =    -30986.49270182
  -exchange      EXHF   =         0.00000000
  -V(xc)+E(xc)   XCENC  =      -267.62072025
  PAW double counting   =     33080.60506930   -32512.19084926
  entropy T*S    EENTRO =        -0.17374704
  eigenvalues    EBANDS =     -1779.74537673
  atomic energy  EATOM  =      5924.76308760
  Solvation  Ediel_sol  =         0.00000000
  ---------------------------------------------------
  free energy    TOTEN  =      -541.47350831 eV

  energy without entropy =     -541.29976127  energy(sigma->0) =     -541.38663479


--------------------------------------------------------------------------------------------------------




--------------------------------------- Iteration      1(   9)  ---------------------------------------


    POTLOK:  cpu time      1.9170: real time      1.9425
    SETDIJ:  cpu time      1.2446: real time      1.2455
    EDDIAG:  cpu time     43.8499: real time     43.8747
     EDDAV:  cpu time    205.7270: real time    205.8453
       DOS:  cpu time      0.0039: real time      0.0039
    CHARGE:  cpu time     24.7474: real time     24.7681
    MIXING:  cpu time      0.0408: real time      0.0408
    --------------------------------------------
      LOOP:  cpu time    277.5307: real time    277.7210

 eigenvalue-minimisations  :  2776
 total energy-change (2. order) : 0.7264967E-05  (-0.5266353E-04)
 number of electron     231.9999999 magnetization 
 augmentation part      -12.9378853 magnetization 

 Broyden mixing:
  rms(total) = 0.17691E-02    rms(broyden)= 0.28771E-01
  rms(prec ) = 0.20918E-02
  weight for this iteration     100.00
  WARNING: grid for Broyden might be to small

 eigenvalues of (default mixing * dielectric matrix)
  average eigenvalue GAMMA=   1.2707
  3.1951  2.5749  0.9965  0.9965  0.7060  0.4651  0.6332  0.5981

 Free energy of the ion-electron system (eV)
  ---------------------------------------------------
  alpha Z        PSCENC =        21.30407745
  Ewald energy   TEWEN  =     25978.07765245
  -Hartree energ DENC   =    -30986.30946880
  -exchange      EXHF   =         0.00000000
  -V(xc)+E(xc)   XCENC  =      -267.64292687
  PAW double counting   =     33083.60359325   -32515.18828727
  entropy T*S    EENTRO =        -0.17365549
  eigenvalues    EBANDS =     -1779.90757336
  atomic energy  EATOM  =      5924.76308760
  Solvation  Ediel_sol  =         0.00000000
  ---------------------------------------------------
  free energy    TOTEN  =      -541.47350105 eV

  energy without entropy =     -541.29984556  energy(sigma->0) =     -541.38667330


--------------------------------------------------------------------------------------------------------




--------------------------------------- Iteration      1(  10)  ---------------------------------------


    POTLOK:  cpu time      1.9101: real time      1.9361
    SETDIJ:  cpu time      1.2466: real time      1.2472
    EDDIAG:  cpu time     43.8342: real time     43.8579
     EDDAV:  cpu time    198.5903: real time    198.7051
       DOS:  cpu time      0.0023: real time      0.0023
    CHARGE:  cpu time     24.7703: real time     24.7950
    MIXING:  cpu time      0.0397: real time      0.0397
    --------------------------------------------
      LOOP:  cpu time    270.3933: real time    270.5832

 eigenvalue-minimisations  :  2616
 total energy-change (2. order) :-0.1019922E-04  (-0.4518139E-04)
 number of electron     231.9999999 magnetization 
 augmentation part      -12.9379241 magnetization 

 Broyden mixing:
  rms(total) = 0.87484E-03    rms(broyden)= 0.23614E-01
  rms(prec ) = 0.11844E-02
  weight for this iteration     100.00
  WARNING: grid for Broyden might be to small

 eigenvalues of (default mixing * dielectric matrix)
  average eigenvalue GAMMA=   1.4139
  4.5609  2.5726  1.3969  0.9797  0.8762  0.4639  0.6631  0.6282  0.5833

 Free energy of the ion-electron system (eV)
  ---------------------------------------------------
  alpha Z        PSCENC =        21.30407745
  Ewald energy   TEWEN  =     25978.07765245
  -Hartree energ DENC   =    -30986.05034490
  -exchange      EXHF   =         0.00000000
  -V(xc)+E(xc)   XCENC  =      -267.65024194
  PAW double counting   =     33080.74460081   -32512.32835716
  entropy T*S    EENTRO =        -0.17367875
  eigenvalues    EBANDS =     -1780.16030681
  atomic energy  EATOM  =      5924.76308760
  Solvation  Ediel_sol  =         0.00000000
  ---------------------------------------------------
  free energy    TOTEN  =      -541.47351125 eV

  energy without entropy =     -541.29983250  energy(sigma->0) =     -541.38667187


--------------------------------------------------------------------------------------------------------




--------------------------------------- Iteration      1(  11)  ---------------------------------------


    POTLOK:  cpu time      1.9281: real time      1.9594
    SETDIJ:  cpu time      1.2525: real time      1.2531
    EDDIAG:  cpu time     43.8209: real time     43.8423
     EDDAV:  cpu time    196.5713: real time    196.6893
       DOS:  cpu time      0.0034: real time      0.0034
    CHARGE:  cpu time     24.7474: real time     24.7712
    MIXING:  cpu time      0.0402: real time      0.0402
    --------------------------------------------
      LOOP:  cpu time    268.3637: real time    268.5589

 eigenvalue-minimisations  :  2568
 total energy-change (2. order) :-0.1093440E-03  (-0.3974639E-04)
 number of electron     231.9999999 magnetization 
 augmentation part      -12.9380094 magnetization 

 Broyden mixing:
  rms(total) = 0.45928E-03    rms(broyden)= 0.19815E-01
  rms(prec ) = 0.74357E-03
  weight for this iteration     100.00
  WARNING: grid for Broyden might be to small

 eigenvalues of (default mixing * dielectric matrix)
  average eigenvalue GAMMA=   1.6547
  6.6528  2.5249  2.1906  1.0361  1.0361  0.7785  0.4630  0.6437  0.6224  0.5987

 Free energy of the ion-electron system (eV)
  ---------------------------------------------------
  alpha Z        PSCENC =        21.30407745
  Ewald energy   TEWEN  =     25978.07765245
  -Hartree energ DENC   =    -30985.76498646
  -exchange      EXHF   =         0.00000000
  -V(xc)+E(xc)   XCENC  =      -267.65959713
  PAW double counting   =     33080.85886961   -32512.44223107
  entropy T*S    EENTRO =        -0.17368311
  eigenvalues    EBANDS =     -1780.43680994
  atomic energy  EATOM  =      5924.76308760
  Solvation  Ediel_sol  =         0.00000000
  ---------------------------------------------------
  free energy    TOTEN  =      -541.47362059 eV

  energy without entropy =     -541.29993748  energy(sigma->0) =     -541.38677904


--------------------------------------------------------------------------------------------------------




--------------------------------------- Iteration      1(  12)  ---------------------------------------


    POTLOK:  cpu time      1.9157: real time      1.9382
    SETDIJ:  cpu time      1.2479: real time      1.2487
    EDDIAG:  cpu time     43.8273: real time     43.8509
     EDDAV:  cpu time    196.5780: real time    196.6937
       DOS:  cpu time      0.0033: real time      0.0033
    CHARGE:  cpu time     24.7698: real time     24.7928
    MIXING:  cpu time      0.0404: real time      0.0404
    --------------------------------------------
      LOOP:  cpu time    268.3823: real time    268.5681

 eigenvalue-minimisations  :  2568
 total energy-change (2. order) :-0.1226038E-03  (-0.2626778E-04)
 number of electron     231.9999999 magnetization 
 augmentation part      -12.9380585 magnetization 

 Broyden mixing:
  rms(total) = 0.30067E-03    rms(broyden)= 0.16007E-01
  rms(prec ) = 0.54424E-03
  weight for this iteration     100.00
  WARNING: grid for Broyden might be to small

 eigenvalues of (default mixing * dielectric matrix)
  average eigenvalue GAMMA=   1.8394
  8.8345  2.6352  2.6352  1.1794  1.0260  0.9116  0.4630  0.6962  0.6332  0.6098
  0.6098

 Free energy of the ion-electron system (eV)
  ---------------------------------------------------
  alpha Z        PSCENC =        21.30407745
  Ewald energy   TEWEN  =     25978.07765245
  -Hartree energ DENC   =    -30985.59182623
  -exchange      EXHF   =         0.00000000
  -V(xc)+E(xc)   XCENC  =      -267.66604886
  PAW double counting   =     33080.29741701   -32511.88088835
  entropy T*S    EENTRO =        -0.17368901
  eigenvalues    EBANDS =     -1780.60352525
  atomic energy  EATOM  =      5924.76308760
  Solvation  Ediel_sol  =         0.00000000
  ---------------------------------------------------
  free energy    TOTEN  =      -541.47374319 eV

  energy without entropy =     -541.30005418  energy(sigma->0) =     -541.38689869


--------------------------------------------------------------------------------------------------------




--------------------------------------- Iteration      1(  13)  ---------------------------------------


    POTLOK:  cpu time      1.9098: real time      1.9322
    SETDIJ:  cpu time      1.2466: real time      1.2473
    EDDIAG:  cpu time     43.8487: real time     43.8737
     EDDAV:  cpu time    195.7609: real time    195.8698
       DOS:  cpu time      0.0025: real time      0.0025
    CHARGE:  cpu time     24.7553: real time     24.7796
    MIXING:  cpu time      0.0415: real time      0.0415
    --------------------------------------------
      LOOP:  cpu time    267.5654: real time    267.7467

 eigenvalue-minimisations  :  2544
 total energy-change (2. order) :-0.1718366E-03  (-0.5065765E-04)
 number of electron     231.9999999 magnetization 
 augmentation part      -12.9381015 magnetization 

 Broyden mixing:
  rms(total) = 0.21414E-03    rms(broyden)= 0.12055E-01
  rms(prec ) = 0.39333E-03
  weight for this iteration     100.00
  WARNING: grid for Broyden might be to small

 eigenvalues of (default mixing * dielectric matrix)
  average eigenvalue GAMMA=   1.8499
  9.5193  2.7277  2.7277  1.3510  1.0334  0.9814  0.8935  0.4629  0.6619  0.6335
  0.6030  0.6030

 Free energy of the ion-electron system (eV)
  ---------------------------------------------------
  alpha Z        PSCENC =        21.30407745
  Ewald energy   TEWEN  =     25978.07765245
  -Hartree energ DENC   =    -30985.37821672
  -exchange      EXHF   =         0.00000000
  -V(xc)+E(xc)   XCENC  =      -267.67096747
  PAW double counting   =     33079.93825625   -32511.52201010
  entropy T*S    EENTRO =        -0.17367898
  eigenvalues    EBANDS =     -1780.81211552
  atomic energy  EATOM  =      5924.76308760
  Solvation  Ediel_sol  =         0.00000000
  ---------------------------------------------------
  free energy    TOTEN  =      -541.47391503 eV

  energy without entropy =     -541.30023606  energy(sigma->0) =     -541.38707554


--------------------------------------------------------------------------------------------------------




--------------------------------------- Iteration      1(  14)  ---------------------------------------


    POTLOK:  cpu time      1.9325: real time      1.9338
    SETDIJ:  cpu time      1.2500: real time      1.2507
    EDDIAG:  cpu time     43.8776: real time     43.9032
     EDDAV:  cpu time    197.9628: real time    198.0782
       DOS:  cpu time      0.0037: real time      0.0037
    CHARGE:  cpu time     24.7791: real time     24.8022
    MIXING:  cpu time      0.0653: real time      0.0666
    --------------------------------------------
      LOOP:  cpu time    269.8711: real time    270.0382

 eigenvalue-minimisations  :  2592
 total energy-change (2. order) :-0.1328479E-03  (-0.3171424E-04)
 number of electron     231.9999999 magnetization 
 augmentation part      -12.9381388 magnetization 

 Broyden mixing:
  rms(total) = 0.14798E-03    rms(broyden)= 0.84183E-02
  rms(prec ) = 0.27156E-03
  weight for this iteration     100.00
  WARNING: grid for Broyden might be to small

 eigenvalues of (default mixing * dielectric matrix)
  average eigenvalue GAMMA=   1.8389
  9.8253  2.8874  2.7239  1.7299  1.1600  1.0261  0.8559  0.4629  0.7507  0.6440
  0.6440  0.5795  0.6158

 Free energy of the ion-electron system (eV)
  ---------------------------------------------------
  alpha Z        PSCENC =        21.30407745
  Ewald energy   TEWEN  =     25978.07765245
  -Hartree energ DENC   =    -30985.22534241
  -exchange      EXHF   =         0.00000000
  -V(xc)+E(xc)   XCENC  =      -267.67365616
  PAW double counting   =     33080.50864360   -32512.09263542
  entropy T*S    EENTRO =        -0.17368739
  eigenvalues    EBANDS =     -1780.96218760
  atomic energy  EATOM  =      5924.76308760
  Solvation  Ediel_sol  =         0.00000000
  ---------------------------------------------------
  free energy    TOTEN  =      -541.47404788 eV

  energy without entropy =     -541.30036049  energy(sigma->0) =     -541.38720418


--------------------------------------------------------------------------------------------------------




--------------------------------------- Iteration      1(  15)  ---------------------------------------


    POTLOK:  cpu time      1.9250: real time      1.9456
    SETDIJ:  cpu time      1.2541: real time      1.2551
    EDDIAG:  cpu time     43.9138: real time     43.9391
     EDDAV:  cpu time    195.9583: real time    196.0644
       DOS:  cpu time      0.0135: real time      0.0141
    CHARGE:  cpu time     24.7017: real time     24.7977
    MIXING:  cpu time      0.0433: real time      0.0433
    --------------------------------------------
      LOOP:  cpu time    267.8097: real time    268.0593

 eigenvalue-minimisations  :  2544
 total energy-change (2. order) :-0.7529331E-04  (-0.2669471E-04)
 number of electron     231.9999999 magnetization 
 augmentation part      -12.9381715 magnetization 

 Broyden mixing:
  rms(total) = 0.11093E-03    rms(broyden)= 0.56992E-02
  rms(prec ) = 0.17736E-03
  weight for this iteration     100.00
  WARNING: grid for Broyden might be to small

 eigenvalues of (default mixing * dielectric matrix)
  average eigenvalue GAMMA=   1.8204
  9.9299  3.0924  2.6738  2.0336  1.2820  0.9890  0.9890  0.8794  0.4629  0.7132
  0.6474  0.6277  0.6058  0.5593

 Free energy of the ion-electron system (eV)
  ---------------------------------------------------
  alpha Z        PSCENC =        21.30407745
  Ewald energy   TEWEN  =     25978.07765245
  -Hartree energ DENC   =    -30985.07518386
  -exchange      EXHF   =         0.00000000
  -V(xc)+E(xc)   XCENC  =      -267.67543260
  PAW double counting   =     33080.64323347   -32512.22740586
  entropy T*S    EENTRO =        -0.17368510
  eigenvalues    EBANDS =     -1781.11046673
  atomic energy  EATOM  =      5924.76308760
  Solvation  Ediel_sol  =         0.00000000
  ---------------------------------------------------
  free energy    TOTEN  =      -541.47412317 eV

  energy without entropy =     -541.30043807  energy(sigma->0) =     -541.38728062


--------------------------------------------------------------------------------------------------------




--------------------------------------- Iteration      1(  16)  ---------------------------------------


    POTLOK:  cpu time      1.9222: real time      1.9447
    SETDIJ:  cpu time      1.2481: real time      1.2490
    EDDIAG:  cpu time     43.8520: real time     43.8770
     EDDAV:  cpu time    196.2571: real time    196.3637
       DOS:  cpu time      0.0032: real time      0.0035
    CHARGE:  cpu time     24.7348: real time     24.7581
    MIXING:  cpu time      0.0444: real time      0.0444
    --------------------------------------------
      LOOP:  cpu time    268.0618: real time    268.2404

 eigenvalue-minimisations  :  2560
 total energy-change (2. order) :-0.5712188E-04  (-0.9375674E-05)
 number of electron     231.9999999 magnetization 
 augmentation part      -12.9381874 magnetization 

 Broyden mixing:
  rms(total) = 0.74477E-04    rms(broyden)= 0.37501E-02
  rms(prec ) = 0.11191E-03
  weight for this iteration     100.00
  WARNING: grid for Broyden might be to small

 eigenvalues of (default mixing * dielectric matrix)
  average eigenvalue GAMMA=   1.7793
  9.9631  3.2214  2.6473  2.2373  1.3341  1.0382  1.0382  0.9299  0.4629  0.7122
  0.6940  0.6339  0.6339  0.5999  0.5436

 Free energy of the ion-electron system (eV)
  ---------------------------------------------------
  alpha Z        PSCENC =        21.30407745
  Ewald energy   TEWEN  =     25978.07765245
  -Hartree energ DENC   =    -30984.99193141
  -exchange      EXHF   =         0.00000000
  -V(xc)+E(xc)   XCENC  =      -267.67612828
  PAW double counting   =     33080.29037768   -32511.87458283
  entropy T*S    EENTRO =        -0.17368753
  eigenvalues    EBANDS =     -1781.19304543
  atomic energy  EATOM  =      5924.76308760
  Solvation  Ediel_sol  =         0.00000000
  ---------------------------------------------------
  free energy    TOTEN  =      -541.47418029 eV

  energy without entropy =     -541.30049277  energy(sigma->0) =     -541.38733653


--------------------------------------------------------------------------------------------------------




--------------------------------------- Iteration      1(  17)  ---------------------------------------


    POTLOK:  cpu time      1.9113: real time      1.9365
    SETDIJ:  cpu time      1.2384: real time      1.2393
    EDDIAG:  cpu time     43.7713: real time     43.7968
     EDDAV:  cpu time    198.3388: real time    198.4532
       DOS:  cpu time      0.0047: real time      0.0047
    CHARGE:  cpu time     24.7486: real time     24.7700
    MIXING:  cpu time      0.0443: real time      0.0443
    --------------------------------------------
      LOOP:  cpu time    270.0574: real time    270.2448

 eigenvalue-minimisations  :  2608
 total energy-change (2. order) :-0.2843898E-04  (-0.3923839E-05)
 number of electron     231.9999999 magnetization 
 augmentation part      -12.9381988 magnetization 

 Broyden mixing:
  rms(total) = 0.50995E-04    rms(broyden)= 0.23049E-02
  rms(prec ) = 0.75855E-04
  weight for this iteration     100.00
  WARNING: grid for Broyden might be to small

 eigenvalues of (default mixing * dielectric matrix)
  average eigenvalue GAMMA=   1.7646
  9.9829  3.4443  2.5608  2.5608  1.4762  1.2760  0.9452  0.8957  0.8957  0.7395
  0.4629  0.6533  0.6278  0.5918  0.5918  0.5285

 Free energy of the ion-electron system (eV)
  ---------------------------------------------------
  alpha Z        PSCENC =        21.30407745
  Ewald energy   TEWEN  =     25978.07765245
  -Hartree energ DENC   =    -30984.95015654
  -exchange      EXHF   =         0.00000000
  -V(xc)+E(xc)   XCENC  =      -267.67654686
  PAW double counting   =     33080.26545867   -32511.84965781
  entropy T*S    EENTRO =        -0.17368431
  eigenvalues    EBANDS =     -1781.23443938
  atomic energy  EATOM  =      5924.76308760
  Solvation  Ediel_sol  =         0.00000000
  ---------------------------------------------------
  free energy    TOTEN  =      -541.47420873 eV

  energy without entropy =     -541.30052443  energy(sigma->0) =     -541.38736658


--------------------------------------------------------------------------------------------------------




--------------------------------------- Iteration      1(  18)  ---------------------------------------


    POTLOK:  cpu time      1.9143: real time      1.9449
    SETDIJ:  cpu time      1.2471: real time      1.2479
    EDDIAG:  cpu time     43.8314: real time     43.8534
     EDDAV:  cpu time    197.7290: real time    197.8450
       DOS:  cpu time      0.0024: real time      0.0024
    CHARGE:  cpu time     24.7487: real time     24.7685
    MIXING:  cpu time      0.0454: real time      0.0454
    --------------------------------------------
      LOOP:  cpu time    269.5183: real time    269.7075

 eigenvalue-minimisations  :  2592
 total energy-change (2. order) :-0.8455223E-05  (-0.1707106E-05)
 number of electron     231.9999999 magnetization 
 augmentation part      -12.9382046 magnetization 

 Broyden mixing:
  rms(total) = 0.31339E-04    rms(broyden)= 0.15578E-02
  rms(prec ) = 0.46303E-04
  weight for this iteration     100.00
  WARNING: grid for Broyden might be to small

 eigenvalues of (default mixing * dielectric matrix)
  average eigenvalue GAMMA=   1.7542
  9.9900  3.5685  2.6395  2.6395  1.7014  1.3103  1.0206  0.9629  0.9003  0.9003
  0.4629  0.7211  0.6476  0.6288  0.5950  0.5950  0.5374

 Free energy of the ion-electron system (eV)
  ---------------------------------------------------
  alpha Z        PSCENC =        21.30407745
  Ewald energy   TEWEN  =     25978.07765245
  -Hartree energ DENC   =    -30984.93281845
[...]
  Local  -63175.87674-63347.00850 61216.54519    10.89478    -5.63629    62.34697
  n-local  2177.56793  2187.20386  2103.93346     4.70899     7.36192    -3.36389
  augment  -319.05399  -319.61337  -314.57840     0.24119    -0.49629     0.13274
  Kinetic  1608.46909  1596.58085  1659.85028   -17.77770    -3.51160     3.59271
  Fock        0.00000     0.00000     0.00000     0.00000     0.00000     0.00000
  -------------------------------------------------------------------------------------
  Total       4.02487    -5.71031     7.00237   -19.48357     0.74352     1.47696
  in kB       1.20986    -1.71649     2.10488    -5.85667     0.22350     0.44397
  external pressure =        0.53 kB  Pullay stress =        0.00 kB


 VOLUME and BASIS-vectors are now :
 -----------------------------------------------------------------------------
  energy-cutoff  :     1200.00
  volume of cell :     5330.02
      direct lattice vectors                 reciprocal lattice vectors
    14.534204238  0.000000000  0.000000000     0.068803216  0.000000000  0.000000000
     0.000000000 14.534204238  0.000000000     0.000000000  0.068803216  0.000000000
     0.000000000  0.000000000 25.231670000     0.000000000  0.000000000  0.039632731

  length of vectors
    14.534204238 14.534204238 25.231670000     0.068803216  0.068803216  0.039632731


 FORCES acting on ions
    electron-ion (+dipol)            ewald-force                    non-local-force                 convergence-correction
 -----------------------------------------------------------------------------------------------
   0.272E+01 0.159E+02 0.502E+02   -.246E+01 -.187E+02 -.513E+02   -.155E+00 0.259E+01 0.115E+01   0.214E-04 0.256E-04 -.541E-05
   0.424E+01 -.554E+01 0.826E+02   -.442E+01 0.614E+01 -.859E+02   0.182E+00 -.593E+00 0.317E+01   0.232E-04 0.619E-06 0.237E-05
   -.642E+01 -.192E+01 -.650E+01   0.703E+01 0.282E+01 0.664E+01   -.527E+00 -.763E+00 -.214E+00   0.249E-04 0.106E-04 0.609E-05
   -.726E+01 0.161E+02 -.190E+02   0.913E+01 -.182E+02 0.199E+02   -.193E+01 0.214E+01 -.846E+00   0.205E-04 -.857E-05 0.148E-05
   0.156E+02 -.144E+01 0.182E+03   -.133E+02 0.297E+01 -.183E+03   -.209E+01 -.141E+01 0.165E+01   0.102E-03 -.439E-05 -.900E-04
   0.236E+01 0.821E+01 -.249E+03   -.391E+01 -.668E+01 0.251E+03   0.129E+01 -.159E+01 -.196E+01   -.574E-04 -.370E-05 0.167E-03
   0.225E+02 0.710E+01 -.771E+02   -.220E+02 -.641E+01 0.775E+02   -.556E+00 -.350E+00 -.387E+00   -.124E-03 0.109E-04 0.218E-04
   -.236E+02 -.164E+01 -.128E+03   0.225E+02 0.194E+01 0.126E+03   0.930E+00 -.294E+00 0.220E+01   -.466E-04 0.808E-04 0.909E-04
   -.310E+02 0.160E+02 0.159E+03   0.288E+02 -.184E+02 -.160E+03   0.244E+01 0.207E+01 0.406E+00   -.652E-04 -.667E-04 -.277E-05
   -.273E+02 0.197E+02 0.402E+02   0.277E+02 -.192E+02 -.407E+02   -.402E+00 -.980E+00 0.385E+00   0.464E-04 -.855E-05 -.123E-04
   0.390E+02 0.321E+02 -.218E+03   -.376E+02 -.312E+02 0.218E+03   -.133E+01 -.957E+00 0.417E+00   0.457E-04 -.319E-04 0.553E-04
   0.173E+02 0.194E+02 0.938E+02   -.144E+02 -.203E+02 -.926E+02   -.234E+01 0.634E+00 -.134E+01   0.106E-04 0.346E-04 -.367E-04
   -.823E+01 0.115E+02 0.118E+03   0.841E+01 -.114E+02 -.120E+03   -.147E+00 0.218E+00 0.125E+01   0.700E-04 0.204E-04 -.226E-04
   0.138E+02 -.317E+02 0.116E+03   -.142E+02 0.314E+02 -.118E+03   -.461E-01 0.460E+00 0.138E+01   -.774E-04 0.166E-03 0.195E-04
   0.245E+01 0.369E+01 0.185E+03   -.135E+00 -.275E+01 -.187E+03   -.249E+01 -.126E+01 0.977E+00   -.129E-04 -.266E-04 -.405E-04
   -.392E+02 -.138E+02 0.220E+03   0.373E+02 0.124E+02 -.220E+03   0.224E+01 0.133E+01 -.923E-02   -.209E-04 0.116E-03 -.367E-04
   -.173E+02 -.545E+01 -.118E+03   0.167E+02 0.594E+01 0.118E+03   0.767E+00 -.621E+00 0.309E+00   -.115E-03 0.880E-04 0.701E-04
   0.282E+01 0.879E+00 -.261E+03   -.340E+01 -.177E+01 0.262E+03   0.767E+00 0.907E+00 -.122E+00   0.105E-03 -.672E-04 0.148E-03
   -.226E+02 -.315E+02 0.208E+03   0.226E+02 0.339E+02 -.206E+03   -.232E+00 -.244E+01 -.155E+01   -.632E-04 0.424E-04 -.107E-04
   -.215E+02 0.161E+01 0.254E+03   0.234E+02 -.147E+01 -.254E+03   -.183E+01 -.247E+00 0.164E+00   0.374E-04 0.129E-04 -.164E-03
   0.369E+01 0.318E+01 -.162E+03   -.296E+01 -.400E+01 0.160E+03   -.105E+01 0.447E+00 0.167E+01   -.363E-04 -.260E-04 0.534E-04
   0.183E+01 0.903E+01 0.975E+02   -.506E+00 -.106E+02 -.962E+02   -.155E+01 0.980E+00 -.143E+01   -.746E-04 -.101E-03 0.120E-05
   0.328E+01 0.287E+01 -.145E+03   -.418E+01 -.238E+00 0.144E+03   0.112E+01 -.223E+01 0.856E+00   0.374E-04 -.105E-05 0.704E-04
   -.268E+02 0.158E+01 -.164E+03   0.263E+02 -.245E+01 0.165E+03   0.951E+00 0.669E+00 -.347E+00   0.293E-04 -.623E-05 0.377E-04
   -.116E+01 -.120E+02 -.698E+02   -.370E+00 0.114E+02 0.687E+02   0.186E+01 0.721E+00 0.803E+00   -.413E-04 0.561E-04 0.592E-04
   0.417E+01 0.337E+02 -.191E+03   -.493E+01 -.327E+02 0.190E+03   0.668E+00 -.556E+00 0.450E+00   -.323E-04 -.935E-04 0.482E-04
   0.793E+00 -.412E+01 -.124E+03   0.208E+01 0.390E+01 0.124E+03   -.278E+01 0.659E-01 0.522E+00   -.248E-04 -.183E-04 0.922E-04
   -.605E+01 -.283E+02 -.162E+03   0.558E+01 0.272E+02 0.159E+03   0.564E+00 0.102E+01 0.276E+01   -.122E-04 0.131E-03 0.642E-04
   0.439E+02 -.220E+02 0.111E+03   -.440E+02 0.222E+02 -.114E+03   -.363E-01 -.195E+00 0.246E+01   -.164E-04 -.703E-04 0.300E-04
   0.286E+02 0.101E+02 0.112E+02   -.260E+02 -.127E+02 -.111E+02   -.217E+01 0.241E+01 -.162E+00   0.119E-03 0.776E-05 0.246E-04
   0.277E+02 0.149E+02 0.283E+03   -.293E+02 -.140E+02 -.286E+03   0.104E+01 -.893E+00 0.151E+01   -.181E-04 0.645E-04 -.971E-04
   -.227E+02 0.379E+02 0.225E+03   0.215E+02 -.360E+02 -.224E+03   0.103E+01 -.180E+01 -.974E+00   -.401E-04 -.660E-04 -.368E-04
   -.280E+02 0.309E+02 -.545E+02   0.245E+02 -.308E+02 0.547E+02   0.328E+01 -.242E+00 -.760E-01   -.253E-04 -.563E-04 0.667E-04
   -.141E+02 0.961E+01 0.754E+02   0.150E+02 -.736E+01 -.733E+02   -.108E+01 -.205E+01 -.205E+01   -.133E-04 0.573E-04 0.994E-05
   0.410E+02 -.190E+02 -.122E+03   -.402E+02 0.174E+02 0.119E+03   -.116E+01 0.180E+01 0.256E+01   0.681E-04 -.707E-04 0.480E-04
   0.975E+01 -.115E+02 -.175E+03   -.103E+02 0.119E+02 0.175E+03   0.750E+00 -.489E+00 0.517E+00   0.173E-04 0.790E-04 0.326E-04
   -.223E+02 0.159E+02 -.168E+03   0.219E+02 -.167E+02 0.166E+03   0.130E+00 0.188E+00 0.186E+01   0.125E-04 0.172E-05 0.783E-04
   0.694E+00 -.174E+02 0.122E+03   -.185E+01 0.166E+02 -.119E+03   0.108E+01 0.769E+00 -.267E+01   -.207E-05 0.166E-04 -.479E-04
   -.117E+02 -.899E+01 0.459E+02   0.879E+01 0.103E+02 -.450E+02   0.244E+01 -.108E+01 -.899E+00   0.139E-03 0.271E-04 -.613E-04
   0.403E+01 -.218E+02 -.217E+03   -.258E+01 0.234E+02 0.218E+03   -.160E+01 -.103E+01 -.103E+00   -.619E-04 0.796E-04 0.128E-03
   -.187E+02 -.824E+01 -.268E+03   0.202E+02 0.636E+01 0.268E+03   -.127E+01 0.171E+01 -.266E+00   -.338E-04 -.793E-05 0.138E-03
   0.340E+02 0.115E+02 0.250E+03   -.338E+02 -.117E+02 -.252E+03   -.404E+00 0.828E-01 0.136E+01   0.249E-04 -.484E-04 -.454E-04
   0.579E+00 -.220E+02 0.142E+03   -.186E+01 0.205E+02 -.141E+03   0.109E+01 0.168E+01 -.954E+00   -.125E-04 0.124E-04 -.508E-04
   -.875E+01 -.336E+02 0.454E+02   0.955E+01 0.328E+02 -.448E+02   -.514E+00 0.823E+00 -.586E+00   -.109E-03 0.315E-05 -.123E-04
   -.459E+01 0.181E+02 -.163E+03   0.485E+01 -.182E+02 0.163E+03   0.198E-01 -.116E+00 0.633E+00   -.723E-04 -.685E-04 0.393E-04
   -.160E+02 -.326E+02 -.169E+03   0.159E+02 0.322E+02 0.168E+03   -.409E+00 0.753E+00 0.119E+01   0.139E-03 0.183E-04 0.113E-04
   0.151E+02 -.249E+02 0.196E+03   -.138E+02 0.242E+02 -.197E+03   -.110E+01 0.882E+00 0.651E+00   -.278E-05 0.242E-04 -.491E-04
   0.221E+02 0.402E+02 0.157E+03   -.227E+02 -.401E+02 -.157E+03   0.645E+00 -.114E-01 -.209E+00   -.474E-05 -.417E-04 -.161E-04
   -.107E+02 -.124E+02 -.174E+02   0.103E+02 0.132E+02 0.173E+02   0.526E+00 -.605E+00 0.233E+00   0.755E-04 -.207E-04 0.304E-04
   0.376E+02 0.160E+01 -.376E+02   -.376E+02 -.297E+01 0.380E+02   -.143E+00 0.142E+01 -.354E+00   0.235E-04 0.385E-04 0.572E-04
   0.415E+02 -.380E+01 -.221E+03   -.404E+02 0.521E+01 0.219E+03   -.839E+00 -.127E+01 0.140E+01   -.118E-04 0.195E-05 0.100E-03
   0.244E+02 -.170E+02 0.152E+03   -.242E+02 0.155E+02 -.151E+03   -.373E+00 0.160E+01 -.988E+00   -.665E-04 -.477E-04 -.583E-05
   -.280E+02 -.231E+02 0.467E+02   0.255E+02 0.230E+02 -.467E+02   0.217E+01 0.185E+00 -.243E+00   -.790E-04 -.623E-04 0.639E-04
   -.228E+02 0.499E+00 -.476E+02   0.237E+02 -.211E+01 0.507E+02   -.439E+00 0.177E+01 -.281E+01   -.569E-04 -.667E-04 0.616E-04
   0.384E+01 -.138E+02 0.103E+03   -.419E+01 0.113E+02 -.104E+03   0.414E+00 0.228E+01 0.607E+00   0.166E-03 0.510E-04 -.179E-04
   -.127E+02 0.768E+01 0.175E+03   0.135E+02 -.810E+01 -.174E+03   -.341E+00 0.594E+00 -.169E+01   0.187E-05 -.965E-05 -.560E-04
   0.395E+01 -.180E+02 -.193E+03   -.288E+01 0.174E+02 0.191E+03   -.102E+01 0.500E+00 0.147E+01   0.340E-04 -.336E-04 0.205E-04
   0.350E+02 0.129E+02 0.130E+03   -.335E+02 -.113E+02 -.129E+03   -.121E+01 -.138E+01 -.142E+01   -.547E-04 0.283E-04 0.149E-04
   -.308E+02 0.318E+01 0.214E+03   0.295E+02 -.315E+01 -.215E+03   0.104E+01 0.979E-02 0.124E+01   0.447E-04 -.319E-04 -.432E-04
   -.232E+02 0.474E+01 -.145E+03   0.223E+02 -.402E+01 0.145E+03   0.764E+00 -.847E+00 0.544E+00   -.353E-04 -.441E-04 0.730E-04
   0.506E+01 0.174E+02 -.216E+03   -.658E+01 -.180E+02 0.216E+03   0.118E+01 0.433E+00 0.431E+00   -.897E-04 -.397E-04 0.115E-03
 -----------------------------------------------------------------------------------------------
   0.218E+01 -.782E+01 -.145E+02   0.488E-13 0.568E-13 0.796E-12   -.219E+01 0.783E+01 0.145E+02   -.172E-03 0.581E-04 0.119E-02


 POSITION                                       TOTAL-FORCE (eV/Angst)
 -----------------------------------------------------------------------------------
     13.07021      5.65681     11.26321         0.105823     -0.210533      0.061843
     10.77765      8.01793      9.63270         0.006029      0.008199     -0.178862
     11.10465      4.82215     12.91967         0.076887      0.129951     -0.073989
     14.00677      9.80016     12.99733        -0.061139      0.013802      0.107505
     10.86808      7.75528     11.08043         0.093740      0.081809      0.378703
      6.79513      2.62451     14.81566        -0.097700     -0.104444      0.414109
      7.82758      9.69355     13.51339        -0.054977      0.332145     -0.050192
      2.54003      3.43152     13.56103        -0.192453      0.009900      0.167972
      1.60319     11.83916     11.55059         0.315650     -0.154996     -0.026930
     10.05329      2.12582     12.31589        -0.082165     -0.470943     -0.013125
     13.34216     12.36403     14.38656         0.110248     -0.016879      0.181086
      9.26262     11.10165     12.21462         0.486161     -0.181263     -0.035455
     11.74868      3.67132     11.96279         0.000116      0.291339     -0.076233
      1.74639      6.09970     11.54321        -0.405881      0.129436     -0.174053
      4.69767      1.15740     11.19885        -0.260656     -0.433170     -0.220850
      3.81231      5.24341     10.72762         0.281749      0.065269      0.155925
      5.55055      6.36517     13.43250         0.106578     -0.146924      0.194704
     10.78819      7.04108     15.25452         0.242941      0.111823      0.182119
      5.17887      7.24230     11.14391        -0.222101     -0.250291      0.151158
      8.58647      2.39393     10.51344        -0.091820     -0.119423     -0.175923
      7.18669     13.10084     13.96046        -0.328704     -0.330537      0.151691
      1.86576      9.53270     11.94913        -0.276807     -0.482475     -0.176660
      9.84861      5.46550     13.83769         0.337259      0.262549     -0.021328
      9.45366     12.84449     13.80652         0.383736     -0.103962     -0.321415
      6.14907      4.14219     13.16127         0.455772      0.156392     -0.259045
      2.16920     10.59789     14.04822         0.020723      0.475583     -0.123118
      6.26590      0.65131     13.54078        -0.068105     -0.241622      0.247075
      2.12233      5.71704     13.82711         0.066308     -0.119089      0.169269
     14.14328     13.72485     12.01440        -0.082271     -0.064752     -0.248412
     13.02703     10.85213     12.59391         0.403162     -0.075750     -0.026138
      1.64733      4.40010      9.94130        -0.439225      0.098047     -0.223701
      3.12672     13.87843     11.00190        -0.085029      0.131017      0.055793
      4.33089     13.71668     13.06796        -0.080321     -0.029586      0.075975
      4.31185      3.32345     12.05416        -0.219078      0.105641      0.017242
     12.82717     14.50593     13.74640        -0.364451      0.287716      0.237624
     14.37375      5.45481     14.10155         0.291559     -0.067118     -0.225547
      8.83653      3.35990     13.88910        -0.337729     -0.513639     -0.281070
      9.01935      6.44628     11.89115        -0.040646     -0.049170      0.003402
     11.04265      9.66831     12.42129        -0.418232      0.163601     -0.017376
      3.71657      7.39415     14.38902        -0.189290      0.365320     -0.124105
      1.77340      1.82346     15.13313        -0.017275     -0.108129      0.231274
     13.91842     11.87367     10.64727        -0.134107     -0.053249     -0.627573
      7.99901      4.31001     11.70198        -0.058338      0.200301     -0.055903
      7.14919      7.71533     12.42699         0.224572     -0.045559      0.029518
      1.04992     12.61205     13.86699         0.264422     -0.138532      0.597275
     12.86283      7.13643     14.14586        -0.553937      0.161106      0.193751
      0.49066      7.95394     10.96999         0.258541      0.167180     -0.143416
      7.61161     13.24447     11.62724         0.267435      0.216051     -0.229826
     10.71630     14.52628     12.84252         0.184309      0.145586      0.158961
     13.72503      3.41981     13.13161        -0.091683      0.144854     -0.006516
     13.98704      1.74427     14.67098         0.286324      0.061034     -0.059363
      1.34016      0.67541     11.67164        -0.124251      0.075283      0.082981
      3.99207      8.81983     12.44257        -0.241099      0.092310     -0.242903
      4.38475     11.06697     13.36153         0.367972      0.219337      0.237623
     12.99885      7.06105     11.80799         0.075858     -0.150904     -0.152180
      6.96623      0.91910     11.27650         0.368406      0.170829     -0.303377
      9.93611      9.01521     14.35243        -0.018554     -0.103014     -0.088613
      1.06496      3.00490     11.76110         0.257083      0.086705     -0.181802
      9.91974     13.09641     11.10865        -0.408940      0.000888      0.090679
      2.27079      0.03903     13.77479        -0.069809     -0.213914      0.361242
      6.29876     11.05250     14.64564        -0.222593      0.018865      0.228503
 -----------------------------------------------------------------------------------
    total drift:                               -0.004886      0.007202     -0.004656


--------------------------------------------------------------------------------------------------------



  FREE ENERGIE OF THE ION-ELECTRON SYSTEM (eV)
  ---------------------------------------------------
  free  energy   TOTEN  =      -541.47421795 eV

  energy  without entropy=     -541.30053308  energy(sigma->0) =     -541.38737551



--------------------------------------------------------------------------------------------------------


    POTLOK:  cpu time      3.1418: real time      3.3939


--------------------------------------------------------------------------------------------------------


     LOOP+:  cpu time   5544.4923: real time   5548.7126
    4ORBIT:  cpu time      0.0000: real time      0.0000



 total charge

# of ion       s       p       d       tot
------------------------------------------
    1        0.556   0.017   0.000   0.573
    2        0.567   0.016   0.000   0.583
    3        0.572   0.019   0.000   0.590
    4        0.568   0.018   0.000   0.585
    5        0.737   0.966   0.000   1.703
    6        0.827   0.819   0.000   1.646
    7        0.765   0.891   0.000   1.656
    8        0.760   0.935   0.000   1.695
    9        0.790   0.825   0.000   1.615
   10        0.761   0.943   0.000   1.704
   11        0.815   0.863   0.000   1.678
   12        0.771   0.913   0.000   1.685
   13        0.828   0.828   0.000   1.656
   14        0.763   0.919   0.000   1.682
   15        0.790   0.845   0.000   1.635
   16        0.785   0.843   0.000   1.628
   17        0.768   0.919   0.000   1.688
   18        0.812   0.846   0.000   1.658
   19        0.798   0.834   0.000   1.632
   20        0.816   0.856   0.000   1.672
   21        0.773   0.930   0.000   1.703
   22        0.767   0.918   0.000   1.685
   23        0.797   0.848   0.000   1.645
   24        0.814   0.861   0.000   1.675
   25        0.763   0.941   0.000   1.704
   26        0.834   0.814   0.000   1.648
   27        0.769   0.864   0.000   1.634
   28        0.761   0.930   0.000   1.692
   29        0.791   0.870   0.000   1.661
   30        0.752   0.959   0.000   1.710
   31        0.845   0.787   0.000   1.632
   32        0.782   0.836   0.000   1.618
   33        0.786   0.850   0.000   1.635
   34        0.769   0.924   0.000   1.693
   35        0.757   0.972   0.000   1.729
   36        0.795   0.866   0.000   1.661
   37        0.790   0.877   0.000   1.668
   38        0.752   0.932   0.000   1.684
   39        0.753   0.979   0.000   1.732
   40        0.811   0.822   0.000   1.634
   41        0.811   0.842   0.000   1.653
   42        0.837   0.821   0.000   1.658
   43        0.778   0.880   0.000   1.658
   44        0.764   0.912   0.000   1.675
   45        0.767   0.935   0.000   1.701
   46        0.789   0.882   0.000   1.671
   47        0.787   0.875   0.000   1.662
   48        0.811   0.830   0.000   1.641
   49        0.760   0.947   0.000   1.707
   50        0.754   0.953   0.000   1.707
   51        0.789   0.876   0.000   1.665
   52        0.772   0.944   0.000   1.717
   53        0.772   0.889   0.000   1.662
   54        0.781   0.843   0.000   1.624
   55        0.750   0.940   0.000   1.690
   56        0.769   0.944   0.000   1.712
   57        0.797   0.855   0.000   1.652
   58        0.774   0.906   0.000   1.681
   59        0.844   0.793   0.000   1.637
   60        0.766   0.922   0.000   1.688
   61        0.794   0.880   0.000   1.674
--------------------------------------------------
tot         46.976  50.565   0.000  97.542


 total amount of memory used by VASP MPI-rank0   343244. kBytes
=======================================================================

   base                                    :      30000. kBytes
   nonl-proj                               :      62976. kBytes
   fftplans                                :      97995. kBytes
   grid                                    :      75605. kBytes
   one-center                              :         12. kBytes
   wavefun                                 :      76656. kBytes

  
  
 General timing and accounting informations for this job:
 ========================================================
  
                  Total CPU time used (sec):     5681.354
                            User time (sec):     5016.946
                          System time (sec):      664.409
                         Elapsed time (sec):     5687.031
  
                   Maximum memory used (kb):      596196.
                   Average memory used (kb):          N/A
  
                          Minor page faults:      9345426
                          Major page faults:         1157
                 Voluntary context switches:         3028
