LAMMPS data file via write_data, version 2 Apr 2025, timestep = 6560000, units = metal

1000 atoms
2 atom types

-1.0752614248018357 25.06800490031315 xlo xhi
-1.0752614248018357 25.06800490031315 ylo yhi
-1.0752614248018357 25.06800490031315 zlo zhi

Atom Type Labels

1 H
2 Si

Masses

1 1.00784
2 28.0855

Atoms # atomic

579 2 -0.003037389071146368 -0.48096470439981387 1.3710323089155665 0 0 1
997 2 -0.4612740785185353 0.972702645958794 4.386249199007917 0 1 0
405 2 -0.20995913927059418 1.7225075200108835 2.287770440457425 0 0 0
877 2 2.074609316430284 2.21899363655155 1.9696608761371723 0 0 1
85 1 2.3915308005057994 2.139412716133782 0.47709786340569815 1 0 0
730 2 0.44528423910999937 -1.0485859819045382 3.633635296987446 1 0 0
98 1 3.966720953489082 0.6385476745954293 -0.32027378713090593 0 0 0
720 2 3.575532830296697 0.6801080965364863 2.874323892044834 1 0 0
350 2 5.5526496352698755 1.414549671634779 3.849304654755291 0 1 0
964 2 6.970548452579864 -0.31266350782654906 4.8136138035622045 0 1 0
638 2 3.7634077547689575 -0.448407180714118 0.7433121678829047 0 0 0
740 2 6.532848807743377 3.0540563656988793 2.3888178132200717 1 0 1
134 1 5.610009002558833 3.2984566231068078 1.2934929382080682 0 -3 7
907 2 11.374348636129287 10.006055299776538 5.16758099443254 0 0 1
726 2 8.592146676020647 2.1315795327656426 1.9813536847384778 0 0 0
379 2 8.725224596362036 -0.16682792862684648 1.6776135256079878 0 0 1
522 2 10.83649060426795 -0.6157406770582303 2.545189950986135 0 0 0
961 2 9.35499168427645 2.6362118971338364 4.088728412921723 0 0 0
926 2 10.709421373094958 -0.9022496872231134 4.826284265128026 0 1 1
823 2 11.591153782477665 3.3102323233711273 4.139866796848119 0 0 1
835 2 10.24508298073855 3.2639765571290145 0.692694552994942 0 1 0
612 2 7.665059294648625 -0.9382282703134575 -0.285539547118161 0 1 1
601 2 -0.8196516128180757 6.400397978938417 1.4065239057643821 1 0 0
650 2 -0.5421521857677706 4.904892280661389 4.910920772319605 0 0 0
496 2 2.401196720395632 4.450589859150826 2.6198300139631776 1 0 1
988 2 1.656273555865917 6.092513714199928 1.1841725120631437 0 1 1
113 1 2.093002279203474 5.616505861736946 -0.3091292077515342 0 0 0
894 2 1.634732100623821 3.77377038063738 4.877571003663369 0 0 0
187 1 2.368689594600365 7.401831334682191 1.5964791520212995 0 0 -1
95 1 2.780711934736522 10.109761166202375 -0.32748520967387795 0 0 2
66 1 0.41017002415796266 11.49809075431058 2.4503622481231595 0 1 2
90 1 3.8651040492089397 4.629773225374079 2.882393719356711 0 1 1
424 2 6.705803446732898 5.063468790658245 3.5399197451089037 0 0 0
83 1 5.426878585423067 5.606618210294699 3.7921865299523256 -1 1 1
557 2 5.2108639727279975 6.5742938304529455 0.5373803827440999 1 0 1
103 1 4.349624108532864 6.524084847631532 1.731904630980475 0 -1 1
121 1 6.193591960499271 5.550212196040616 0.27598438126025315 1 0 1
241 1 4.113675357316251 6.793584525851998 3.644377463953332 0 0 1
131 1 11.46805754479071 9.686515714497578 3.7042416541551075 0 -1 0
175 1 8.904987950883696 6.879052927467196 -0.24071752113475942 0 1 1
154 1 7.25965663110928 6.273357330556638 3.1123286168214674 1 -1 -1
102 1 8.50731448702609 6.900081531108971 -0.8695487162522948 0 0 1
784 2 10.838434684604266 5.522047992440786 0.5375012606403577 0 1 1
610 2 10.947969541486739 6.951774629379761 2.5136307777698197 0 0 0
352 2 11.15490220969143 5.613901216166956 4.461731840264493 0 0 1
813 2 8.025865355739233 4.0600446816361755 5.171764898030534 0 0 0
259 1 -0.01814947535597189 11.387698970211405 -0.9567469306443547 -1 1 2
237 1 2.59075817753713 11.962294747722154 4.6280547056523815 2 0 1
162 1 2.495551541980594 7.977893047557673 -0.9961507158086558 0 -1 1
281 1 0.5187298417290196 9.019621994735008 0.002930925463033196 0 1 1
436 2 -0.3289327987146914 8.518936549830785 3.6946711602154165 0 0 0
152 1 1.0450933824565878 8.960908481061491 3.0056939351189573 0 1 0
136 1 2.109300766480267 10.356741707154592 2.314127167732849 0 1 1
513 2 1.7257423426344505 9.206930890325557 -0.8869775073076253 0 0 1
124 1 4.748699325967919 9.248724573332995 -0.7520782647163584 0 0 -1
144 1 6.857271253121779 10.328392899271876 -1.0637232525172815 0 0 0
189 1 3.9442646101415963 9.023468082886922 1.2304895050856315 -1 0 0
341 2 3.5132051191244065 9.668139575699179 2.463084727119375 0 0 0
3 1 6.023275469261433 7.844887260852156 0.626326355460104 0 0 1
181 1 5.1162058001740585 8.767957913466645 4.811763625163709 0 0 0
177 1 5.911412903622984 10.48939189518008 0.9234627980036607 0 0 1
111 1 4.367658571791827 10.80084742219196 2.815916244749161 0 0 1
304 2 3.9060738322691098 8.15755821454084 4.1529258402436975 0 0 1
179 1 7.246013121692936 8.701234227416176 1.783053991728873 0 0 0
415 2 5.540270962702922 10.49283722299519 -0.4586737094527683 0 0 1
266 1 7.451655983023937 9.0558097062893 2.39440984165696 0 0 1
64 1 8.54561346128734 9.124455297592808 4.709708880077578 1 0 0
242 1 4.839730014661994 11.704421180061964 -0.9421272058434191 0 1 0
240 1 9.511285417653232 11.291064536416398 2.75548722621198 0 1 1
159 1 9.632134064718976 11.668153117332196 2.166885513020964 0 -1 0
123 1 7.476240933588356 4.030223442652945 -0.7834201804640083 -1 -1 1
173 1 4.707924832975961 6.883132301137482 -0.8253886532087147 0 1 1
621 2 8.89906881700378 0.7159136322369115 5.440862846175494 0 1 0
122 1 -0.7702121360689318 7.658938090097026 2.307746400102704 1 -1 0
172 1 8.284892036618185 11.341464243959818 5.158123265570488 0 1 1
44 1 10.841509100360064 10.148125620690026 -0.9968820777670895 0 1 1
686 2 -1.033729685023713 11.663894286869759 2.7109452192403856 0 0 0
465 2 2.2388916396205225 0.0294390464298242 6.369657458747415 1 1 0
770 2 0.3683963428617709 2.4166297728961994 8.165699341658817 1 0 0
536 2 1.1154580733988433 -0.5874025243165706 9.966854094807752 0 0 0
699 2 2.887622957296602 0.5467776521898329 11.20190178034665 0 1 -1
597 2 0.9893012372871852 1.898831311667256 5.941745475138962 1 0 1
984 2 2.5246616790925667 2.9634250600776086 8.556903940528624 0 0 1
810 2 -0.7609998206440031 0.5741681336899278 9.265571355076029 0 0 1
365 2 4.13798344642832 1.506655011288911 9.365702302004289 0 1 0
646 2 4.354477676428085 0.5149455893190995 7.274991399162223 0 0 0
568 2 5.021241136512243 2.5298919562166593 6.0900390493274745 0 0 0
5 1 5.408487690522005 2.0961422057716548 9.911238962255938 0 0 -2
766 2 6.975513346601961 3.1727837436088784 7.044011052753433 0 0 0
972 2 8.931614958137079 0.2438940291441385 9.305581047445898 0 0 0
460 2 8.757293598167163 1.7131363955525774 7.556620325039239 0 1 0
565 2 9.795249221447282 10.102695656532454 9.37288494493076 0 0 0
156 1 9.75432020960148 1.385010750479867 11.567107392074272 0 -1 0
659 2 8.430343641560864 10.924206346332156 11.070986680130321 0 0 -1
661 2 -0.07855504444155414 7.092805186681906 5.545615803129776 1 0 0
640 2 2.4756841251093173 4.0153177447953805 10.647842480503417 0 0 0
472 2 1.2117481179341714 5.956954827405696 10.21180239377021 0 0 0
887 2 2.901256032907793 7.174581043916405 9.324102399390684 0 0 0
990 2 -0.7387390294199627 6.12390980313892 9.102997970905594 0 0 0
864 2 2.2571173912471156 7.651941740943396 5.880005313474808 0 0 0
584 2 3.2863193616197 3.9960598338266635 6.662432688499745 1 0 0
756 2 -0.9328311933162041 7.80689137308546 7.598792882505389 0 0 0
778 2 4.3931315324891544 4.790038677377318 11.727864330138697 1 0 0
493 2 3.4906337722733314 6.276937835220119 7.255108661490226 0 1 0
676 2 5.682399547212218 6.955042377170791 7.071351659301627 0 1 0
322 2 7.050658384630426 5.326019288356146 8.046020276314916 0 0 0
861 2 4.604469112433093 7.085235159936264 10.99729745823625 0 0 0
30 1 5.7438314350288096 4.410751084788661 11.245411742675465 1 0 0
818 2 6.779135934689275 7.752405866833238 10.531945367297883 0 0 1
203 1 8.156204176733882 4.796223039279214 11.025731680210747 1 0 -1
357 2 10.53647476753714 3.4157879349342135 7.223859494644534 0 0 1
481 2 8.023587607344902 5.928365824961006 10.020272912713217 1 0 1
619 2 10.246498848629349 6.5487888395530325 9.50647257586231 0 0 0
939 2 9.677574493516078 5.411755582524173 6.206984791059213 0 0 0
555 2 10.106231360363628 7.291447600700678 7.392855024179683 0 0 0
825 2 11.79952188453128 4.770317745538809 8.850594889412818 0 0 1
333 2 0.10300552699954313 9.821055819782242 8.28815530414525 1 0 0
463 2 2.212742216105642 8.955362334592184 7.955646361401197 0 0 0
421 2 -0.11900890703447176 10.920401567022694 10.281890180485364 0 0 0
820 2 -0.06012659183222957 11.477260472689602 6.469668209698732 0 0 0
235 1 2.9655137366512365 11.740311616069897 8.89012824077027 1 0 0
464 2 8.602968819764907 9.147093258946962 7.601431766178052 0 0 0
301 2 11.140630072123894 11.863337400824989 9.011544178470519 0 0 0
664 2 3.366472880513328 10.97492000260219 7.689595673932654 0 0 0
411 2 5.655435878796522 10.926048418968954 7.854585241887383 0 0 0
827 2 6.509870406589569 8.776520872544662 8.426022452046189 0 0 0
170 1 6.217775033755001 11.368537851493276 6.498235244512665 0 0 0
605 2 11.04926322593732 8.525965654571133 10.64656213290323 0 1 0
126 1 10.35929042397121 1.0751797065715945 11.827917506884726 0 0 -1
631 2 9.077674784784449 10.158432844720263 5.564459544202459 0 0 0
247 1 1.0037659462635315 11.862089619308412 10.39344580540435 0 1 -3
728 2 1.84161451077587 1.318756406533435 17.640531043048846 1 0 0
645 2 -0.5317553623800342 2.386587918606416 12.235096676010848 0 0 0
530 2 2.8379178295331955 1.247999788798321 15.41990612786917 0 1 0
941 2 2.5908065757775653 -0.9023291242749139 14.502863978162157 0 0 0
407 2 1.7587456390617149 2.3579136022720433 12.12575097340192 0 1 0
349 2 0.3116555974763686 3.0596282905297336 17.704532490810976 0 0 0
749 2 2.4650300079236334 3.383555212959128 14.347709146416994 0 0 0
112 1 5.483704318708355 1.4895298475594032 17.536427811497333 0 1 0
882 2 4.956814292758595 0.9006994491415947 16.214452139720137 -1 0 0
268 1 6.143430023512992 0.778305895191709 15.295883040093559 0 0 0
125 1 4.836240105810499 -0.7164111380724454 16.964973497257894 1 0 0
99 1 7.49250751359649 2.9760778073882133 16.611017421945782 0 0 -1
225 1 7.551051247345388 0.026339042231861676 17.96515113225741 0 1 0
4 1 5.537032704264741 3.771316275150351 17.976009822792697 0 0 -1
47 1 8.068918525729059 0.5388428380034029 13.605619861335834 0 0 0
19 1 7.859935537243967 0.5020486979444401 12.851417597272544 0 0 0
42 1 10.315420447767785 -0.11969012270357027 16.66538347160857 0 1 0
119 1 10.038697466630113 2.12306501401936 15.702705806307014 0 0 -1
629 2 9.39537906010481 1.0696749366014657 16.575756355465856 0 1 -1
138 1 9.137255177646706 1.7315674727972974 17.80914721489252 -1 1 0
91 1 8.118048107089223 0.6232733556524299 15.965716909015027 0 0 -1
14 1 11.09650388971516 -0.4105063958445775 13.727746276834653 0 0 -1
110 1 10.77745247435319 -0.1325701189581966 14.419770413040657 0 2 -1
274 1 8.994231846746267 3.1771879040547164 15.144340615577716 0 0 0
950 2 10.95100665689315 9.065551692963867 12.97331660959168 0 0 0
263 1 2.875523876825554 2.0816491012281557 18.446005524051905 1 0 0
698 2 0.7885713138946298 4.466337556267555 15.713608340557583 0 0 0
665 2 2.736385288845968 6.639214245463047 14.036432866042158 0 0 0
469 2 0.9991046297763209 6.214926561877243 12.512053461513732 0 0 0
670 2 1.1359952793509178 6.764744339358188 15.825628737279674 0 0 0
600 2 6.765071490939925 4.202133359656193 17.22523421027701 0 0 -1
743 2 4.07139884097677 4.90766145544803 13.99124366790754 1 1 0
996 2 6.196690070675063 5.257532700133169 15.234495190832257 0 1 0
806 2 5.350388770040669 6.996933796691726 16.60056983242948 0 1 0
129 1 4.08693857680547 6.5888190609861415 17.100375273943463 0 1 0
248 1 6.123770584668054 6.705808771719979 17.822967521445833 0 2 2
198 1 7.674621969708689 5.041052032944531 18.106350812958233 0 1 0
145 1 8.064611500335207 3.41271214188553 13.123138032164984 0 1 0
72 1 9.74938268757153 4.2107251570127575 16.998609346748097 0 0 0
80 1 10.516348290082869 3.946655011597226 13.689036049406965 0 0 -1
724 2 10.172907669555785 4.419732395486131 18.292276694323725 0 2 0
321 2 8.299019325460993 6.100093098318913 14.61016582433222 0 1 0
89 1 8.74739194087772 6.091124588013913 16.048616912272465 0 1 0
626 2 9.098583712994621 4.044887899632075 13.939205136129546 0 0 0
8 1 11.513497390465956 6.342764343258202 16.74138434767312 1 -1 -1
378 2 -0.9947604647718403 4.666054076166697 12.784195816246571 0 0 0
303 2 -0.7707754383464764 7.797728492558818 12.731906042234863 0 0 0
715 2 -0.08333054532108297 9.862138767304753 12.310168943794002 0 0 0
254 1 2.0502184272764525 10.191404405271374 14.74439075041648 0 1 0
822 2 2.200422980658992 10.116357223105295 12.98727188999825 0 0 0
916 2 1.7731486423814626 8.421840367460412 17.53293772112572 0 0 0
510 2 1.3368793072782994 10.469021860574557 16.36233818161375 0 0 0
408 2 5.376644344317365 11.936944770679947 13.411364435504925 0 0 0
936 2 5.827152221065071 9.153963236242568 15.942649266936998 0 0 0
881 2 5.231897115957669 10.455267300526346 17.922934726297207 0 0 0
994 2 3.7334130080237475 8.336305782118878 12.77230703592834 1 0 0
302 2 7.509266448773197 9.016413272356704 12.277434903157207 0 0 0
799 2 5.624839887394759 9.644916167780812 13.554709101919613 0 0 0
914 2 9.036218422508357 8.20417589013517 13.924945289959245 0 0 0
582 2 10.310676246677769 11.332879164635658 12.472907354536066 0 0 0
260 1 8.989027746132516 9.64730790818965 16.96165579530821 1 0 0
596 2 8.035368715298858 9.77725976599672 15.44801088339259 0 0 0
529 2 10.463105858836908 10.074234189000896 17.622454736164293 0 0 0
382 2 -1.000761023121018 0.5398829844847841 13.684942446855796 1 1 0
169 1 11.616264844870548 4.085573844245452 18.455231942543065 -1 0 0
20 1 11.935294174342344 5.744592282129932 16.602677082232688 0 -1 0
750 2 -1.038777062249764 10.737700509774522 16.030218193277157 0 0 0
839 2 1.2224311458422608 1.2660730276431473 22.061316944360307 0 1 -1
705 2 -0.01818404734974921 -0.2892068336605871 20.74534231613992 0 1 0
36 1 1.0465292930049133 -0.5704133514692666 23.925576706142394 -1 0 -1
28 1 1.8050400849431916 2.2071936853711445 21.084761931597214 -1 1 -1
795 2 0.1113633369406315 2.3352883647592697 23.98495738455869 0 0 0
65 1 2.374496494446092 0.5957767371372773 22.485968418573336 0 1 0
71 1 -0.17603413357107178 2.3647287180545837 20.104290945068193 0 0 -1
951 2 1.6446602868308942 -0.5684688748495051 19.137456337180417 0 0 0
167 1 11.334612693239515 8.56846651494877 24.731908430063186 -1 1 -1
7 1 3.1034824027480266 -0.43798400269238424 19.6770358182797 1 1 -1
733 2 10.939154927609104 11.52976280478922 24.51624913338253 0 0 -1
956 2 7.34646331857631 0.6030620931287516 19.317367327601573 0 1 0
157 1 4.82728880227781 2.0558713738801737 23.93448225197109 0 2 0
264 1 4.775165317478221 2.717220405778841 24.010743265906036 0 0 0
107 1 6.052205343779586 0.027170843373528264 19.667741407845867 0 0 0
243 1 5.949607015774825 -0.3477797877075254 22.064005366148912 0 0 1
76 1 7.391414503064453 1.9556150650781512 19.2387744033405 0 2 0
45 1 8.273038365786173 0.2354577323458369 20.35199829828919 0 0 1
211 1 7.1454759264092775 1.455552487562263 22.491401876630142 0 0 -1
79 1 7.493379425625223 1.976555576903316 22.040989972431987 0 0 -2
13 1 4.418251793274242 -0.7517219648870074 23.42225032079667 0 0 0
69 1 4.534282449658651 5.356812095949413 19.517471878438663 0 -1 0
6 1 7.554427940637558 0.0662131602283138 24.826564589287692 0 0 -2
149 1 10.370658189256929 1.0343835144538511 19.316993286949867 0 0 -1
459 2 11.632780925975322 0.4076585233302479 24.72139041393966 0 1 0
779 2 10.437649757193967 1.5234500323924256 20.648805829838444 0 1 0
61 1 11.607169574515915 2.47713477018324 20.671046487486322 0 1 0
32 1 10.651229431356533 0.38391400155894506 21.55380687744912 0 1 0
105 1 9.346080698268779 2.395678502844857 20.938778174213077 0 0 -1
753 2 10.093694865107386 2.1614563863908627 24.821191904973368 0 0 -1
133 1 8.723159193136889 1.7454772682787634 24.74754920247127 1 0 0
184 1 10.596168505119717 3.0125173729998256 23.719436952756332 0 1 0
135 1 9.277860337398462 4.641623009933896 20.912984274260992 0 1 0
63 1 -0.9653799225524886 6.771787592728786 23.500153281775425 -1 -1 0
251 1 0.6557931497088363 3.617378697976193 24.31724458079433 0 0 0
885 2 -0.2366575819571074 3.842390436309441 19.799279400080138 0 0 0
116 1 0.8372349354221187 6.394638441684758 19.274991255900865 0 1 0
250 1 0.7831947067559422 4.634701148016951 20.48938979641911 0 -1 0
299 1 1.9592232076796385 6.156577939530903 23.10144123650133 0 0 1
231 1 2.4945920031675666 6.20709922460019 23.54134414762983 0 0 0
206 1 6.989116248559997 4.38523587852681 24.94368963900878 0 0 0
166 1 4.380675296899484 4.494992005273811 24.92675835004993 0 1 0
215 1 4.992240213509644 5.89073403885892 19.34356319549977 0 1 -1
278 1 7.971640334076827 6.45945088843727 19.71698124655009 0 1 0
127 1 7.749424686569604 7.193372969340622 19.724156725347207 0 0 0
292 1 9.690785043066416 8.421118930607172 20.24572255602603 0 -1 -1
27 1 11.674136472990146 7.252168479688493 19.300400855936672 1 0 -1
155 1 9.419720868917585 3.4274415641352878 19.07409144129568 0 1 0
52 1 8.504505432670415 4.928718903879089 20.9404105236382 0 1 1
270 1 10.933400338691905 5.51541123793582 21.01917511782112 0 1 1
2 1 11.442581501611173 5.0955122533191375 21.389999004071903 0 0 -2
190 1 11.98877209171313 5.017526301814242 23.54616127105362 0 1 0
25 1 7.773811240304516 9.556523450593502 19.32988208517225 0 1 0
75 1 9.723613809885626 5.845918523879368 18.61167418088298 0 0 -1
300 1 8.593542287444118 9.577056386377995 23.952440922296624 0 0 -1
168 1 9.28479334105348 9.798884378713266 23.836551165051368 0 1 0
244 1 1.3206522949888817 9.686002022362404 24.03287776451311 0 1 0
345 2 0.24042796091340457 7.79540410845358 19.22928127757497 1 0 0
199 1 0.9311661221938685 8.30378331148347 22.105627891429812 0 0 0
735 2 0.4790428475305728 9.246542588854787 21.055109537531223 1 0 -1
531 2 2.2521202364419968 10.647100641688027 20.39875412410359 0 0 0
474 2 10.88903234786027 8.616682473168499 19.448099751658702 0 1 0
898 2 11.042936423170627 11.531152775980356 22.059770717996585 0 0 0
305 2 3.4355102390315286 9.237516715660611 18.889090056425907 0 0 0
137 1 4.540396758186272 8.059543492022545 23.397342885626237 -1 0 0
213 1 4.124624364896151 7.897339458974555 22.808495479984444 0 0 -1
794 2 7.010207352280952 10.865533278707176 19.41865738564737 0 1 0
29 1 4.2038378427220655 10.386255274124705 23.09262160490988 0 0 0
398 2 7.051374361504857 11.485515314039832 21.653242562241324 0 1 -1
628 2 3.4699443305975555 11.313648281978239 22.151971359270256 0 0 0
222 1 6.944009417577432 10.455860902704204 22.524856498145603 0 -1 0
96 1 3.9153754806786374 8.232575414224288 19.870521160331073 0 0 0
220 1 3.8321449819952313 4.968837670261164 24.702787738081938 0 1 1
224 1 0.47927414353831344 1.2181101861639227 25.004483111290693 0 0 0
38 1 1.5907013044836265 14.8608080387331 3.407419342823653 0 1 1
253 1 0.13495132095743978 15.642559781154825 0.6928986370966055 1 1 1
752 2 1.457130184372784 15.644589086312576 4.742081695834358 0 0 1
165 1 2.564289841661852 14.380461293014957 0.7236140099730837 1 0 0
654 2 2.3914985356083927 12.905088165961214 0.9953302654049336 0 0 0
210 1 2.8934005402821485 12.689856943344118 2.3256682567788958 1 0 1
209 1 0.9511546108296178 12.659533127967016 0.8604905096390383 1 0 0
440 2 3.5582562220384144 16.67691178038669 -1.0165262513070388 1 -1 1
24 1 4.072714381384747 15.249273297764821 -0.7798628923727087 0 1 0
267 1 6.80549098574857 15.712659137646439 0.3889892120081897 0 0 2
40 1 7.018127292406559 14.403261771301038 4.933924432458481 0 -1 1
9 1 4.982085907129662 13.874035587397943 1.7910732481995981 0 0 1
257 1 4.602724788650328 12.624127339505907 3.653718142862263 1 0 0
84 1 5.178230417832858 12.97935650274383 3.3652445172896117 0 0 0
232 1 4.846984417556834 13.68870308711233 1.0270805646436072 0 1 1
41 1 7.625362302980928 13.45570578862579 -0.27255075723391065 0 1 1
197 1 7.750560591598887 13.173521689708519 0.3961196156068796 0 -1 0
221 1 5.6066649596443945 17.406638406073164 1.8675118616486617 0 0 1
589 2 10.007289117354713 15.74168241152414 2.76201258517411 0 0 0
586 2 10.99299019474565 15.255730186051016 4.833862370532119 0 0 1
164 1 8.960992568358165 14.810531123119526 2.3316091295803116 1 0 0
987 2 11.87335481262053 16.211961315074788 1.255122621693482 0 0 0
704 2 -0.6102447807451746 16.54975821371854 5.1890427070961636 1 0 0
871 2 -0.5760710595350607 18.70888711253103 4.25136552826311 0 0 1
883 2 0.9416356929836143 19.291581440491008 1.1185095976838308 1 -1 1
70 1 1.553908153700736 17.909626912293618 1.4890315434278532 0 0 2
731 2 1.5143737136135464 19.51259273783546 4.676628340508285 0 0 1
394 2 2.8545026438853522 17.482553490989247 4.734211945323699 0 0 1
918 2 1.3889514333442063 20.724430726036424 -0.6023582001937527 1 0 1
556 2 1.9064246261572588 20.758911532919264 2.7035556648309016 0 0 1
294 1 3.1247459097173316 17.327070549789795 0.21387707315734272 1 1 1
140 1 3.790868403886603 17.644771769676574 3.601988307780135 0 -1 1
771 2 6.756525833426575 17.055258499677898 1.0235762618469053 0 0 0
747 2 6.932410232966124 18.68287431767832 -0.7303399769356462 0 -1 0
483 2 7.4908242193254075 20.807665119518063 4.4354409442061895 0 -1 0
943 2 11.283324582303168 19.8388443524916 2.249066227731188 0 0 0
782 2 8.518523062002641 17.547666689313957 2.3513739614086573 0 0 0
637 2 8.461988843962407 18.708487445982897 4.272995013440926 0 0 0
552 2 10.831838023320541 18.20137926558982 0.735840786689546 0 0 1
658 2 10.84581529024803 19.162816412599803 4.40842400716004 0 0 0
74 1 9.279151059752278 18.196525243770843 1.0533119986775183 -1 -1 0
683 2 11.44634220418975 23.54975365300853 1.5441800689540557 0 0 0
476 2 0.939652325779694 22.263576244383756 1.1704372650880992 1 0 1
444 2 1.843452589968369 24.523915980305837 0.5449721247324397 0 0 1
868 2 6.606277559023879 20.772669065658825 0.01877654360888603 0 0 1
798 2 7.690332228102294 24.383239630217638 3.164500042344593 0 0 0
970 2 4.0920144961197895 23.185594037368247 3.9099372269099346 0 -1 0
383 2 4.1023030872978765 20.94608265959704 3.215146246574874 0 -1 0
800 2 5.526571551299318 24.17506740977351 0.2152334932120219 0 0 0
741 2 6.410811981900532 21.157724750035925 2.3075574669732206 0 0 0
681 2 5.796227720370731 23.284169709847788 2.332687324086262 0 0 0
377 2 8.979645977213425 22.546002348347173 3.869982045443268 0 0 0
375 2 8.88245216914647 21.560874038641778 -0.006117716852721999 0 -1 0
905 2 10.005996480518888 21.782738587335714 1.981621075932531 0 0 0
703 2 11.357715590583224 24.35328896824813 -0.7837488325980863 0 0 0
265 1 3.3535312015978613 12.057329795887323 0.1870281821458215 1 -1 1
706 2 2.6908094593473115 25.036694902189776 4.229409071698207 1 -1 0
701 2 0.6808865111468594 14.723982316273041 8.408717574181688 0 0 0
363 2 0.856273312073417 15.191967031852338 10.95829478668742 1 0 0
832 2 2.20329055420288 14.42194026841698 6.620271583801329 0 0 0
92 1 8.911266094519128 21.194450050199144 11.028458956513722 0 -1 0
171 1 3.335810010754787 12.02435384719848 10.890540173687494 0 -1 0
228 1 3.2398586570910437 13.67488759935167 9.180166970392861 -1 0 -2
725 2 4.482652579873645 14.328997032643159 8.858412375493625 0 0 0
512 2 6.130353484347007 12.77709004497904 9.231210631492566 0 0 0
523 2 4.496944722268479 15.263357408107764 6.745264252835424 0 1 1
860 2 6.799367474178683 15.265170316846797 6.117136439524733 0 0 0
998 2 6.80733570553536 12.530432820280454 11.352205232503568 0 0 0
904 2 4.31699058302203 16.451113985501237 9.885679035437935 0 0 0
520 2 7.671733183052865 14.253447012408172 8.06440504657837 0 0 0
249 1 10.216167522737798 12.641280358835935 6.400313020451873 0 -1 0
521 2 9.840992512080888 13.353366933853941 7.70506297344412 0 -1 0
329 2 10.96824551951523 15.397876401201883 7.153826140880614 0 0 0
737 2 9.486176398674361 15.889745842589969 11.267083236495495 0 0 0
519 2 11.891330681767347 12.4680700276248 11.212892773584572 0 0 0
660 2 11.509688588117047 14.676960390938115 11.811428078729389 0 0 0
473 2 2.361189894622519 18.956095052160812 11.930742067227492 0 -1 0
587 2 -0.6346932255467242 16.512950727995808 7.631427916319128 0 0 0
452 2 0.6500008589469277 17.574453842894926 11.009948829942577 0 0 0
790 2 0.5784622687418735 18.061227728711287 8.721253284502016 1 0 0
419 2 -0.16433528556520538 20.047191938304337 7.920835161745183 1 0 0
487 2 2.938783264075986 17.967272704215432 8.707091117625435 0 0 0
433 2 3.809605273187983 19.549322722220822 10.319469145288418 0 -1 1
844 2 6.17084085612193 19.278328736398613 10.752105713383768 0 0 0
732 2 4.088462654404514 17.493811543439897 6.726683608020317 0 0 0
850 2 6.063488932848201 18.564040903919953 7.121037279483488 0 0 0
927 2 6.250406165838748 17.639836062222074 9.31764637998013 0 0 0
692 2 8.28945912895211 16.19852395788513 9.22561227014434 0 0 0
528 2 7.733007032183842 17.42494310450308 6.1449338531555 0 0 1
787 2 11.833675178218668 19.712913078050377 6.368799499692125 0 0 0
711 2 9.65416893582999 17.340244952792013 7.597146567615328 0 0 0
727 2 10.108039685247338 19.51059030528696 7.839054316931998 0 0 0
200 1 10.891443235426976 19.636451994491097 9.103453771643801 0 -1 -1
271 1 9.67796121517856 18.80799932664968 11.274688313208134 0 -2 -1
758 2 1.257476216126078 21.151826659919237 6.445530660538634 0 0 0
332 2 1.2390007020926608 22.122947135074448 10.808547977770909 1 0 0
437 2 1.3472637028524397 24.48037590217644 7.971047178589858 0 0 0
526 2 -0.7360146528695877 21.65139477906947 9.58953257043255 0 0 0
508 2 2.937696323246647 22.596896713458662 7.568351961160763 0 0 0
897 2 -0.8299492489568393 22.217507481450248 5.923396337023517 1 0 0
446 2 -0.7929496651431427 23.45463274147277 7.9972273701088685 0 0 0
836 2 1.0814899893597074 24.165986257096044 11.721273488151393 0 0 0
690 2 3.241071596025394 21.93163564070398 9.60242518531659 0 0 0
880 2 6.472321339373628 20.963492043530223 6.5562957300876334 0 0 0
696 2 4.864172897161556 22.855334054765137 6.25043703644273 0 0 0
506 2 6.770395744239042 23.383249813944666 10.396086654493836 0 -1 1
607 2 4.662107281316214 22.99567271503588 11.346160056674426 0 0 0
550 2 7.481940452187059 24.73324796424484 8.405736260598786 0 -1 0
977 2 7.656151989227789 21.1942392970141 10.27064752746803 0 0 0
432 2 2.1567012839178106 12.181618978798213 5.9973177084440215 0 0 0
291 1 7.649451811568582 23.84286371316474 11.506649216942984 0 -1 0
805 2 8.329137252259615 21.153754708394374 7.9497603272128945 0 0 0
426 2 10.265146736290735 23.06450810034474 5.652327693024139 1 0 0
669 2 9.161479235190841 23.295521206198238 7.625314433745144 1 -1 0
109 1 10.766389797261908 24.260816858322464 10.47113158537983 -1 -1 -1
834 2 10.626078159335243 24.740932670984535 9.042782672315026 1 -1 0
967 2 5.833993839363008 25.00044794271676 6.527792081690809 0 0 0
527 2 -1.0071802325279176 13.18216936593078 7.753743216463432 0 0 0
831 2 1.4940173361746134 14.378748894315192 15.238621187656774 0 0 0
878 2 2.3215657610169784 14.35964761084295 12.94454790495036 1 0 0
814 2 2.0395700513903194 12.538863214008765 16.961718904480023 1 0 0
657 2 -0.6737210375309483 14.956519813511134 14.932958529376402 1 0 0
454 2 2.4872971639758874 16.203105823744878 16.597006451909003 0 0 0
547 2 3.3347000552579145 12.137008959893137 12.303901549233373 0 0 0
311 2 6.083250568692624 13.171244314329442 15.475965895954063 0 0 0
422 2 6.236387276238488 15.404155717585658 15.090737152144898 0 0 0
793 2 4.412367870825907 12.537292390210492 17.209362339398787 0 0 0
402 2 6.407598774648932 15.859877853596595 12.864188685682107 0 0 0
373 2 4.196342500640247 15.876848891887485 12.291311204855894 0 0 0
296 1 7.542153578359153 15.49084232216625 15.669164059955031 0 -1 -1
308 2 10.688893378375244 14.741199743712349 14.00234037039501 0 0 0
714 2 11.172893285377867 14.225359839353342 17.52900594456907 0 0 0
484 2 9.289445982314437 13.089942838673128 13.645540543526554 0 0 0
514 2 9.70429623053652 16.071347190252553 17.586281097054467 0 0 -1
39 1 10.244588026665248 16.168510132560833 14.41242417494662 0 -2 0
344 2 9.801837259466092 12.362322058747916 17.37238182965212 0 0 0
895 2 8.111722774913943 14.37733030311137 12.102201307312168 0 0 -1
847 2 8.245209656218762 12.094215778632043 15.583798293668758 0 0 -1
393 2 -0.01882723902567407 18.887603875836597 15.229545064945425 1 0 0
617 2 2.1375271744995357 18.04618627643646 15.294169387330738 0 0 0
930 2 -0.6564175015991076 20.788476588641288 14.050608838404537 0 -1 0
143 1 10.356586219982507 20.800740249211124 18.255349029138877 0 -1 0
368 2 3.516086047291507 17.76495223341591 13.430784069878397 1 0 0
553 2 4.901991889953325 16.474906177705492 16.57742351300081 0 0 0
338 2 3.3178351040111096 19.786774831493013 16.4134863614905 0 0 -1
723 2 5.452167924035562 18.800102229314078 16.097554790106983 0 0 0
55 1 4.664275932137877 18.55207578661384 13.805893435786814 0 0 0
751 2 6.878238042408566 18.213846975816452 12.548853633888337 0 0 0
803 2 6.310121707693102 19.693785518082322 14.199754560693624 0 -1 0
387 2 6.811146418506307 19.78740123566508 17.71222427310169 0 -1 -1
830 2 9.219125061283272 17.9437410286263 12.370837746954594 0 0 0
182 1 9.918976621230298 17.994315111979176 13.595094593543319 0 -3 0
252 1 7.662163917012531 20.427809270411835 14.489822195227129 0 -1 0
518 2 11.564671654175298 19.706714400026193 18.185131001956535 0 0 0
12 1 9.35321336294248 22.48536717372243 13.300310734900219 0 0 -1
255 1 9.741328690725233 19.829417092138343 16.07975306584885 0 0 0
153 1 10.231431582574443 19.236498648747393 16.23304095059713 1 0 -1
81 1 11.741550955995748 19.991035565051448 12.186636786127348 -1 -1 -1
386 2 1.363802321847623 20.912711926105466 12.91748605055065 1 0 0
921 2 1.249787582543624 23.54043298583221 18.058215111366778 0 -1 0
672 2 2.6662227038504707 23.477152791254596 16.048897347776176 0 -1 0
769 2 0.31533023251586445 24.823415814875972 13.834868952282108 0 0 0
673 2 2.9993629960317323 21.457910182698946 14.640735696861555 0 0 0
922 2 3.282621478790519 24.716675679772926 12.226041959131905 0 0 0
43 1 6.682641094405273 24.446943605333942 14.220906298232885 0 0 0
924 2 5.132815941552465 21.730416209027027 13.739740724958006 0 0 0