LAMMPS data file via write_data, version 2 Apr 2025, timestep = 6560000, units = metal

1000 atoms
2 atom types

-1.4584425207344456 24.31324968890789 xlo xhi
-1.4584425207344456 24.31324968890789 ylo yhi
-1.4584425207344456 24.31324968890789 zlo zhi

Atom Type Labels

1 H
2 Si

Masses

1 1.00784
2 28.0855

Atoms # atomic

793 2 -0.8998707799455579 -0.7280571362646319 3.888554728663008 1 1 0
468 2 2.588582935465088 1.0282560979149857 1.0750491759916008 0 0 0
778 2 -0.7843204946847755 2.507969795333786 0.6111868200717638 1 1 0
490 2 0.9860961175772092 2.6340335917263706 2.141463528225343 0 0 0
401 2 1.864565392126662 0.5281714251386449 -1.1227665536032334 0 1 0
692 2 -0.2908634461764108 2.9729056579869475 4.160337239975339 1 0 1
640 2 2.582816588204696 -1.17408969151476 2.0502475596609466 1 1 0
975 2 3.841910810790413 4.809127959706015 -1.24375791442188 0 0 0
536 2 6.049973370655669 2.019754198331481 2.775122876977596 0 0 0
625 2 4.681444563388884 1.9864432787089457 0.940332820281367 0 0 1
478 2 4.310708537533397 2.1402766950405248 4.422594256212098 0 0 0
972 2 5.789934946814956 1.8450411220838046 -1.055363621408887 1 0 1
346 1 3.223547838356022 2.5748887206584987 3.571916313170373 2 -1 0
639 2 11.061809129322166 0.5618403144617292 2.1752450617509034 0 0 0
891 2 7.618160177653479 0.3552237316404421 3.01037355689526 1 0 0
539 2 8.937406086730372 0.27014447256538965 1.0506436250822069 0 0 0
684 2 10.47451531306136 2.3137894027102646 3.889563737959109 0 0 0
440 2 8.933983199205581 1.726543359662804 -0.8211895970248817 0 0 0
370 1 7.6735074451673615 10.835567628510695 -0.930730685135846 0 2 1
859 2 8.93932249066062 0.8928906819651168 4.924541047028449 0 0 0
824 2 10.465631784648954 9.359091703702228 4.458563976424225 0 1 0
602 2 0.7876892945691849 6.065372107277618 0.1748571671968473 1 0 0
517 2 1.8563856769394955 4.921874762393586 1.7820342513341028 1 0 1
543 2 1.476989100992511 6.096942275217276 3.8707759148918575 1 0 0
956 2 -1.2434730303258552 4.710109746012638 0.3386912637275039 0 0 0
840 2 4.063673860103297 4.290056947046883 1.0239377574424573 0 1 1
456 2 5.704017691118366 5.385120495835362 2.356955416988818 0 0 0
450 2 5.269337048910263 5.7605439844835455 4.521209352835497 1 0 0
511 2 9.537148909819955 5.967259501174475 -1.3149000051453124 0 0 1
788 2 7.2911033638235825 3.7626507431691767 1.8608625972047323 0 0 0
737 2 7.437311388909329 3.4386625679735117 -0.5243776126298695 0 0 0
287 1 10.129560275377726 5.317062836217686 0.051782659293931665 0 0 2
604 2 9.311802794526747 3.9413183734029484 2.8400905445107734 0 0 0
779 2 9.275020382903485 5.854107747890807 4.422175413052342 0 0 0
899 2 11.106680503630486 4.66656376343131 1.4918513362536316 0 0 0
908 2 -0.18309298266738416 7.730288720417768 4.225621820487337 1 -1 1
88 1 -0.015454508110206877 9.212118722137342 3.8523969403308023 1 0 0
146 1 0.836432904924227 9.785827942987973 0.45667181882755403 1 3 -4
83 1 0.38977208071718894 9.383259138032036 0.9187165786523841 4 0 -1
254 1 -1.1856438630454562 11.345848454159167 0.34618952476847054 -4 0 6
680 2 7.805675891838169 9.40781367525634 -1.4552345972083265 0 0 0
325 1 3.946253786081795 11.135220864944356 3.861210439288576 -1 3 -2
833 2 3.507450513137935 7.243515689578912 4.540028314342286 1 0 0
352 1 5.2004487641831885 11.0795615667501 0.37983964952528715 0 1 1
269 1 3.1491786691715635 9.961607470009975 0.17438054452920193 0 1 0
914 2 4.534993828609004 10.030542449935849 -0.39776598229376603 1 0 1
750 2 6.52734365352645 7.530163255587498 1.8179957824165505 0 0 1
163 1 5.929436635446923 8.744432013445426 2.5006005690478146 -1 1 -1
950 2 5.901149487215079 8.154260817025119 -0.36510614012532416 1 0 0
305 1 3.8059626587347726 8.30084034515506 3.558818656309265 0 2 -1
29 1 7.31392400926066 9.483308221972958 3.97942801805865 3 -2 -1
534 2 8.83162901193814 8.172395300795474 1.417062813388248 1 0 0
42 1 7.650985910892645 11.248803589969292 1.2845530281931148 -1 -1 1
723 2 9.569038269646997 8.206276485556586 -0.7912990729846324 0 0 1
980 2 10.246240425417458 7.4901700263779425 3.135832757055769 0 0 0
497 2 8.857066538672482 10.477457286134197 1.8759517498333027 1 0 0
744 2 8.414678835646544 10.181082928120778 4.677802058207777 1 0 0
224 1 -0.5419748922318549 11.23923658027216 0.06579001313523247 2 1 -1
728 2 4.036559649341723 -1.4001189750801972 3.8806090472570096 1 1 0
416 2 1.7439342101426978 1.804951883713767 7.895274807489477 1 1 0
757 2 1.4974047172257312 0.08860103414775522 6.277299678211521 1 1 0
874 2 -0.07661238863572817 2.0335931758482975 9.149911346769462 1 0 0
72 1 0.3982561125454842 1.9786150983446178 10.550991118455283 0 1 0
405 2 -0.31840173972455843 1.0308246887792074 5.223606489642979 1 0 0
961 2 2.8966815711415403 -0.07647304994122739 10.77957149682053 0 1 0
782 2 3.7268919171552177 1.2314994645948616 9.013084695564418 1 1 0
781 2 4.5708636902604045 -0.25777270034355837 7.423579395772638 0 1 0
656 2 3.6205904709946504 0.14200486112017296 5.380591292491155 1 0 0
627 2 6.815697300522034 0.018176235642709093 7.604177586545482 0 1 0
541 2 7.768368451028316 -0.2225877241021117 9.719283753884955 0 1 0
557 2 10.610680418935852 -0.46316124509956924 5.837995003984385 0 0 0
569 2 7.99164752452967 1.88317915554624 6.955264761300652 0 0 0
591 2 8.23553260726046 1.9314638241648105 10.581403785952357 0 1 -1
794 2 10.014873648074987 -0.892452924391307 9.503135704430205 0 1 0
588 2 9.447503745539514 2.574203913227808 8.734488569676227 0 0 0
738 2 11.254612482415068 1.1389263544190578 9.029470974618071 0 1 0
946 2 0.7538645184153463 4.613997849716694 5.508215453225093 0 0 0
783 2 2.341661139627367 3.7654711148889763 6.987938431390328 0 0 0
427 2 -1.186991856668396 5.3567223870568785 6.717299377723661 1 1 0
74 1 2.289213364136475 4.635179837847403 8.323093531936484 1 3 -4
130 1 2.5950555723724893 4.5050620594028015 10.820853885727184 0 -2 0
734 2 10.676374828379963 10.592152557900281 11.352770049827718 -1 0 0
190 1 -1.3236751765769466 4.944683409433782 9.852083984122478 0 1 -1
50 1 4.083410987696447 7.933518529953311 11.295300583685773 4 0 -1
727 2 5.143235764274111 2.9100580153810025 9.34143332392346 0 0 0
212 1 4.0420628087287325 3.9241956599860837 9.110472234566677 1 1 0
831 2 6.37652699192737 3.6436807669842306 7.470849144052966 1 1 0
770 2 4.511511494694754 3.9283599725137925 5.984271298108521 1 1 0
13 1 5.75900264177355 6.545085581493288 8.091653380726335 0 -1 1
742 2 6.388235931885267 2.9720774103886365 11.28942625138875 0 1 0
878 2 7.011308044446462 5.885371948513955 7.695692392699691 0 0 0
578 2 -1.2759237686980518 4.0543268213991155 8.714482156508994 1 1 0
876 2 10.755296498261469 5.126188155509157 6.10694040509274 0 0 0
643 2 10.404540938031042 4.934969207666723 8.595544621453643 0 0 0
754 2 8.908154652441107 6.659634604150858 9.03871425795135 0 0 0
828 2 7.129946586938617 6.616573717473765 5.416438138412494 0 0 0
947 2 8.483843149302995 6.8796334721985755 11.282318879719142 0 0 0
376 1 2.700504877041812 3.843444647756347 10.652264587975278 3 0 -1
312 1 0.41331399421944437 9.297005624069547 10.837813475077239 0 -2 2
6 1 2.1774798471303014 9.580167700538794 7.293338907664793 -3 2 1
127 1 0.5158162616869131 7.869310537743477 7.345960355458278 -2 0 2
404 2 -0.7421086621062855 7.684108184937541 6.4821654157420845 1 0 0
292 1 1.8595280676708312 9.085615140907171 7.802171288917446 -2 1 3
15 1 2.169691509693882 7.499889757997471 8.89538573078629 -1 5 -3
452 2 7.241949203127163 10.499888718344351 10.420281077406017 0 0 0
345 1 2.3404450449106005 6.840531135627879 8.529745898316607 2 0 0
319 1 3.3311947849004184 7.9435870744405275 5.8285793841446765 0 0 0
191 1 4.2602490774839135 10.45202582920546 10.854385973199264 0 2 -2
801 2 4.794461592200305 11.098633221646056 7.4613913843590645 0 0 0
54 1 3.9574410981014987 10.186685880228396 6.706327658825451 4 -4 3
123 1 6.226536364511974 8.552787952566229 7.983798113783392 -1 0 2
579 2 6.575662345450446 9.953694107057142 8.223617483712253 0 0 -1
889 2 8.381918213792247 10.342688292708303 6.974705174130124 1 0 0
166 1 7.07538319265136 8.044233018067636 5.283429290875701 1 -1 2
740 2 9.73710285697273 8.694854856864977 8.006482857110601 0 0 0
978 2 -1.3825241073105836 0.14205808003044318 9.11657066298959 0 0 0
353 1 0.7845442361042867 9.461935349927359 11.40355551908315 0 -4 4
618 2 -0.4823105692860189 0.40576974566677504 13.191980480581783 0 1 0
469 2 1.3933646174010428 0.5299720940017203 16.643893826732786 -1 2 1
415 2 1.4881221011548242 -0.2313723921502151 14.344964187554254 0 0 0
882 2 -0.6427012321147249 -0.7092793879309334 17.174388381530896 0 0 0
327 1 -0.7331085962734575 1.9061944192615758 13.029588171261105 1 -1 1
256 1 -0.5538061646519328 -0.1396438099309174 11.817905118050001 1 3 -2
413 2 1.1175566215602846 2.6798926646143215 17.692203513086483 0 0 0
258 1 2.5396651718356384 -0.07053894962057261 17.30625740085413 0 2 -2
308 1 8.504361652083272 -1.4344199320630457 14.16677701142139 -1 1 1
156 1 2.7243916877790957 0.37965871088041037 13.667591006792257 1 -1 1
598 2 4.822994105558791 -0.8153913116739183 12.048314754791598 0 1 0
22 1 5.4333833871724755 0.4557391792978489 12.505058733180244 2 0 1
174 1 4.024759899845191 1.2896988964029674 16.280670506818325 0 0 0
64 1 3.9921107135541742 1.2497994207106728 15.548197505892537 1 -1 -1
295 1 5.622274424428239 2.2302056151323484 12.26104531745166 0 0 0
55 1 6.476116726157011 4.3142987273069 11.854666269865794 0 0 0
249 1 6.084327830614908 -1.1491205531982518 16.092235702751807 -1 7 -5
53 1 10.183013644526277 1.7415894040504023 16.347136506668555 0 -1 2
94 1 7.2286332332405205 3.1570433632417974 14.122822124667323 -2 0 4
187 1 7.650021067922175 2.5157241597308273 14.182884601787853 0 3 -1
303 1 7.9412709157935755 4.173911250900568 17.28046185566138 1 2 -2
231 1 8.844098642688198 1.3755968833017702 11.851685034649384 0 0 0
386 1 10.30608191061669 2.3411256843101533 16.65755357015344 2 3 -3
227 1 10.791727412095373 -0.7479331530888469 17.6812723142664 -2 -2 3
406 2 8.669188481814105 9.093958651371427 11.71181695533497 0 0 0
131 1 10.84473998409846 0.3810718301464844 14.635105748192816 1 0 -2
244 1 1.391070771841946 4.254910936237848 12.923956408170246 1 -2 2
137 1 0.034326575552559024 3.303263261468657 14.79107336669181 1 4 -4
669 2 -0.33830462012375495 3.839087651691192 16.160353051040502 1 0 -1
985 2 -0.7850252118311394 6.063830264917354 16.366170700986984 0 0 0
125 1 -0.5916107456432943 6.997243105043724 15.24379699841492 0 -1 1
150 1 1.5475964377565536 6.9919789800204 15.00339384289578 0 0 1
320 1 1.0298198045900677 4.941434309567186 12.856217850199263 3 -1 -1
24 1 2.9759086275973106 5.346835845690368 17.68550373028929 3 -1 -1
268 1 3.7847419698354132 3.0220644788650377 13.691047305250615 3 1 -4
51 1 3.1886533195569866 2.851677456035307 14.146310354299958 0 -1 2
2 1 6.604050738003348 7.260166347109177 14.897933172743334 0 -1 1
229 1 5.489573553033511 6.148706477625187 17.629100952207253 1 -2 2
86 1 5.297420111290079 6.254948805802102 13.21038751604054 -1 -1 2
360 1 4.630929460347851 6.565195654099629 13.30124445335306 1 0 1
315 1 4.8583921789528475 4.035487191521973 15.467343215150278 -2 4 -3
384 1 5.0393038312266 4.723075682554342 15.742112396753688 0 4 -3
196 1 3.438410235257636 7.943341548143897 11.65366673317099 6 -4 0
49 1 -1.3267204709378166 11.041829232050402 11.761811243902901 2 -2 1
109 1 7.0681205617603915 6.49361298712491 11.545808255882687 -2 1 2
243 1 10.493714859009517 3.2447348781956773 12.82865434011447 3 0 0
23 1 7.454859796504623 3.563599962481824 17.07281619913045 2 2 2
87 1 9.021715068982129 7.066944378647001 15.422341895959375 1 2 1
255 1 9.210840289733877 6.2191895176690855 12.499766303971695 0 2 -2
730 2 10.614794204926174 5.11328718307388 17.73536349581086 0 0 -1
108 1 9.794833314212068 3.41186056294522 12.629803321949234 4 -1 0
97 1 6.811828164515751 -1.1515146611484772 15.834076951251609 -2 3 -1
339 1 10.674966592996856 5.696182223590431 16.39661881601325 1 1 0
443 2 10.685238258828031 10.060312534124146 14.776491307210359 0 0 0
509 2 2.536608767424228 7.94450516187327 15.522700299365988 0 -1 0
646 2 2.6568375501159087 9.778257697314801 14.108185642613494 0 0 -1
201 1 11.193368531518075 3.7842726890166345 17.827114164032757 2 2 0
318 1 2.0397218100962626 9.51061916700144 12.794603534601926 0 1 0
883 2 1.989299743886714 8.662275573976874 17.634996106886454 0 0 0
162 1 -0.46100252503404804 10.386308366076307 16.897224264987265 1 0 2
516 2 0.9024686448835841 10.829760463563051 17.301549587057863 0 0 0
117 1 1.7488502954442748 0.40426812951199254 11.46147722747633 -1 1 -2
324 1 3.931095406799068 7.377159354292223 15.662489298530675 -1 1 0
564 2 4.9689750981216925 10.005821539932802 13.786719637257452 0 0 0
286 1 5.833329439084784 8.665919725348232 13.606923642220094 -7 0 1
423 2 6.518019590134849 10.76303741534133 17.766304946203746 0 0 0
492 2 5.387348199827199 10.879603524340666 11.657185550511045 0 0 0
535 2 7.827808223490651 7.904622552354985 15.527963747469732 0 0 0
498 2 8.48704532459339 9.636628486617484 13.98323828495142 1 0 0
816 2 7.484067388378506 8.64987606574572 17.560542774680364 1 0 0
279 1 10.415775796676686 0.5712343106532005 14.068653589139815 -1 1 0
501 2 1.0217707138345133 0.4770177448660009 20.925932335478265 1 0 0
713 2 -0.15659635236520386 1.9556389301206583 19.5498918709483 1 0 -1
445 2 -0.3221173626392331 -1.0562922024116495 22.091979197523727 1 1 0
963 2 -0.06559828846662397 1.8143554263255548 24.266742382556494 0 -1 0
282 1 3.4364785880555697 -0.9680698834071766 19.33443880954527 3 -4 0
918 2 2.045448507572148 -1.3245000070605208 19.92061271570465 1 1 0
912 2 2.7892668242189727 1.2422244454496183 22.532432749784817 0 0 -1
79 1 3.635545304958919 0.06764025089134762 21.989676735860932 2 -2 0
189 1 6.0978791949923385 0.016643235215468177 20.363154396574565 0 -1 3
153 1 4.636826261304529 1.9032407233867086 18.587898037224825 0 1 -2
642 2 6.852722284971833 1.0757724642941224 21.316989936996983 0 0 0
487 2 10.104184761810087 10.75061892372394 21.670015455968233 0 0 -1
546 2 8.754689597632591 7.671951066015188 20.8665490147145 0 0 -1
668 2 7.413775338131845 0.5852351911354847 23.49313478083377 0 0 0
483 2 8.928125774745553 1.282114790063853 20.19320688428624 0 1 0
562 2 10.050904931153031 -0.5981505305679816 20.660316640901478 0 0 0
62 1 8.682444600413428 1.302037584884567 18.659843651969616 0 -2 0
561 2 0.03339010132264453 3.7417424965443997 22.923509102458425 0 0 -1
626 2 0.9558114000023825 5.4479114298520255 19.87136071411915 0 0 -1
499 2 1.6371834581497073 5.509603809475204 23.759680057866234 0 1 0
995 2 -0.6985104322976776 3.970970792803829 20.665282348114808 1 0 0
573 2 1.232016160882901 6.708668259557356 21.69030615833109 1 0 -1
655 2 2.6503983354405367 4.20913428261734 18.69096412356663 1 1 0
699 2 0.3512727824768813 7.1267068316254445 18.27183804938521 0 0 -1
350 1 5.648056253078706 3.8088736374499437 18.32625622388138 0 3 -2
634 2 8.261278468429746 9.609784092830907 22.16357336134716 0 0 -1
442 2 4.668608156076508 3.187493463909176 19.208811412288455 1 0 0
510 2 4.222311425680762 2.9165946975537302 23.187455301618186 0 0 0
645 2 5.680971210122371 3.2228889162633996 21.308279262536914 0 0 0
496 2 5.658259170468028 6.45559545607247 23.966258632160084 1 0 -1
962 2 6.739569671976092 6.67549684914046 20.493964766245057 0 0 0
792 2 5.910111081407402 7.281601029477171 18.459414639812692 1 0 0
493 2 11.278832592700688 5.540486290034124 23.02031662310283 0 0 -1
556 2 7.473510966943548 4.660438597320706 21.485607867412895 1 0 0
636 2 7.6019010970775405 5.162547339866539 23.71209197272038 0 0 0
398 1 10.056745701997519 3.7982238719075596 19.73141467805879 0 2 -2
973 2 9.406354169324691 3.3873695770418104 20.91777660268157 0 0 -1
712 2 10.92768487943154 6.968043015164193 21.366705668166738 0 0 0
436 2 11.170583017257977 2.0848872438556327 24.308718167211467 0 0 -1
455 2 -1.1939360238426795 8.364489801659065 19.61347299002012 1 1 0
717 2 -0.7140903026667275 7.883205059408521 21.846667458182573 0 0 0
388 1 -0.3452711710505225 8.942665756484539 22.878166163927638 -1 0 2
638 2 2.669556781960246 10.120792838816378 21.971040469730916 0 0 0
210 1 9.158928228218192 5.305487448711102 18.21679390761186 -2 4 -1
689 2 5.96171833265144 9.941631028369871 21.608800131794872 0 0 0
482 2 4.583813527976101 10.94277380474029 23.175199462929704 1 0 0
451 2 5.2523644149050295 7.632667784280207 22.059323927081685 0 0 -1
967 2 3.0644091114644025 7.946908466627802 21.216201994116666 1 0 0
410 2 3.857017530533204 8.459801167232817 18.90237055878852 0 0 0
823 2 4.9146451907917115 10.537338755051653 19.527135747328465 0 0 0
895 2 9.342646762172592 8.72834811333834 18.93374269502882 0 0 -1
675 2 9.839811233659466 10.915163853910306 19.43780412506026 0 0 0
93 1 6.101603587333475 -0.3561807203052314 17.91070564692226 -2 1 3
248 1 6.683918603540835 -0.8200448602752104 18.163875675935863 -1 -1 0
904 2 -1.0762574569987065 14.279237865606618 4.777354026216036 1 0 0
390 1 2.1498586934622104 13.761837690859648 3.197585138950555 1 4 -5
622 2 10.08363040357645 20.118571985465003 -0.34812441298950003 0 0 0
790 2 9.52025625148951 23.753042959139158 0.4152953419729939 0 -1 0
233 1 -0.6113202671927114 14.041238708949692 3.34931769379471 0 -1 1
154 1 1.251966872054099 13.288516688797952 1.2178671233669234 0 1 2
143 1 0.47966053185745317 13.427334372487708 1.2417208831724724 2 -1 0
590 2 8.641417428470492 21.78472807411236 3.615121064654117 0 -1 1
80 1 4.565672106387352 11.56548997877694 4.078164811613356 -1 2 0
48 1 1.7302707566907713 13.471273730443281 3.7476673755753165 1 1 -3
290 1 5.344561340131617 13.025289925929126 1.050597943525991 1 1 -3
30 1 5.439522751277394 13.487777791803591 1.6429026401126703 -4 0 9
372 1 5.811721859506707 15.828951979146884 -0.49108922718088954 -1 3 -2
367 1 11.30544249164943 16.223398026364464 -0.2906244234028117 -1 1 -2
252 1 8.501453215631832 11.613077258987099 4.427522558646562 -2 0 2
218 1 7.870065584372403 12.996800502510657 -0.965882150270131 2 0 4
381 1 7.314085333574381 13.160357135606382 3.068440876952174 1 -2 2
429 2 8.571311092825836 14.192837389873677 -0.541461192043524 0 0 1
834 2 10.000319852642825 13.88790875410162 1.2073474797616628 0 0 0
547 2 8.416708128091935 14.257136993358897 2.927455970136381 0 0 0
577 2 10.885564216470415 11.802847085887032 1.5430557883843807 0 0 0
96 1 7.542375612570716 15.194445078965428 -0.057155599580993144 0 1 1
550 2 9.549911340708782 14.68400080436925 4.898932611387292 0 0 0
181 1 1.2295714639453452 15.404391826117878 -0.47236233057871824 2 -2 0
33 1 -0.8064769607246426 16.040523723236475 1.4400762945137306 1 2 0
666 2 0.2294319235928397 18.07938458396069 3.7631118237513883 1 0 0
916 2 -1.1668980352753318 16.756133013369443 4.833082860841222 0 0 1
733 2 2.2284819073367883 18.395287514513626 4.754077258338031 0 0 1
95 1 -0.9083318051136576 18.84661503893981 -1.1767145130935917 3 -2 0
25 1 2.4341249335260153 18.3213595188951 0.259119795367877 1 -1 1
822 2 10.267500084182677 22.915262364477975 2.3675077239033837 0 0 0
366 1 0.6343779020834903 15.519574009681639 -0.8811587024121694 -1 1 2
183 1 5.239659950047336 15.740892630447403 -0.9150514686607154 -1 -1 0
293 1 3.494638409381806 16.341706513327367 1.0638041239794087 -1 1 -1
397 1 5.0250156468055485 19.436353649579637 -1.3350441028114535 1 2 -2
966 2 3.6938538776301657 17.768680931117565 0.881094815061457 1 0 0
321 1 5.697300728551235 15.611604412839236 1.7837470899998018 -1 -1 -1
99 1 4.7633519466746534 18.080668398019455 -0.034508808905036714 0 -2 1
606 2 3.6137721648563206 19.01859892866034 2.917804879899185 0 0 0
527 2 5.735343565721907 19.368670529994304 3.705999301811742 1 0 0
799 2 6.990846704392448 17.557766562251864 4.306072953877665 0 0 0
43 1 7.033966617374141 19.134759883290478 -0.4873325986055731 0 -1 2
563 2 11.367635751694 23.548914545554894 -0.9870140603052362 0 0 0
552 2 7.0213143998571095 16.062097947087075 2.4610330412861576 0 0 0
915 2 10.43904107822932 16.76913742346754 4.703833431468603 0 0 0
260 1 10.806159877666548 18.945397422754525 -0.7646098931202854 2 -2 -1
927 2 8.638885140020419 17.412076219964824 1.4748722407353978 0 0 0
772 2 10.742498572637492 17.262867802830343 2.413787091233434 0 0 0
520 2 8.081430489227841 19.36558879381286 0.5068932342685522 0 0 1
845 2 7.438338541203748 22.952159216791244 -0.46228933540352546 0 -1 0
47 1 1.1130984390373402 20.27454788895983 -0.04776622062328406 1 0 0
796 2 -0.5426731819134658 23.985105830052994 0.09839762031635102 0 -1 0
446 2 0.4465590349355848 23.850293163362736 2.2880425545314442 0 0 0
959 2 -0.19069965165823866 20.405500248948528 0.8096995705246703 0 0 1
614 2 -0.15590820634656422 20.325274975460538 4.478942570763137 0 0 0
968 2 0.6461328070511971 21.46246495842918 2.560249932264723 1 0 1
246 1 7.541360903977173 21.705887124308468 -1.1285111520506201 0 1 0
631 2 6.325324158919722 24.178174481388886 3.289662351110773 0 -1 0
432 2 2.815020910603076 22.73738258052198 -1.3905239651910684 0 0 0
861 2 2.8900914309910037 21.18861614404714 2.495334985508992 0 0 0
988 2 6.966928126610384 20.70658356058386 2.2484224824137553 0 0 1
746 2 3.692834658911334 22.848750498258042 0.8783956180738435 0 -1 0
921 2 5.977578961846044 22.850815423690953 1.4020647636757912 0 0 0
979 2 3.5205811145131625 22.15815685947304 4.592697402917315 0 0 0
283 1 1.0239294425258412 12.028475387017787 -1.2995191205012597 0 -2 3
213 1 1.4961099407232186 15.187758489873934 7.27018116353549 -5 1 1
343 1 0.8152737749491932 11.73891556791441 7.1364396280385485 0 -1 0
89 1 0.5011779288771872 12.237433848639888 11.201739374666477 1 -1 0
629 2 10.487819613950295 21.177758221461445 10.55257203800926 0 0 0
120 1 -0.5972289300747547 13.466055310533855 5.878787957084083 2 -1 0
330 1 2.963177696151744 12.730571557539786 9.696021517095366 2 0 0
52 1 3.9036120370685854 11.541909417230839 8.538051102790781 1 1 -2
969 2 3.506798641816002 13.906114027581664 10.409091390414202 0 0 0
683 2 6.025238573253071 14.735890946851049 7.170614169772888 0 0 0
707 2 5.263247249554412 12.8106470194679 6.022097567420188 0 0 0
758 2 4.494018958557661 15.360827889120662 8.850091097681002 0 0 0
300 1 3.9751750703081985 13.109234602834597 5.40104999319376 1 -1 0
486 2 7.073364644772804 14.041634054267076 11.151235905978046 0 0 0
437 2 8.365138114879638 14.381777320814807 7.1730507863889095 0 0 0
798 2 9.289271522880354 12.35917903933689 7.869556441930147 0 0 0
777 2 8.338499533246603 12.501554024626294 9.984614107720745 0 0 0
272 1 8.002343260728805 20.462278677050584 9.137734642121242 -4 0 2
860 2 9.689896200171502 23.692247642987986 7.4435521362739685 0 -1 0
703 2 1.8402263617330314 18.11527715081226 8.84088279437677 0 0 0
811 2 0.0934000016086487 19.072720864499864 7.795598784319642 0 -1 0
426 2 0.5949020887912209 16.840284268740298 10.444527009629304 1 0 0
653 2 -0.9689060472169917 19.740206122592205 9.678481241551884 0 0 0
762 2 2.638483586171228 16.15460968868488 7.774551674775861 0 0 0
480 2 3.5292552025774118 16.738360356107925 5.6740525615242925 0 0 1
944 2 6.049582575224494 18.27810124000986 7.888273039811267 0 -1 0
633 2 5.7160838595809444 17.201481449551153 10.099605983487534 0 0 0
508 2 5.776992362983223 16.76210287739606 5.997298960853297 0 -1 0
495 2 3.616458360524862 19.785354298158865 9.471094459885117 0 0 0
474 2 4.5713397200098065 18.75292357385377 11.382532043283708 0 0 0
922 2 11.15207300471207 16.324523754011537 9.254494357310621 0 0 0
814 2 8.907581862161267 16.08260169427018 8.730081540105441 0 0 0
690 2 7.671514841561466 16.105619703966326 10.655677982889943 0 0 0
665 2 8.974419369265457 18.29632419358756 5.437930794965355 0 -1 0
526 2 8.374240483455747 18.12538263863504 7.797449457531387 0 0 0
417 2 0.46931826579948255 23.88779993489962 6.773439503064276 0 0 0
825 2 0.752502600553111 20.20426520068716 11.211200963969324 1 0 0
576 2 1.3564290751594985 20.32150051108259 6.243846569349702 0 0 0
596 2 -0.08374713209871021 23.889427811711492 9.062742141127469 1 -1 0
521 2 2.1221335818825673 23.664229615646143 9.905685518361835 0 -1 0
537 2 2.1864055661318784 22.376739731147623 6.563764165043185 0 0 0
582 2 2.6466936366549723 21.592696816640455 11.024578808583826 0 0 0
836 2 5.378454553951171 21.02552108710728 5.452238960752258 0 -1 0
660 2 5.45178005002375 20.63012645231761 7.937898849714005 1 0 0
654 2 3.620095836204162 23.48140138947528 8.102139491758297 1 0 1
893 2 6.394732944786376 23.91361693426314 10.686761535970478 0 0 0
965 2 5.970100733469197 22.77036502021881 8.554841144954704 0 0 0
28 1 -1.2474088809045698 14.471641777176139 7.503789724733201 1 0 -2
905 2 9.771335254606424 20.36955831341748 5.056438165676289 0 -1 0
920 2 9.555422474020968 20.030942356411302 8.761988077039604 0 0 0
854 2 7.47760502153033 23.64888593948313 7.053779913295928 0 0 0
704 2 10.504327725096497 21.49183391437345 7.1232260150400535 0 0 0
948 2 7.02051493998729 22.66591653030524 5.066831413230626 0 0 0
931 2 -1.4306665920528712 17.511353969963025 6.877432647734976 0 -1 0
139 1 6.359175139149388 12.466836762872166 5.1070693585406985 3 -3 0
331 1 3.160163272906664 15.251945514860362 5.047814068414347 1 -3 0
363 1 0.1552745948339036 11.428523508934632 7.318276165997753 2 0 -1
202 1 7.363882068053757 23.080973621748605 11.417873909570941 -2 0 -2
785 2 0.36498687938036034 13.070000307485774 14.39797794947592 0 0 0
998 2 0.15939397249834064 13.357140740417782 12.074670577866234 0 0 0
688 2 1.3532794581568548 15.118649561462535 15.089569581116132 0 0 0
601 2 1.6797600649130424 15.284521996644346 17.379038635262006 0 0 -1
710 2 1.815108300793875 11.595216960766214 15.313524472349487 0 0 0
848 2 1.8910405096937315 15.052823897712157 11.476936984905432 0 -1 0
149 1 10.957099533625756 18.73411066769369 15.29176399903742 -2 0 0
603 2 3.757387331347503 12.837311196064963 15.657612406985697 0 0 0
674 2 4.600508742999207 14.28153914008283 14.044453947798397 0 0 0
919 2 6.759967851958024 15.041216078178733 15.255100992876256 0 0 0
475 2 5.071245446766856 13.19112940384293 11.829731328908034 0 0 0
570 2 3.7398550685894634 13.969827815142374 17.60829862180796 0 0 0
364 1 7.129521320419357 13.767612866046438 15.96351573969274 -3 -2 8
999 2 10.637742844375738 13.911453781696908 15.288595990625259 0 0 0
986 2 8.389344482180555 13.356913493553837 12.889359663501407 0 0 0
900 2 9.699046406465017 11.912269678599527 16.037388660486386 0 0 0
545 2 8.966342201866416 15.232096488073141 14.298887356253399 0 0 0
594 2 7.841412566896935 11.925590827713393 14.597115915455833 0 0 0
369 1 11.223311205449578 14.554820039814457 16.535202069077222 -1 3 -2
709 2 10.183815806511813 12.866622448299875 11.601171263785574 0 0 -1
430 2 -0.5867971959215329 16.33910890076512 14.655495778904621 0 -1 0
677 2 1.0823479429568743 18.267243067155782 12.290028642423959 0 0 0
441 2 -0.7131971097581431 18.355327250479306 13.766272631299564 0 -1 0
651 2 1.4697387786350014 19.913125794211467 16.550257280384116 1 0 0
768 2 2.862333977365437 15.75885247099714 13.544704693416412 0 0 0
613 2 3.1731487916145262 17.98983105197322 13.09499639649391 0 0 0
857 2 6.151460890637192 17.179184928786945 16.240194242184728 0 0 0
375 1 6.410645498941286 18.19223712002153 15.233778173066083 -2 -2 3
711 2 3.0984037883494215 19.755332471931176 14.78087495545419 0 -1 0
59 1 4.456378966471383 19.67623503595263 15.433379248086643 1 -2 2
359 1 4.746075755211689 17.291737325980336 16.710664732410713 0 1 -1
116 1 5.40249135995714 19.870097653244564 11.910715135925203 -3 3 -2
351 1 7.182041952561557 17.13291705276057 17.284882647197087 -1 -2 3
209 1 9.576391327346217 22.473426970333293 13.067170792535896 -2 0 3
228 1 8.750445644156565 18.634693335801238 16.175986087929985 0 1 -1
104 1 9.515853129718868 16.359189961801697 15.14485852383226 5 -1 -1
813 2 9.147100812863505 16.597315301848568 12.332575581742859 0 0 0
306 1 8.739753360402187 18.061593934890034 12.78197989032788 -1 0 0
457 2 10.311510385200327 18.307861115728215 16.483808443646396 0 -1 -1
326 1 8.75712169693165 20.425507686012217 14.879834800449055 -1 0 1
85 1 10.83956088133202 16.919492843171867 17.060554546083438 1 -2 1
128 1 10.990055202510815 19.15615256530979 17.315315794475495 1 -2 0
544 2 11.335897314238204 16.682786448459176 11.522800117538411 0 0 0
990 2 -0.5112394834807337 20.169950297579142 15.229461489744894 0 0 -1
165 1 -0.0550155191695223 21.06390707988598 12.199439694245914 2 -1 -3
555 2 1.6315114521513756 23.199070879056258 14.012066857302438 1 0 0
428 2 -0.5466029646805678 22.2758429013602 13.995013562607083 0 0 0
866 2 2.0144540823007957 22.153447356745296 17.046895017893007 0 -1 0
301 1 2.0554339767496814 22.89636564074653 15.573284283821108 0 2 -1
368 1 10.175737799124814 20.464048744244614 11.809666973012067 0 -1 0
173 1 4.892343152922838 14.938056677125 17.42633231244416 0 -2 -1
484 2 3.3068359363123996 21.710929407590825 13.432100687531534 0 0 0
349 1 4.698484300983596 22.249960254723142 13.717346990945371 -1 1 -1
71 1 6.599414813545421 20.270013117051683 14.66696115675799 0 -2 0
264 1 7.43455384592801 22.135800832502845 13.76621296953981 -1 -3 1
307 1 9.784695655657432 22.779593355390467 12.617390538695744 1 1 -3
39 1 11.114287035192453 20.88971649915753 14.140034732202878 6 -2 -5
284 1 7.216335824245796 21.891888025639687 16.176286371978108 1 1 -3
755 2 5.720559694799647 11.446405719717955 15.582936428113198 0 0 0
885 2 11.144774576811303 21.682930290702423 15.437377819548987 0 0 -1
274 1 10.12358384152188 20.950601901480916 16.2457455329358 0 -2 2
399 1 8.378461967274465 14.880484560440516 17.36223393514215 -1 3 -2
871 2 7.501279174055012 21.31126202211574 14.929647399632477 0 0 0
18 1 8.372522434999084 23.680041137780684 14.483172355478226 0 3 -1
119 1 10.66214994605888 23.061308621536426 15.413866052217868 -4 0 3
16 1 3.3255644362239503 22.117560830747287 17.767128855788997 -1 2 -1
138 1 6.037763369924951 21.942502766907154 17.343151974598314 1 -2 0
110 1 5.410607682680031 22.196290968342495 17.48927016880362 -1 2 1
179 1 4.527343683203737 24.013202555435683 13.212617030079212 -3 0 1
815 2 0.009916529389891071 14.15449883842449 18.555012696192286 1 0 -1