 vasp.6.5.0 16Dec24 (build Jan 20 2025 08:32:48) complex                         
 executed on        HPECrayEX_GCC date 2025.07.28  23:45:50
 running  128 mpi-ranks, with    1 threads/rank, on    1 nodes
 distrk:  each k-point on  128 cores,    1 groups
 distr:  one band on NCORE=  16 cores,    8 groups


--------------------------------------------------------------------------------------------------------


 INCAR:
   SYSTEM = a-Si SPC
   NCORE = 16
   ISTART = 1
   ICHARG = 1
   ISPIN = 1
   ISYM = 1
   EDIFF = 1E-6
   NELM = 150
   EDIFFG = -0.01
   NSW = 0
   ISIF = 2
   IBRION = -1
   PREC = Accurate
   ENCUT = 1200
   KSPACING = 0.23
   KGAMMA = .TRUE.
   METAGGA = SCAN
   LASPH = .TRUE.
   LDIAG = .FALSE.
   LMIXTAU = .TRUE.
   ADDGRID = .TRUE.
   ALGO = Normal
   ISMEAR = 0
   SIGMA = 0.1
   LORBIT = 11
   NEDOS = 2000
   LWAVE = .FALSE.
   LCHARG = .FALSE.

 POTCAR:    PAW_PBE H 15Jun2001                   
 POTCAR:    PAW_PBE Si 05Jan2001                  
 POTCAR:    PAW_PBE H 15Jun2001                   
   SHA256 =  030f79b5d3ab3cf0e668861823c8fb652ff669f3e15e46930bd03bfd63a607b6 H/POTCAR              
   COPYR  = (c) Copyright 15Jun2001 Georg Kresse                                                    
   COPYR  = This file is part of the software VASP. Any use, copying, and all other rights are regul
   COPYR  = If you do not have a valid VASP license, you may not use, copy or distribute this file. 
   VRHFIN =H: ultrasoft test                                                                        
   LEXCH  = PE                                                                                      
   EATOM  =    12.4884 eV,    0.9179 Ry                                                             
                                                                                                    
   TITEL  = PAW_PBE H 15Jun2001                                                                     
   LULTRA =        F    use ultrasoft PP ?                                                          
   IUNSCR =        0    unscreen: 0-lin 1-nonlin 2-no                                               
   RPACOR =    0.000    partial core radius                                                         
   POMASS =    1.000; ZVAL   =    1.000    mass and valenz                                          
   RCORE  =    1.100    outmost cutoff radius                                                       
   RWIGS  =    0.700; RWIGS  =    0.370    wigner-seitz radius (au A)                               
   ENMAX  =  250.000; ENMIN  =  200.000 eV                                                          
   RCLOC  =    0.701    cutoff for local pot                                                        
   LCOR   =        T    correct aug charges                                                         
   LPAW   =        T    paw PP                                                                      
   EAUG   =  400.000                                                                                
   RMAX   =    1.123    core radius for proj-oper                                                   
   RAUG   =    1.200    factor for augmentation sphere                                              
   RDEP   =    1.112    radius for radial grids                                                     
   RDEPT  =    0.926    core radius for aug-charge                                                  
                                                                                                    
   Atomic configuration                                                                             
    2 entries                                                                                       
     n  l   j            E        occ.                                                              
     1  0  0.50        -6.4927   1.0000                                                             
     2  1  0.50        -3.4015   0.0000                                                             
   Description                                                                                      
     l       E           TYP  RCUT    TYP  RCUT                                                     
     0     -6.4927494     23  1.100                                                                 
     0      6.8029130     23  1.100                                                                 
     1     -4.0817478     23  1.100                                                                 
  local pseudopotential read in
  atomic valenz-charges read in
  non local Contribution for L=           0  read in
    real space projection operators read in
  non local Contribution for L=           0  read in
    real space projection operators read in
  non local Contribution for L=           1  read in
    real space projection operators read in
    PAW grid and wavefunctions read in

   number of l-projection  operators is LMAX  =           3
   number of lm-projection operators is LMMAX =           5

 POTCAR:    PAW_PBE Si 05Jan2001                  
   SHA256 =  79d9987ad8750f624c4d6acb2a16d13abf6a777132adc04dc6c8399be72b42bb Si/POTCAR             
   COPYR  = (c) Copyright 05Jan2001 Georg Kresse                                                    
   COPYR  = This file is part of the software VASP. Any use, copying, and all other rights are regul
   COPYR  = If you do not have a valid VASP license, you may not use, copy or distribute this file. 
   VRHFIN =Si: s2p2                                                                                 
   LEXCH  = PE                                                                                      
   EATOM  =   103.0669 eV,    7.5752 Ry                                                             
                                                                                                    
   TITEL  = PAW_PBE Si 05Jan2001                                                                    
   LULTRA =        F    use ultrasoft PP ?                                                          
   IUNSCR =        1    unscreen: 0-lin 1-nonlin 2-no                                               
   RPACOR =    1.500    partial core radius                                                         
   POMASS =   28.085; ZVAL   =    4.000    mass and valenz                                          
   RCORE  =    1.900    outmost cutoff radius                                                       
   RWIGS  =    2.480; RWIGS  =    1.312    wigner-seitz radius (au A)                               
   ENMAX  =  245.345; ENMIN  =  184.009 eV                                                          
   ICORE  =        2    local potential                                                             
   LCOR   =        T    correct aug charges                                                         
   LPAW   =        T    paw PP                                                                      
   EAUG   =  322.069                                                                                
   DEXC   =    0.000                                                                                
   RMAX   =    1.950    core radius for proj-oper                                                   
   RAUG   =    1.300    factor for augmentation sphere                                              
   RDEP   =    1.993    radius for radial grids                                                     
   RDEPT  =    1.837    core radius for aug-charge                                                  
                                                                                                    
   Atomic configuration                                                                             
    6 entries                                                                                       
     n  l   j            E        occ.                                                              
     1  0  0.50     -1785.8828   2.0000                                                             
     2  0  0.50      -139.4969   2.0000                                                             
     2  1  1.50       -95.5546   6.0000                                                             
     3  0  0.50       -10.8127   2.0000                                                             
     3  1  0.50        -4.0811   2.0000                                                             
     3  2  1.50        -4.0817   0.0000                                                             
   Description                                                                                      
     l       E           TYP  RCUT    TYP  RCUT                                                     
     0    -10.8127223     23  1.900                                                                 
     0     -7.6451159     23  1.900                                                                 
     1     -4.0811372     23  1.900                                                                 
     1      2.4879257     23  1.900                                                                 
     2     -4.0817478      7  1.900                                                                 
  local pseudopotential read in
  partial core-charges read in
  partial kinetic energy density read in
  atomic valenz-charges read in
  non local Contribution for L=           0  read in
    real space projection operators read in
  non local Contribution for L=           0  read in
    real space projection operators read in
  non local Contribution for L=           1  read in
    real space projection operators read in
  non local Contribution for L=           1  read in
    real space projection operators read in
    PAW grid and wavefunctions read in

   number of l-projection  operators is LMAX  =           4
   number of lm-projection operators is LMMAX =           8

 -----------------------------------------------------------------------------
|                                                                             |
|               ----> ADVICE to this user running VASP <----                  |
|                                                                             |
|     You have a (more or less) 'large supercell' and for larger cells it     |
|     might be more efficient to use real-space projection operators.         |
|     Therefore, try LREAL= Auto in the INCAR file.                           |
|     Mind: For very accurate calculation, you might also keep the            |
|     reciprocal projection scheme (i.e. LREAL=.FALSE.).                      |
|                                                                             |
 -----------------------------------------------------------------------------

 -----------------------------------------------------------------------------
|                                                                             |
|               ----> ADVICE to this user running VASP <----                  |
|                                                                             |
|     You enforced a specific xc type in the INCAR file but a different       |
|     type was found in the POTCAR file.                                      |
|     I HOPE YOU KNOW WHAT YOU ARE DOING!                                     |
|                                                                             |
 -----------------------------------------------------------------------------

  PAW_PBE H 15Jun2001                   :
 energy of atom  1       EATOM=  -12.4884
 kinetic energy error for atom=    0.0000 (will be added to EATOM!!)
  PAW_PBE Si 05Jan2001                  :
 energy of atom  2       EATOM= -103.0669
 kinetic energy error for atom=    0.0001 (will be added to EATOM!!)


 POSCAR:  H Si
  positions in cartesian coordinates
  No initial velocities read in


 exchange-correlation table for SCAN
   RHO(1)=    0.500       N(1)  =     2000
   RHO(2)=  100.500       N(2)  =     4000



--------------------------------------------------------------------------------------------------------


 ion  position               nearest neighbor table
   1  0.144  0.265  0.323-  28 1.48
   2  0.096  0.162  0.477-  66 1.47
   3  0.908  0.221  0.494-  95 1.48
   4  0.184  0.993  0.493- 104 1.60  69 1.78
   5  0.131  0.110  0.631-  26 0.75
   6  0.976  0.148  0.419-  66 1.47
   7  0.926  0.060  0.563-  41 1.50
   8  0.000  0.991  0.634-  10 0.75
   9  0.847  0.192  0.428-  48 1.49
  10  0.025  0.960  0.618-   8 0.75
  11  0.059  0.170  0.687- 103 1.48
  12  0.069  0.023  0.437-  66 1.47
  13  0.209  0.957  0.628-  61 1.53
  14  0.136  0.142  0.395-  66 1.47
  15  0.192  0.908  0.435- 113 1.49
  16  0.247  0.837  0.543-  61 1.58
  17  0.198  0.756  0.679-  63 1.48
  18  0.760  0.613  0.613- 112 1.49
  19  0.512  0.714  0.471-  91 1.49
  20  0.336  0.967  0.491-  69 1.50
  21  0.047  0.028  0.359-  22 0.74
  22  0.005  0.035  0.346-  21 0.74
  23  0.936  0.976  0.427-  93 1.48
  24  0.017  0.168  0.558- 119 1.49
  25  0.091  0.051  0.554- 104 1.47
  26  0.161  0.069  0.630-   5 0.75
  27  0.975  0.381  0.556-  62 2.31  95 2.32  94 2.32 119 2.35
  28  0.189  0.297  0.366-   1 1.48  84 2.27  78 2.29
  29  0.316  0.733  0.444- 113 2.32  91 2.32 110 2.34  90 2.35
  30  0.397  0.515  0.446-  68 2.29  33 2.29  90 2.30  60 2.32
  31  0.579  0.681  0.587-  88 2.38  35 2.40  44 2.44 107 2.52
  32  0.582  0.409  0.426- 105 2.33  52 2.39  33 2.39  60 2.40
  33  0.531  0.508  0.487-  88 2.28  30 2.29 117 2.36  32 2.39
  34  0.821  0.888  0.610-  65 2.34  41 2.40 107 2.41
  35  0.578  0.530  0.620-  96 2.32 117 2.32  31 2.40
  36  0.977  0.798  0.346-  98 2.31  80 2.33
  37  0.665  0.869  0.517-  55 2.30 107 2.34  43 2.35 108 2.35
  38  0.736  0.342  0.514-  49 2.30  95 2.31 105 2.32  67 2.32
  39  0.501  0.686  0.355-  58 2.27  90 2.29  74 2.29
  40  0.467  0.973  0.563-  71 2.28 120 2.30  43 2.32  64 2.35
  41  0.828  0.033  0.570-   7 1.50 108 2.38  34 2.40  53 2.41
  42  0.127  0.611  0.553-  62 2.35  81 2.37  83 2.49 110 2.51  77 2.62  51 3.06  63 3.08
  43  0.519  0.917  0.493-  40 2.32  37 2.35  73 2.36  91 2.37
  44  0.423  0.728  0.569-  71 2.34  91 2.39  31 2.44  83 2.47
  45  0.437  0.320  0.560- 117 2.30  54 2.37  56 2.39 114 2.40 120 3.03  70 3.05
  46  0.859  0.244  0.661- 103 2.27  57 2.30  53 2.34
  47  0.807  0.391  0.368- 115 2.31  52 2.38 106 2.39  99 3.04
  48  0.753  0.185  0.408-   9 1.49 115 2.34 105 2.35  86 2.36
  49  0.683  0.282  0.583-  38 2.30  96 2.34  53 2.35  56 2.36  97 3.12
  50  0.545  0.185  0.487-  73 2.31 105 2.32 114 2.32  56 2.34
  51  0.069  0.732  0.472-  76 2.34 110 2.37  98 2.39  92 2.46  42 3.06 109 3.10
  52  0.696  0.503  0.390-  99 2.35  74 2.36  47 2.38  32 2.39
  53  0.762  0.157  0.614-  46 2.34  49 2.35  97 2.37  41 2.41
  54  0.302  0.346  0.603-  85 2.36  70 2.36  45 2.37
  55  0.715  0.734  0.484-  37 2.30  88 2.31 118 2.36  79 2.40
  56  0.547  0.199  0.568-  50 2.34  49 2.36 120 2.39  45 2.39  97 2.45
  57  0.824  0.398  0.664-  96 2.29  46 2.30  94 2.33
  58  0.456  0.832  0.338-  89 2.22  39 2.27 100 2.29
  59  0.017  0.526  0.440- 109 2.35  62 2.35 106 2.35  92 2.35  78 2.99  99 3.07
  60  0.423  0.369  0.416-  30 2.32  84 2.35  32 2.40 114 2.41
  61  0.224  0.883  0.591-  13 1.53  16 1.58  63 2.33  71 2.34 104 2.39
  62  0.065  0.484  0.515-  27 2.31 102 2.33  42 2.35  59 2.35  68 3.12
  63  0.183  0.748  0.629-  17 1.48  81 2.31  61 2.33  83 2.39  42 3.08
  64  0.577  0.948  0.621-  97 2.33  40 2.35 107 2.35 101 2.36  72 2.95  71 3.12
  65  0.931  0.800  0.571-  79 2.32  76 2.33  34 2.34  81 2.37
  66  0.070  0.124  0.432-  14 1.47  12 1.47   2 1.47   6 1.47  78 3.10
  67  0.739  0.501  0.519- 112 2.30  38 2.32  99 2.34  88 2.36
  68  0.275  0.499  0.494-  30 2.29 102 2.33 110 2.36  70 2.37  62 3.12
  69  0.284  0.043  0.468-  20 1.50   4 1.78 116 2.34  87 2.37
  70  0.325  0.495  0.572-  83 2.32  54 2.36 117 2.36  68 2.37  45 3.05
  71  0.382  0.868  0.603-  40 2.28  61 2.34  44 2.34 101 2.36  64 3.12
  72  0.449  0.091  0.655- 120 2.41 101 2.45  97 2.47  64 2.95
  73  0.552  0.048  0.448-  82 2.30  50 2.31  86 2.33  43 2.36
  74  0.653  0.648  0.361-  39 2.29 118 2.33  52 2.36
  75  0.262  0.538  0.355- 109 2.31  84 2.32  90 2.32
  76  0.017  0.862  0.511- 104 2.31  93 2.33  65 2.33  51 2.34
  77  0.062  0.551  0.632-  81 2.32  94 2.37  42 2.62
  78  0.085  0.335  0.422-  28 2.29 102 2.35 106 2.49  59 2.99  66 3.10
  79  0.851  0.695  0.526-  65 2.32 112 2.33  92 2.33  55 2.40
  80  0.882  0.775  0.409- 118 2.31  36 2.33  92 2.35  93 2.39
  81  0.040  0.700  0.606-  63 2.31  77 2.32  42 2.37  65 2.37
  82  0.493  0.082  0.376-  87 2.30  73 2.30  89 2.31
  83  0.280  0.644  0.588-  70 2.32  63 2.39  44 2.47  42 2.49
  84  0.315  0.387  0.357-  28 2.27  75 2.32  60 2.35
  85  0.203  0.276  0.549- 119 2.34 116 2.35  54 2.36 102 2.36
  86  0.708  0.036  0.432- 111 2.32  73 2.33 108 2.33  48 2.36
  87  0.344  0.042  0.392- 100 2.28  82 2.30  69 2.37
  88  0.628  0.618  0.516-  33 2.28  55 2.31  67 2.36  31 2.38
  89  0.556  0.944  0.351-  58 2.22 111 2.24  82 2.31
  90  0.374  0.627  0.391-  39 2.29  30 2.30  75 2.32  29 2.35
  91  0.439  0.775  0.490-  19 1.49  29 2.32  43 2.37  44 2.39
  92  0.923  0.652  0.458-  79 2.33  80 2.35  59 2.35  51 2.46  99 2.49
  93  0.903  0.904  0.459-  23 1.48  76 2.33 108 2.37  80 2.39
  94  0.922  0.476  0.614- 112 2.32  27 2.32  57 2.33  77 2.37
  95  0.889  0.321  0.496-   3 1.48  38 2.31  27 2.32 106 2.38
  96  0.683  0.412  0.630-  57 2.29  35 2.32  49 2.34
  97  0.611  0.104  0.630-  64 2.33  53 2.37  56 2.45  72 2.47  49 3.12
  98  0.096  0.743  0.390-  36 2.31 113 2.32 109 2.37  51 2.39
  99  0.807  0.528  0.448-  67 2.34  52 2.35  92 2.49 106 2.66  47 3.04  59 3.07
 100  0.321  0.907  0.354- 113 2.27  87 2.28  58 2.29
 101  0.450  0.926  0.671-  71 2.36  64 2.36  72 2.45
 102  0.171  0.378  0.488-  68 2.33  62 2.33  78 2.35  85 2.36
 103  0.015  0.240  0.657-  11 1.48  46 2.27 119 2.31
 104  0.127  0.963  0.537-  25 1.47   4 1.60  76 2.31  61 2.39
 105  0.655  0.277  0.453-  38 2.32  50 2.32  32 2.33  48 2.35
 106  0.925  0.396  0.425-  59 2.35  95 2.38  47 2.39  78 2.49  99 2.66
 107  0.670  0.827  0.595-  37 2.34  64 2.35  34 2.41  31 2.52
 108  0.779  0.976  0.497-  86 2.33  37 2.35  93 2.37  41 2.38
 109  0.144  0.589  0.402-  75 2.31  59 2.35  98 2.37 110 2.44  51 3.10
 110  0.203  0.639  0.476-  29 2.34  68 2.36  51 2.37 109 2.44  42 2.51
 111  0.693  0.912  0.382-  89 2.24  86 2.32 118 2.32
 112  0.821  0.574  0.576-  18 1.49  67 2.30  94 2.32  79 2.33
 113  0.225  0.834  0.403-  15 1.49 100 2.27  29 2.32  98 2.32
 114  0.410  0.270  0.482-  50 2.32 116 2.35  45 2.40  60 2.41
 115  0.768  0.252  0.335-  47 2.31  48 2.34
 116  0.305  0.169  0.517-  69 2.34  85 2.35 114 2.35 120 2.37
 117  0.484  0.470  0.562-  45 2.30  35 2.32  33 2.36  70 2.36
 118  0.724  0.762  0.404-  80 2.31 111 2.32  74 2.33  55 2.36
 119  0.057  0.251  0.580-  24 1.49 103 2.31  85 2.34  27 2.35
 120  0.406  0.116  0.576-  40 2.30 116 2.37  56 2.39  72 2.41  45 3.03

  LATTYP: Found a simple tetragonal cell.
 ALAT       =    14.5687987818
 C/A-ratio  =     1.9889421588
  
  Lattice vectors:
  
 A1 = (  14.5687987818,   0.0000000000,   0.0000000000)
 A2 = (   0.0000000000,  14.5687987818,   0.0000000000)
 A3 = (   0.0000000000,   0.0000000000,  28.9764981000)


Analysis of symmetry for initial positions (statically):
=====================================================================
 Subroutine PRICEL returns:
 Original cell was already a primitive cell.
 

 Routine SETGRP: Setting up the symmetry group for a 
 simple tetragonal supercell.


 Subroutine GETGRP returns: Found  1 space group operations
 (whereof  1 operations were pure point group operations)
 out of a pool of 16 trial point group operations.


The static configuration has the point symmetry C_1 .


Analysis of symmetry for dynamics (positions and initial velocities):
=====================================================================
 Subroutine PRICEL returns:
 Original cell was already a primitive cell.
 

 Routine SETGRP: Setting up the symmetry group for a 
 simple tetragonal supercell.


 Subroutine GETGRP returns: Found  1 space group operations
 (whereof  1 operations were pure point group operations)
 out of a pool of 16 trial point group operations.


The dynamic configuration has the point symmetry C_1 .


 Subroutine INISYM returns: Found  1 space group operations
 (whereof  1 operations are pure point group operations),
 and found     1 'primitive' translations


----------------------------------------------------------------------------------------

                                     Primitive cell                                     

  volume of cell :    6150.2588

  direct lattice vectors                    reciprocal lattice vectors
    14.568798782  0.000000000  0.000000000     0.068639839  0.000000000  0.000000000
     0.000000000 14.568798782  0.000000000     0.000000000  0.068639839  0.000000000
     0.000000000  0.000000000 28.976498100     0.000000000  0.000000000  0.034510726

  length of vectors
    14.568798782 14.568798782 28.976498100     0.068639839  0.068639839  0.034510726

  position of ions in fractional coordinates (direct lattice)
     0.143584111  0.264668091  0.323208568
     0.096445531  0.161808086  0.477403650
     0.908183887  0.221435921  0.494273848
     0.184153102  0.992762535  0.492818339
     0.130603563  0.109824565  0.631201629
     0.975749604  0.148496442  0.418684650
     0.926196773  0.060035166  0.562814072
     0.000198404  0.990927430  0.634430780
     0.846896546  0.192210433  0.427523454
     0.024607986  0.960430516  0.617823787
     0.058794660  0.170058419  0.686509019
     0.068720690  0.023066342  0.437377749
     0.208613707  0.957295013  0.627732940
     0.135844822  0.142383580  0.395199564
     0.191921305  0.907899541  0.435007754
     0.247478824  0.837483692  0.542768856
     0.198392450  0.756412612  0.679059491
     0.760160175  0.612807252  0.612545740
     0.512322837  0.714099480  0.470855893
     0.335891582  0.966700757  0.490986868
     0.046948365  0.027918231  0.359449371
     0.004769010  0.034869097  0.345654403
     0.935823946  0.975559919  0.426714536
     0.016660172  0.167910941  0.558345857
     0.091404337  0.051380646  0.554015775
     0.161237053  0.068907189  0.629837291
     0.975451261  0.381090825  0.555963177
     0.188667078  0.297419952  0.365992395
     0.315572638  0.733348180  0.444406269
     0.397229354  0.514585706  0.445890123
     0.579178443  0.680907986  0.587259501
     0.582042947  0.408997433  0.426218412
     0.531288006  0.508089823  0.486795370
     0.821362372  0.888134405  0.609764086
     0.578047756  0.529610202  0.619943360
     0.977210650  0.797688622  0.345679075
     0.665272672  0.868868892  0.517105620
     0.735557610  0.342247527  0.514141235
     0.500870483  0.686349983  0.355433506
     0.466699085  0.972609573  0.563101903
     0.828278048  0.032782432  0.570020128
     0.127326666  0.611123955  0.553066723
     0.519408495  0.917082044  0.492864556
     0.422535004  0.728160771  0.568575296
     0.437157376  0.319562810  0.559719214
     0.859186662  0.243930518  0.661284067
     0.807220877  0.391258491  0.368312075
     0.752560158  0.185162571  0.408112627
     0.682566743  0.282226188  0.582746979
     0.544621148  0.184639496  0.487453132
     0.068749218  0.731682596  0.471576379
     0.695601778  0.502746756  0.389924367
     0.762301774  0.156730876  0.614186326
     0.301719220  0.346253234  0.602776792
     0.714919629  0.734305070  0.484116485
     0.546926368  0.198637427  0.567933782
     0.824111516  0.397808655  0.663957713
     0.456021051  0.831673229  0.337765614
     0.017081289  0.525517533  0.440140468
     0.423193423  0.369488059  0.415790689
     0.223829224  0.883429756  0.590890164
     0.064744676  0.483669455  0.514798129
     0.183450308  0.748037724  0.628762233
     0.576792065  0.948333401  0.620949979
     0.930709107  0.799549815  0.571030580
     0.069837548  0.123522003  0.432331876
     0.739312496  0.500888405  0.519351931
     0.274620896  0.498845774  0.494487403
     0.283962702  0.043324592  0.468113340
     0.325207546  0.494673339  0.572198691
     0.381644546  0.867847525  0.603127226
     0.449473838  0.091140174  0.654778241
     0.551632642  0.047706667  0.447522368
     0.653071173  0.647822027  0.360513306
     0.262287529  0.537505796  0.355428942
     0.017185220  0.861734761  0.510954784
     0.062016628  0.550866627  0.631668067
     0.084831340  0.334857252  0.422383907
     0.851018499  0.694940732  0.526165271
     0.882057864  0.775056302  0.409203322
     0.039605155  0.699624352  0.605503767
     0.493046396  0.081513115  0.375660398
     0.279991960  0.644323904  0.587514192
     0.314534821  0.387252628  0.356712717
     0.203018390  0.276291062  0.548866260
     0.707695066  0.036389607  0.431667772
     0.343618905  0.041902124  0.392079059
     0.627525847  0.617547926  0.515513955
     0.555641538  0.944336954  0.350944921
     0.374121515  0.626669454  0.390995937
     0.439405999  0.775379634  0.489917936
     0.922785357  0.652016784  0.457620315
     0.902743978  0.904016179  0.459046479
     0.921937308  0.476348885  0.614238196
     0.888546336  0.321349977  0.496171253
     0.683176299  0.412177869  0.630100621
     0.611363610  0.103777978  0.629979133
     0.096475364  0.743051017  0.390400605
     0.806735310  0.527905789  0.447516639
     0.321384585  0.906763518  0.353671778
     0.450496715  0.926107068  0.670779958
     0.171346662  0.377823129  0.487535967
     0.014812457  0.240219740  0.657019082
     0.127312948  0.962739960  0.537380408
     0.655158134  0.277140611  0.453454978
     0.925217021  0.395971670  0.425351617
     0.670154147  0.827290571  0.594957506
     0.778503102  0.976315036  0.497217114
     0.143648892  0.589053681  0.401602853
     0.202548786  0.639084834  0.476338512
     0.692612479  0.912379652  0.382040274
     0.821417609  0.574027792  0.576397657
     0.224566947  0.834335360  0.403024135
     0.410374021  0.270030157  0.481948640
     0.768437578  0.252103498  0.335241084
     0.305293955  0.168984831  0.516996097
     0.484430635  0.470289241  0.562499420
     0.724095595  0.762364652  0.403931477
     0.056930800  0.250962916  0.580295729
     0.406047520  0.116366352  0.575692610

  ion indices of the primitive-cell ions
   primitive index   ion index
                 1           1
                 2           2
                 3           3
                 4           4
                 5           5
                 6           6
                 7           7
                 8           8
                 9           9
                10          10
                11          11
                12          12
                13          13
                14          14
                15          15
                16          16
                17          17
                18          18
                19          19
                20          20
                21          21
                22          22
                23          23
                24          24
                25          25
                26          26
                27          27
                28          28
                29          29
                30          30
                31          31
                32          32
                33          33
                34          34
                35          35
                36          36
                37          37
                38          38
                39          39
                40          40
                41          41
                42          42
                43          43
                44          44
                45          45
                46          46
                47          47
                48          48
                49          49
                50          50
                51          51
                52          52
                53          53
                54          54
                55          55
                56          56
                57          57
                58          58
                59          59
                60          60
                61          61
                62          62
                63          63
                64          64
                65          65
                66          66
                67          67
                68          68
                69          69
                70          70
                71          71
                72          72
                73          73
                74          74
                75          75
                76          76
                77          77
                78          78
                79          79
                80          80
                81          81
                82          82
                83          83
                84          84
                85          85
                86          86
                87          87
                88          88
                89          89
                90          90
                91          91
                92          92
                93          93
                94          94
                95          95
                96          96
                97          97
                98          98
                99          99
               100         100
               101         101
               102         102
               103         103
               104         104
               105         105
               106         106
               107         107
               108         108
               109         109
               110         110
               111         111
               112         112
               113         113
               114         114
               115         115
               116         116
               117         117
               118         118
               119         119
               120         120

----------------------------------------------------------------------------------------


 -----------------------------------------------------------------------------
|                                                                             |
|           W    W    AA    RRRRR   N    N  II  N    N   GGGG   !!!           |
|           W    W   A  A   R    R  NN   N  II  NN   N  G    G  !!!           |
|           W    W  A    A  R    R  N N  N  II  N N  N  G       !!!           |
|           W WW W  AAAAAA  RRRRR   N  N N  II  N  N N  G  GGG   !            |
|           WW  WW  A    A  R   R   N   NN  II  N   NN  G    G                |
|           W    W  A    A  R    R  N    N  II  N    N   GGGG   !!!           |
|                                                                             |
|     The requested file  could not be found or opened for reading            |
|     k-point information. Automatic k-point generation is used as a          |
|     fallback, which may lead to unwanted results.                           |
|                                                                             |
 -----------------------------------------------------------------------------



Automatic generation of k-mesh.
 Grid dimensions derived from KSPACING:
 generate k-points for:    2    2    1

 Generating k-lattice:

  Cartesian coordinates                     Fractional coordinates (reciprocal lattice)
     0.034319919  0.000000000  0.000000000     0.500000000  0.000000000  0.000000000
     0.000000000  0.034319919  0.000000000     0.000000000  0.500000000  0.000000000
     0.000000000  0.000000000  0.034510726     0.000000000  0.000000000  1.000000000

  Length of vectors
     0.034319919  0.034319919  0.034510726

  Shift w.r.t. Gamma in fractional coordinates (k-lattice)
     0.000000000  0.000000000  0.000000000

 
 Subroutine IBZKPT returns following result:
 ===========================================
 
 Found      4 irreducible k-points:
 
 Following reciprocal coordinates:
            Coordinates               Weight
  0.000000  0.000000  0.000000      1.000000
  0.500000  0.000000  0.000000      1.000000
  0.000000  0.500000  0.000000      1.000000
  0.500000  0.500000  0.000000      1.000000
 
 Following cartesian coordinates:
            Coordinates               Weight
  0.000000  0.000000  0.000000      1.000000
  0.034320  0.000000  0.000000      1.000000
  0.000000  0.034320  0.000000      1.000000
  0.034320  0.034320  0.000000      1.000000
 


--------------------------------------------------------------------------------------------------------




 Dimension of arrays:
   k-points           NKPTS =      4   k-points in BZ     NKDIM =      4   number of bands    NBANDS=    264
   number of dos      NEDOS =   2000   number of ions     NIONS =    120
   non local maximal  LDIM  =      4   non local SUM 2l+1 LMDIM =      8
   total plane-waves  NPLWV = ******
   max r-space proj   IRMAX =      1   max aug-charges    IRDMAX= 412586
   dimension x,y,z NGX =   168 NGY =  168 NGZ =  336
   dimension x,y,z NGXF=   336 NGYF=  336 NGZF=  672
   support grid    NGXF=   672 NGYF=  672 NGZF= 1344
   ions per type =              26  94
   NGX,Y,Z   is equivalent  to a cutoff of  19.17, 19.17, 19.28 a.u.
   NGXF,Y,Z  is equivalent  to a cutoff of  38.34, 38.34, 38.55 a.u.

 SYSTEM =  a-Si SPC                                
 POSCAR =   H Si                                   

 Startparameter for this run:
   NWRITE =      2    write-flag & timer
   PREC   = accura    normal or accurate (medium, high low for compatibility)
   ISTART =      1    job   : 0-new  1-cont  2-samecut
   ICHARG =      1    charge: 1-file 2-atom 10-const
   ISPIN  =      1    spin polarized calculation?
   LNONCOLLINEAR =      F non collinear calculations
   LSORBIT =      F    spin-orbit coupling
   INIWAV =      1    electr: 0-lowe 1-rand  2-diag
   LASPH  =      T    aspherical Exc in radial PAW
 Electronic Relaxation 1
   ENCUT  = 1200.0 eV  88.20 Ry    9.39 a.u.  41.15 41.15 81.85*2*pi/ulx,y,z
   ENINI  = 1200.0     initial cutoff
   ENAUG  =  400.0 eV  augmentation charge cutoff
   NELM   =    150;   NELMIN=  2; NELMDL=  0     # of ELM steps 
   EDIFF  = 0.1E-05   stopping-criterion for ELM
   LREAL  =      F    real-space projection
   NLSPLINE    = F    spline interpolate recip. space projectors
   LCOMPAT=      F    compatible to vasp.4.4
   GGA_COMPAT  = T    GGA compatible to vasp.4.4-vasp.4.6
   LMAXPAW     = -100 max onsite density
   LMAXMIX     =    2 max onsite mixed and CHGCAR
   VOSKOWN=      0    Vosko Wilk Nusair interpolation
   ROPT   =    0.00000   0.00000
 Ionic relaxation
   EDIFFG = -.1E-01   stopping-criterion for IOM
   NSW    =      0    number of steps for IOM
   NBLOCK =      1;   KBLOCK =      1    inner block; outer block 
   IBRION =     -1    ionic relax: 0-MD 1-quasi-New 2-CG
   NFREE  =      0    steps in history (QN), initial steepest desc. (CG)
   ISIF   =      2    stress and relaxation
   IWAVPR =     10    prediction:  0-non 1-charg 2-wave 3-comb
   ISYM   =      1    0-nonsym 1-usesym 2-fastsym
   LCORR  =      T    Harris-Foulkes like correction to forces

   POTIM  = 0.5000    time-step for ionic-motion
   TEIN   =    0.0    initial temperature
   TEBEG  =    0.0;   TEEND  =   0.0 temperature during run
   SMASS  =  -3.00    Nose mass-parameter (am)
   estimated Nose-frequenzy (Omega)   =  0.10E-29 period in steps = 0.13E+47 mass=  -0.485E-26a.u.
   SCALEE = 1.0000    scale energy and forces
   NPACO  =    256;   APACO  = 10.0  distance and # of slots for P.C.
   PSTRESS=    0.0 pullay stress

  Mass of Ions in am
   POMASS =   1.00 28.09
  Ionic Valenz
   ZVAL   =   1.00  4.00
  Atomic Wigner-Seitz radii
   RWIGS  =  -1.00 -1.00
  virtual crystal weights 
   VCA    =   1.00  1.00
   NELECT =     402.0000    total number of electrons
   NUPDOWN=      -1.0000    fix difference up-down

 DOS related values:
   EMIN   =  10.00;   EMAX   =-10.00  energy-range for DOS
   EFERMI =   0.00;   METHOD = LEGACY      
   ISMEAR =     0;   SIGMA  =   0.10  broadening in eV -4-tet -1-fermi 0-gaus
   EFERMI_NEDOS =   21; number of points for ismear=-14 and -15

 Electronic relaxation 2 (details)
   IALGO  =     38    algorithm
   LDIAG  =      F    sub-space diagonalisation (order eigenvalues)
   LSUBROT=      F    optimize rotation matrix (better conditioning)
   TURBO    =      0    0=normal 1=particle mesh
   IRESTART =      0    0=no restart 2=restart with 2 vectors
   NREBOOT  =      0    no. of reboots
   NMIN     =      0    reboot dimension
   EREF     =   0.00    reference energy to select bands
   IMIX   =      4    mixing-type and parameters
     AMIX     =   0.40;   BMIX     =  1.00
     AMIX_MAG =   1.60;   BMIX_MAG =  1.00
     AMIN     =   0.10
     WC   =   100.;   INIMIX=   1;  MIXPRE=   1;  MAXMIX= -45

 Intra band minimization:
   WEIMIN = 0.0000     energy-eigenvalue tresh-hold
   EBREAK =  0.95E-09  absolut break condition
   DEPER  =   0.30     relativ break condition  

   TIME   =   0.40     timestep for ELM

  volume/ion in A,a.u.               =      51.25       345.87
  Fermi-wavevector in a.u.,A,eV,Ry     =   0.659456  1.246191  5.916929  0.434882
  Thomas-Fermi vector in A             =   1.731597

 Write flags
   LWAVE        =      F    write WAVECAR
   LDOWNSAMPLE  =      F    k-point downsampling of WAVECAR
   LCHARG       =      F    write CHGCAR
   LVTOT        =      F    write LOCPOT, total local potential
   LVHAR        =      F    write LOCPOT, Hartree potential only
   WRT_POTENTIAL= false  ! write potential to hdf5 file
   LELF         =      F    write electronic localiz. function (ELF)
   LORBIT       =     11    0 simple, 1 ext, 2 COOP (PROOUT), +10 PAW based schemes


 Python interface
   PLUGINS active      =      F    recompile with -DPLUGINS to activate

 Dipole corrections
   LMONO      =      F    monopole corrections only (constant potential shift)
   LDIPOL     =      F    correct potential (dipole corrections)
   IDIPOL     =      0    1-x, 2-y, 3-z, 4-all directions 
   EPSILON    =  1.0000000 bulk dielectric constant
   LVACPOTAV  =      F  vacuum potentials using an averaging scheme for the charge density
   VACPOTFLAT =  0.1000000 required flatness to determine vacuum potential

Coulomb truncation method
  LTRUNCATE          =      F  Coulomb kernel truncation to be used
  IDIMENSIONALITY    =      3  Dimensionality of cutoff (0 molecules / 2 surfaces)
  ISURFACE           =     -1  Direction of surface normal
  LCOARSEN           =      F  Coarsen the charge grid before padding, preferred


 Exchange correlation treatment:
   METAGGA = SCAN    functional components
   XC_C    = 1    coefficients multiplying the functional components
   LIBXC   =     F    Libxc                    
   VOSKOWN =     0    Vosko Wilk Nusair interpolation
   LHFCALC =     F    Hartree Fock is set to
   LHFONE  =     F    Hartree Fock one center treatment
   AEXX    =    0.0000 exact exchange contribution

 Parameters of functionals:
   SCAN:
     P1 =  0.000000E+00
     P2 =  0.000000E+00
     P3 =  0.000000E+00

 Accuracy and mixing parameters for tau-dependent meta-GGA functionals:
   LMAXTAU = 6
   LMIXTAU = T

 Van der Waals corrections
   IVDW    =     0    specifies the selected vdW correction

 Linear response parameters
   LEPSILON=     F    determine dielectric tensor
   LRPA    =     F    only Hartree local field effects (RPA)
   LNABLA  =     F    use nabla operator in PAW spheres
   LVEL    =     F    velocity operator in full k-point grid
   CSHIFT  =0.1000    complex shift for real part using Kramers Kronig
   OMEGAMAX=  -1.0    maximum frequency
   DEG_THRESHOLD= 0.2000000E-02 threshold for treating states as degnerate
   RTIME   =   -0.100 relaxation time in fs
  (WPLASMAI=    0.000 imaginary part of plasma frequency in eV, 0.658/RTIME)
   DFIELD  = 0.0000000 0.0000000 0.0000000 field for delta impulse in time

  Optional k-point grid parameters
   LKPOINTS_OPT  =     F    use optional k-point grid
   KPOINTS_OPT_MODE=     1    mode for optional k-point grid

 Orbital magnetization related:
   ORBITALMAG=     F  switch on orbital magnetization
   LCHIMAG   =     F  perturbation theory with respect to B field
   DQ        =  0.001000  dq finite difference perturbation B field
   LLRAUG    =     F  two centre corrections for induced B field
   LBONE     =     F  B-component reconstruction in AE one-centre
   LVGVCALC  =     T  calculate vGv susceptibility
   LVGVAPPL  =     F  apply vGv susceptibility instead of pGv for G=0

 Random number generation:
   RANDOM_GENERATOR = DEFAULT
   PCG_SEED         = not used


--------------------------------------------------------------------------------------------------------


 Static calculation
 charge density and potential will be updated during run
 non-spin polarized calculation
 Variant of blocked Davidson
 perform Loewdin sub-space diagonalisation
    ordering is kept fixed
    before iterative eigenvector-optimisation
 modified Broyden-mixing scheme, WC =      100.0
 initial mixing is a Kerker type mixing with AMIX =  0.4000 and BMIX =      1.0000
 Hartree-type preconditioning will be used
 using additional bands           63
 reciprocal scheme for non local part
 use partial core corrections
 calculate Harris-corrections to forces   (improved forces if not selfconsistent)
 use gradient corrections 
 use of overlap-Matrix (Vanderbilt PP)
 Gauss-broadening in eV      SIGMA  =   0.10


--------------------------------------------------------------------------------------------------------


  energy-cutoff  :     1200.00
  volume of cell :     6150.26
      direct lattice vectors                 reciprocal lattice vectors
    14.568798782  0.000000000  0.000000000     0.068639839  0.000000000  0.000000000
     0.000000000 14.568798782  0.000000000     0.000000000  0.068639839  0.000000000
     0.000000000  0.000000000 28.976498100     0.000000000  0.000000000  0.034510726

  length of vectors
    14.568798782 14.568798782 28.976498100     0.068639839  0.068639839  0.034510726



 old parameters found on file WAVECAR:
  energy-cutoff  :     1200.00
  volume of cell :     6150.26
      direct lattice vectors                 reciprocal lattice vectors
    14.568798782  0.000000000  0.000000000     0.068639839  0.000000000  0.000000000
     0.000000000 14.568798782  0.000000000     0.000000000  0.068639839  0.000000000
     0.000000000  0.000000000 28.976498100     0.000000000  0.000000000  0.034510726

  length of vectors


 k-points in units of 2pi/SCALE and weight: read from INCAR                         
   0.00000000  0.00000000  0.00000000       0.250
   0.03431992  0.00000000  0.00000000       0.250
   0.00000000  0.03431992  0.00000000       0.250
   0.03431992  0.03431992  0.00000000       0.250

 k-points in reciprocal lattice and weights: read from INCAR                         
   0.00000000  0.00000000  0.00000000       0.250
   0.50000000  0.00000000  0.00000000       0.250
   0.00000000  0.50000000  0.00000000       0.250
   0.50000000  0.50000000  0.00000000       0.250

 position of ions in fractional coordinates (direct lattice) 
   0.14358411  0.26466809  0.32320857
   0.09644553  0.16180809  0.47740365
   0.90818389  0.22143592  0.49427385
   0.18415310  0.99276254  0.49281834
   0.13060356  0.10982457  0.63120163
   0.97574960  0.14849644  0.41868465
   0.92619677  0.06003517  0.56281407
   0.00019840  0.99092743  0.63443078
   0.84689655  0.19221043  0.42752345
   0.02460799  0.96043052  0.61782379
   0.05879466  0.17005842  0.68650902
   0.06872069  0.02306634  0.43737775
   0.20861371  0.95729501  0.62773294
   0.13584482  0.14238358  0.39519956
   0.19192131  0.90789954  0.43500775
   0.24747882  0.83748369  0.54276886
   0.19839245  0.75641261  0.67905949
   0.76016017  0.61280725  0.61254574
   0.51232284  0.71409948  0.47085589
   0.33589158  0.96670076  0.49098687
   0.04694836  0.02791823  0.35944937
   0.00476901  0.03486910  0.34565440
   0.93582395  0.97555992  0.42671454
   0.01666017  0.16791094  0.55834586
   0.09140434  0.05138065  0.55401577
   0.16123705  0.06890719  0.62983729
   0.97545126  0.38109082  0.55596318
   0.18866708  0.29741995  0.36599239
   0.31557264  0.73334818  0.44440627
   0.39722935  0.51458571  0.44589012
   0.57917844  0.68090799  0.58725950
   0.58204295  0.40899743  0.42621841
   0.53128801  0.50808982  0.48679537
   0.82136237  0.88813441  0.60976409
   0.57804776  0.52961020  0.61994336
   0.97721065  0.79768862  0.34567907
   0.66527267  0.86886889  0.51710562
   0.73555761  0.34224753  0.51414124
   0.50087048  0.68634998  0.35543351
   0.46669908  0.97260957  0.56310190
   0.82827805  0.03278243  0.57002013
   0.12732667  0.61112395  0.55306672
   0.51940850  0.91708204  0.49286456
   0.42253500  0.72816077  0.56857530
   0.43715738  0.31956281  0.55971921
   0.85918666  0.24393052  0.66128407
   0.80722088  0.39125849  0.36831208
   0.75256016  0.18516257  0.40811263
   0.68256674  0.28222619  0.58274698
   0.54462115  0.18463950  0.48745313
   0.06874922  0.73168260  0.47157638
   0.69560178  0.50274676  0.38992437
   0.76230177  0.15673088  0.61418633
   0.30171922  0.34625323  0.60277679
   0.71491963  0.73430507  0.48411648
   0.54692637  0.19863743  0.56793378
   0.82411152  0.39780866  0.66395771
   0.45602105  0.83167323  0.33776561
   0.01708129  0.52551753  0.44014047
   0.42319342  0.36948806  0.41579069
   0.22382922  0.88342976  0.59089016
   0.06474468  0.48366945  0.51479813
   0.18345031  0.74803772  0.62876223
   0.57679207  0.94833340  0.62094998
   0.93070911  0.79954981  0.57103058
   0.06983755  0.12352200  0.43233188
   0.73931250  0.50088840  0.51935193
   0.27462090  0.49884577  0.49448740
   0.28396270  0.04332459  0.46811334
   0.32520755  0.49467334  0.57219869
   0.38164455  0.86784752  0.60312723
   0.44947384  0.09114017  0.65477824
   0.55163264  0.04770667  0.44752237
   0.65307117  0.64782203  0.36051331
   0.26228753  0.53750580  0.35542894
   0.01718522  0.86173476  0.51095478
   0.06201663  0.55086663  0.63166807
   0.08483134  0.33485725  0.42238391
   0.85101850  0.69494073  0.52616527
   0.88205786  0.77505630  0.40920332
   0.03960516  0.69962435  0.60550377
   0.49304640  0.08151311  0.37566040
   0.27999196  0.64432390  0.58751419
   0.31453482  0.38725263  0.35671272
   0.20301839  0.27629106  0.54886626
   0.70769507  0.03638961  0.43166777
   0.34361890  0.04190212  0.39207906
   0.62752585  0.61754793  0.51551396
   0.55564154  0.94433695  0.35094492
   0.37412151  0.62666945  0.39099594
   0.43940600  0.77537963  0.48991794
   0.92278536  0.65201678  0.45762032
   0.90274398  0.90401618  0.45904648
   0.92193731  0.47634888  0.61423820
   0.88854634  0.32134998  0.49617125
   0.68317630  0.41217787  0.63010062
   0.61136361  0.10377798  0.62997913
   0.09647536  0.74305102  0.39040061
   0.80673531  0.52790579  0.44751664
   0.32138458  0.90676352  0.35367178
   0.45049671  0.92610707  0.67077996
   0.17134666  0.37782313  0.48753597
   0.01481246  0.24021974  0.65701908
   0.12731295  0.96273996  0.53738041
   0.65515813  0.27714061  0.45345498
   0.92521702  0.39597167  0.42535162
   0.67015415  0.82729057  0.59495751
   0.77850310  0.97631504  0.49721711
   0.14364889  0.58905368  0.40160285
   0.20254879  0.63908483  0.47633851
   0.69261248  0.91237965  0.38204027
   0.82141761  0.57402779  0.57639766
   0.22456695  0.83433536  0.40302413
   0.41037402  0.27003016  0.48194864
   0.76843758  0.25210350  0.33524108
   0.30529396  0.16898483  0.51699610
   0.48443064  0.47028924  0.56249942
   0.72409559  0.76236465  0.40393148
   0.05693080  0.25096292  0.58029573
   0.40604752  0.11636635  0.57569261

 position of ions in cartesian coordinates  (Angst):
   2.09184802  3.85589616  9.36545245
   1.40509553  2.35734944 13.83348596
  13.23114831  3.22605538 14.32232522
   2.68288949 14.46335761 14.28014965
   1.90273703  1.60001199 18.29001281
  14.21549964  2.16341479 12.13201496
  13.49357442  0.87464026 16.30838090
   0.00289051 14.43662233 18.38358228
  12.33826537  2.80027512 12.38813256
   0.35850879 13.99231893 17.90236980
   0.85656757  2.47754689 19.89262729
   1.00117791  0.33604890 12.67367552
   3.03925112 13.94663842 18.18950235
   1.97909587  2.07435773 11.45149941
   2.79606288 13.22700572 12.60500137
   3.60546919 12.20113139 15.72754073
   2.89033969 11.02002314 19.67676604
  11.07462063  8.92786555 17.74943046
   7.46392833 10.40357163 13.64375488
   4.89353687 14.08366881 14.22708005
   0.68398128  0.40673509 10.41558401
   0.06947874  0.50800086 10.01585415
  13.63383077 14.21273616 12.36469293
   0.24271869  2.44626071 16.17890766
   1.33165140  0.74855430 16.05343704
   2.34903018  1.00389497 18.25047906
  14.21115315  5.55203554 16.10986594
   2.74865269  4.33305144 10.60517793
   4.59751426 10.68400207 12.87733742
   5.78715453  7.49689561 12.92033430
   8.43793420  9.92001144 17.01672381
   8.47966657  5.95860130 12.35031701
   7.74022805  7.40225840 14.10562512
  11.96626313 12.93905144 17.66882789
   8.42146145  7.71578447 17.96378759
  14.23678532 11.62136503 10.01656905
   9.69222369 12.65837606 14.98391001
  10.71619081  4.98613535 14.89801252
   7.29708128  9.99929479 10.29921832
   6.79924506 14.16975316 16.31672122
  12.06701622  0.47760065 16.51718715
   1.85499657  8.90334193 16.02593685
   7.56715785 13.36078376 14.28148887
   6.15582745 10.60842776 16.47532097
   6.36885785  4.65564628 16.21870274
  12.51731760  3.55377464 19.16169652
  11.76023853  5.70016623 10.67239415
  10.96389752  2.69759624 11.82567477
   9.94417753  4.11169654 16.88596673
   7.93447592  2.68997567 14.12468474
   1.00159353 10.65973651 13.66463206
  10.13408234  7.32441632 11.29864269
  11.10582116  2.28338059 17.79696892
   4.39568660  5.04449369 17.46636056
  10.41552022 10.69794281 14.02800040
   7.96806020  2.89390871 16.45673215
  12.00631485  5.79559425 19.23916941
   6.64367893 12.11647993  9.78726468
   0.24885386  7.65615919 12.75372944
   6.16541983  5.38299718 12.04815811
   3.26092293 12.87051035 17.12192770
   0.94325215  7.04648296 14.91704701
   2.67265063 10.89801108 18.21932764
   8.40316754 13.81607850 17.99295588
  13.55931370 11.64848037 16.54646652
   1.01744918  1.79956721 12.52746379
  10.77089499  7.29734238 15.04900025
   4.00089658  7.26758371 14.32851330
   4.13699546  0.63118726 13.56428531
   4.73788330  7.20679634 16.58031429
   5.56010260 12.64349596 17.47651493
   6.54829391  1.32780285 18.97318047
   8.03662497  0.69502883 12.96763106
   9.51446251  9.43798876 10.44641312
   3.82121423  7.83081378 10.29908606
   0.25036801 12.55444034 14.80568033
   0.90350778  8.02546505 18.30352854
   1.23589072  4.87846793 12.23920648
  12.39831727 10.12445169 15.24642697
  12.85052353 11.29163931 11.85727928
   0.57699954 10.19268641 17.54537874
   7.18309374  1.18754817 10.88532280
   4.07914652  9.38702531 17.02410386
   4.58239452  5.64180562 10.33628538
   2.95773407  4.02522889 15.90422213
  10.31026702  0.53015286 12.50822037
   5.00611468  0.61046361 11.36107810
   9.14229780  8.99693147 14.93778915
   8.09502976 13.75785506 10.16915485
   5.45050107  9.12982118 11.32969303
   6.40161759 11.29634987 14.19610615
  13.44387418  9.49910133 13.26023419
  13.15189537 13.17042981 13.30155942
  13.43151913  6.93983105 17.79847191
  12.94505278  4.68168315 14.37730538
   9.95305803  6.00493643 18.25810945
   8.90683341  1.51192048 18.25458915
   1.40553016 10.82536075 11.31244239
  11.75316440  7.69095322 12.96746503
   4.68218735 13.21045523 10.24816961
   6.56319599 13.49226752 19.43685419
   2.49631504  5.50442914 14.12708502
   0.21579970  3.49971305 19.03811217
   1.85479672 14.02596476 15.57140236
   9.54486702  4.03760580 13.13953730
  13.47930061  5.76883159 12.32520031
   9.76334092 12.05262986 17.23978504
  11.34185504 14.22373730 14.40761076
   2.09279181  8.58180455 11.63704430
   2.95089250  9.31069835 13.80262200
  10.09053184 13.29227556 11.07018928
  11.96706786  8.36289540 16.70198562
   3.27167066 12.15526398 11.67822808
   5.97865653  3.93401502 13.96518384
  11.19521245  3.67284513  9.71411262
   4.44776620  2.46190600 14.98073642
   7.05757245  6.85154932 16.29926338
  10.54920302 11.10673722 11.70451968
   0.82941337  3.65622823 16.81493810
   5.91562461  1.69531796 16.68155581



--------------------------------------------------------------------------------------------------------


 k-point     1 :   0.0000 0.0000 0.0000  plane waves:  580475
 k-point     2 :   0.5000 0.0000 0.0000  plane waves:  580522
 k-point     3 :   0.0000 0.5000 0.0000  plane waves:  580522
 k-point     4 :   0.5000 0.5000 0.0000  plane waves:  580596

 maximum and minimum number of plane-waves per node :     36344    36218

 maximum number of plane-waves:    580596
 maximum index in each direction: 
   IXMAX=   41   IYMAX=   41   IZMAX=   81
   IXMIN=  -41   IYMIN=  -41   IZMIN=  -81


 parallel 3D FFT for wavefunctions:
    minimum data exchange during FFTs selected (reduces bandwidth)
 parallel 3D FFT for charge:
    minimum data exchange during FFTs selected (reduces bandwidth)


 total amount of memory used by VASP MPI-rank0   397549. kBytes
=======================================================================

   base                                    :      30000. kBytes
   nonl-proj                               :      88271. kBytes
   fftplans                                :     114278. kBytes
   grid                                    :      88184. kBytes
   one-center                              :         24. kBytes
   wavefun                                 :      76792. kBytes

     INWAV:  cpu time     22.7530: real time     22.7683
 Broyden mixing: mesh for mixing (old mesh)
   NGX = 83   NGY = 83   NGZ =163
  (NGX  =336   NGY  =336   NGZ  =672)
  gives a total of ****** points

 initial charge density was supplied:
 number of electron     401.9999999 magnetization 
 keeping initial charge density in first step


--------------------------------------------------------------------------------------------------------


 Maximum index for augmentation-charges        11535 (set IRDMAX)


--------------------------------------------------------------------------------------------------------


 First call to EWALD:  gamma=   0.097
 Maximum number of real-space cells   3x   3x   2
 Maximum number of reciprocal cells   2x   2x   4

    FEWALD:  cpu time      0.0168: real time      0.0168


--------------------------------------- Ionic step        1  -------------------------------------------




--------------------------------------- Iteration      1(   1)  ---------------------------------------


    POTLOK:  cpu time      2.4172: real time      2.4185
    SETDIJ:  cpu time      1.9250: real time      1.9268
    EDDIAG:  cpu time     46.4748: real time     46.5031
     EDDAV:  cpu time    224.2718: real time    224.3954
       DOS:  cpu time      0.0082: real time      0.0087
    CHARGE:  cpu time     26.9587: real time     26.9839
    MIXING:  cpu time      0.0523: real time      0.0529
    --------------------------------------------
      LOOP:  cpu time    302.1081: real time    302.2894

 eigenvalue-minimisations  :  2152
 total energy-change (2. order) :-0.1041180E+04  (-0.1151955E+01)
 number of electron     401.9999999 magnetization 
 augmentation part      -20.7528410 magnetization 

 Broyden mixing:
  rms(total) = 0.12235E+01    rms(broyden)= 0.12235E+01
  rms(prec ) = 0.12261E+01
  weight for this iteration     100.00

 Free energy of the ion-electron system (eV)
  ---------------------------------------------------
  alpha Z        PSCENC =        55.84779967
  Ewald energy   TEWEN  =     65737.51707160
  -Hartree energ DENC   =    -74642.82180389
  -exchange      EXHF   =         0.00000000
  -V(xc)+E(xc)   XCENC  =      -376.92249020
  PAW double counting   =     37488.17992575   -36551.96756411
  entropy T*S    EENTRO =        -0.23552862
  eigenvalues    EBANDS =     -2763.75756132
  atomic energy  EATOM  =     10012.97997727
  Solvation  Ediel_sol  =         0.00000000
  ---------------------------------------------------
  free energy    TOTEN  =     -1041.18017385 eV

  energy without entropy =    -1040.94464523  energy(sigma->0) =    -1041.06240954


--------------------------------------------------------------------------------------------------------




--------------------------------------- Iteration      1(   2)  ---------------------------------------


    POTLOK:  cpu time      2.3665: real time      2.3875
    SETDIJ:  cpu time      1.9194: real time      1.9205
    EDDIAG:  cpu time     46.4747: real time     46.5041
     EDDAV:  cpu time    222.7096: real time    222.8347
       DOS:  cpu time      0.0026: real time      0.0026
    CHARGE:  cpu time     26.8094: real time     26.8331
    MIXING:  cpu time      0.0449: real time      0.0449
    --------------------------------------------
      LOOP:  cpu time    300.3271: real time    300.5274

 eigenvalue-minimisations  :  2144
 total energy-change (2. order) : 0.7123816E+02  (-0.1154087E+01)
 number of electron     401.9999999 magnetization 
 augmentation part      -20.6835323 magnetization 

 Broyden mixing:
  rms(total) = 0.83419E+00    rms(broyden)= 0.83419E+00
  rms(prec ) = 0.83949E+00
  weight for this iteration     100.00

 eigenvalues of (default mixing * dielectric matrix)
  average eigenvalue GAMMA=   2.5140
  2.5140

 Free energy of the ion-electron system (eV)
  ---------------------------------------------------
  alpha Z        PSCENC =        55.84779967
  Ewald energy   TEWEN  =     65737.51707160
  -Hartree energ DENC   =    -74626.86281109
  -exchange      EXHF   =         0.00000000
  -V(xc)+E(xc)   XCENC  =      -367.85304208
  PAW double counting   =     44671.90402832   -43735.41008924
  entropy T*S    EENTRO =        -0.20193453
  eigenvalues    EBANDS =     -2717.86301859
  atomic energy  EATOM  =     10012.97997727
  Solvation  Ediel_sol  =         0.00000000
  ---------------------------------------------------
  free energy    TOTEN  =      -969.94201868 eV

  energy without entropy =     -969.74008415  energy(sigma->0) =     -969.84105142


--------------------------------------------------------------------------------------------------------




--------------------------------------- Iteration      1(   3)  ---------------------------------------


    POTLOK:  cpu time      2.3833: real time      2.3856
    SETDIJ:  cpu time      1.9115: real time      1.9121
    EDDIAG:  cpu time     46.4207: real time     46.4494
     EDDAV:  cpu time    225.5363: real time    225.6585
       DOS:  cpu time      0.0050: real time      0.0050
    CHARGE:  cpu time     26.7811: real time     26.8044
    MIXING:  cpu time      0.0433: real time      0.0433
    --------------------------------------------
      LOOP:  cpu time    303.0812: real time    303.2584

 eigenvalue-minimisations  :  2192
 total energy-change (2. order) :-0.3297100E+01  (-0.1239454E+01)
 number of electron     401.9999999 magnetization 
 augmentation part      -20.6017756 magnetization 

 Broyden mixing:
  rms(total) = 0.34526E+00    rms(broyden)= 0.34525E+00
  rms(prec ) = 0.45993E+00
  weight for this iteration     100.00

 eigenvalues of (default mixing * dielectric matrix)
  average eigenvalue GAMMA=   1.6468
  2.6868  0.6069

 Free energy of the ion-electron system (eV)
  ---------------------------------------------------
  alpha Z        PSCENC =        55.84779967
  Ewald energy   TEWEN  =     65737.51707160
  -Hartree energ DENC   =    -74636.23000990
  -exchange      EXHF   =         0.00000000
  -V(xc)+E(xc)   XCENC  =      -370.61018690
  PAW double counting   =     57114.71786815   -56178.43756978
  entropy T*S    EENTRO =        -0.20569207
  eigenvalues    EBANDS =     -2708.81837627
  atomic energy  EATOM  =     10012.97997727
  Solvation  Ediel_sol  =         0.00000000
  ---------------------------------------------------
  free energy    TOTEN  =      -973.23911825 eV

  energy without entropy =     -973.03342617  energy(sigma->0) =     -973.13627221


--------------------------------------------------------------------------------------------------------




--------------------------------------- Iteration      1(   4)  ---------------------------------------


    POTLOK:  cpu time      2.3588: real time      2.3876
    SETDIJ:  cpu time      1.9249: real time      1.9263
    EDDIAG:  cpu time     46.4540: real time     46.4817
     EDDAV:  cpu time    241.3284: real time    241.4649
       DOS:  cpu time      0.0042: real time      0.0042
    CHARGE:  cpu time     26.7936: real time     26.8192
    MIXING:  cpu time      0.0428: real time      0.0437
    --------------------------------------------
      LOOP:  cpu time    318.9068: real time    319.1277

 eigenvalue-minimisations  :  2456
 total energy-change (2. order) : 0.3317594E+00  (-0.3521217E+00)
 number of electron     401.9999999 magnetization 
 augmentation part      -20.6121094 magnetization 

 Broyden mixing:
  rms(total) = 0.15931E+00    rms(broyden)= 0.15931E+00
  rms(prec ) = 0.25196E+00
  weight for this iteration     100.00

 eigenvalues of (default mixing * dielectric matrix)
  average eigenvalue GAMMA=   1.2906
  2.6324  0.7621  0.4772

 Free energy of the ion-electron system (eV)
  ---------------------------------------------------
  alpha Z        PSCENC =        55.84779967
  Ewald energy   TEWEN  =     65737.51707160
  -Hartree energ DENC   =    -74633.32865222
  -exchange      EXHF   =         0.00000000
  -V(xc)+E(xc)   XCENC  =      -372.47340276
  PAW double counting   =     59491.01155914   -58554.72204258
  entropy T*S    EENTRO =        -0.21731561
  eigenvalues    EBANDS =     -2709.52235340
  atomic energy  EATOM  =     10012.97997727
  Solvation  Ediel_sol  =         0.00000000
  ---------------------------------------------------
  free energy    TOTEN  =      -972.90735888 eV

  energy without entropy =     -972.69004327  energy(sigma->0) =     -972.79870108


--------------------------------------------------------------------------------------------------------




--------------------------------------- Iteration      1(   5)  ---------------------------------------


    POTLOK:  cpu time      2.4075: real time      2.4090
    SETDIJ:  cpu time      1.9185: real time      1.9200
    EDDIAG:  cpu time     46.4002: real time     46.4291
     EDDAV:  cpu time    243.4730: real time    243.6094
       DOS:  cpu time      0.0093: real time      0.0093
    CHARGE:  cpu time     26.8009: real time     26.8253
    MIXING:  cpu time      0.0452: real time      0.0452
    --------------------------------------------
      LOOP:  cpu time    321.0548: real time    321.2473

 eigenvalue-minimisations  :  2496
 total energy-change (2. order) :-0.4594527E-01  (-0.1194325E+00)
 number of electron     401.9999999 magnetization 
 augmentation part      -20.6088217 magnetization 

 Broyden mixing:
  rms(total) = 0.13114E+00    rms(broyden)= 0.13114E+00
  rms(prec ) = 0.19188E+00
  weight for this iteration     100.00

 eigenvalues of (default mixing * dielectric matrix)
  average eigenvalue GAMMA=   1.1364
  2.5856  0.8935  0.7836  0.2827

 Free energy of the ion-electron system (eV)
  ---------------------------------------------------
  alpha Z        PSCENC =        55.84779967
  Ewald energy   TEWEN  =     65737.51707160
  -Hartree energ DENC   =    -74635.29123269
  -exchange      EXHF   =         0.00000000
  -V(xc)+E(xc)   XCENC  =      -373.41360571
  PAW double counting   =     59380.82429908   -58444.51043903
  entropy T*S    EENTRO =        -0.21073776
  eigenvalues    EBANDS =     -2706.69643657
  atomic energy  EATOM  =     10012.97997727
  Solvation  Ediel_sol  =         0.00000000
  ---------------------------------------------------
  free energy    TOTEN  =      -972.95330415 eV

  energy without entropy =     -972.74256639  energy(sigma->0) =     -972.84793527


--------------------------------------------------------------------------------------------------------




--------------------------------------- Iteration      1(   6)  ---------------------------------------


    POTLOK:  cpu time      2.3670: real time      2.3934
    SETDIJ:  cpu time      1.9172: real time      1.9185
    EDDIAG:  cpu time     46.4502: real time     46.4797
     EDDAV:  cpu time    231.7020: real time    231.8334
       DOS:  cpu time      0.0034: real time      0.0034
    CHARGE:  cpu time     26.8272: real time     26.8544
    MIXING:  cpu time      0.0627: real time      0.0630
    --------------------------------------------
      LOOP:  cpu time    309.3294: real time    309.5456

 eigenvalue-minimisations  :  2296
 total energy-change (2. order) : 0.3277662E-01  (-0.3963064E-01)
 number of electron     401.9999999 magnetization 
 augmentation part      -20.6104415 magnetization 

 Broyden mixing:
  rms(total) = 0.86192E-01    rms(broyden)= 0.86192E-01
  rms(prec ) = 0.10295E+00
  weight for this iteration     100.00

 eigenvalues of (default mixing * dielectric matrix)
  average eigenvalue GAMMA=   1.0115
  2.5542  1.1258  0.5499  0.5499  0.2776

 Free energy of the ion-electron system (eV)
  ---------------------------------------------------
  alpha Z        PSCENC =        55.84779967
  Ewald energy   TEWEN  =     65737.51707160
  -Hartree energ DENC   =    -74636.14840293
  -exchange      EXHF   =         0.00000000
  -V(xc)+E(xc)   XCENC  =      -373.63132597
  PAW double counting   =     59155.52032805   -58219.18381887
  entropy T*S    EENTRO =        -0.22178274
  eigenvalues    EBANDS =     -2705.60037360
  atomic energy  EATOM  =     10012.97997727
  Solvation  Ediel_sol  =         0.00000000
  ---------------------------------------------------
  free energy    TOTEN  =      -972.92052753 eV

  energy without entropy =     -972.69874479  energy(sigma->0) =     -972.80963616


--------------------------------------------------------------------------------------------------------




--------------------------------------- Iteration      1(   7)  ---------------------------------------


    POTLOK:  cpu time      2.3763: real time      2.3980
    SETDIJ:  cpu time      1.9275: real time      1.9291
    EDDIAG:  cpu time     46.5185: real time     46.5468
     EDDAV:  cpu time    227.9070: real time    228.0373
       DOS:  cpu time      0.0107: real time      0.0109
    CHARGE:  cpu time     26.8133: real time     26.8378
    MIXING:  cpu time      0.0451: real time      0.0451
    --------------------------------------------
      LOOP:  cpu time    305.5984: real time    305.8051

 eigenvalue-minimisations  :  2240
 total energy-change (2. order) : 0.3138788E-02  (-0.1025459E-01)
 number of electron     401.9999999 magnetization 
 augmentation part      -20.6100050 magnetization 

 Broyden mixing:
  rms(total) = 0.40935E-01    rms(broyden)= 0.40935E-01
  rms(prec ) = 0.48207E-01
  weight for this iteration     100.00

 eigenvalues of (default mixing * dielectric matrix)
  average eigenvalue GAMMA=   0.9651
  2.5377  1.2916  0.6298  0.6298  0.4303  0.2715

 Free energy of the ion-electron system (eV)
  ---------------------------------------------------
  alpha Z        PSCENC =        55.84779967
  Ewald energy   TEWEN  =     65737.51707160
  -Hartree energ DENC   =    -74635.53281521
  -exchange      EXHF   =         0.00000000
  -V(xc)+E(xc)   XCENC  =      -373.70420601
  PAW double counting   =     59079.90430750   -58143.55554240
  entropy T*S    EENTRO =        -0.21612206
  eigenvalues    EBANDS =     -2706.15785911
  atomic energy  EATOM  =     10012.97997727
  Solvation  Ediel_sol  =         0.00000000
  ---------------------------------------------------
  free energy    TOTEN  =      -972.91738874 eV

  energy without entropy =     -972.70126668  energy(sigma->0) =     -972.80932771


--------------------------------------------------------------------------------------------------------




--------------------------------------- Iteration      1(   8)  ---------------------------------------


    POTLOK:  cpu time      2.3679: real time      2.3942
    SETDIJ:  cpu time      1.9185: real time      1.9199
    EDDIAG:  cpu time     46.4799: real time     46.5071
     EDDAV:  cpu time    224.2824: real time    224.4041
       DOS:  cpu time      0.0065: real time      0.0065
    CHARGE:  cpu time     26.8000: real time     26.8253
    MIXING:  cpu time      0.0458: real time      0.0458
    --------------------------------------------
      LOOP:  cpu time    301.9009: real time    302.1028

 eigenvalue-minimisations  :  2176
 total energy-change (2. order) : 0.9752111E-03  (-0.2802787E-02)
 number of electron     401.9999999 magnetization 
 augmentation part      -20.6089172 magnetization 

 Broyden mixing:
  rms(total) = 0.29856E-01    rms(broyden)= 0.29856E-01
  rms(prec ) = 0.33063E-01
  weight for this iteration     100.00

 eigenvalues of (default mixing * dielectric matrix)
  average eigenvalue GAMMA=   0.9977
  2.5252  1.5783  0.8863  0.8863  0.4154  0.4154  0.2769

 Free energy of the ion-electron system (eV)
  ---------------------------------------------------
  alpha Z        PSCENC =        55.84779967
  Ewald energy   TEWEN  =     65737.51707160
  -Hartree energ DENC   =    -74634.30361380
  -exchange      EXHF   =         0.00000000
  -V(xc)+E(xc)   XCENC  =      -373.63416220
  PAW double counting   =     59049.50761279   -58113.14821605
  entropy T*S    EENTRO =        -0.21739653
  eigenvalues    EBANDS =     -2707.46548628
  atomic energy  EATOM  =     10012.97997727
  Solvation  Ediel_sol  =         0.00000000
  ---------------------------------------------------
  free energy    TOTEN  =      -972.91641353 eV

  energy without entropy =     -972.69901700  energy(sigma->0) =     -972.80771527


--------------------------------------------------------------------------------------------------------




--------------------------------------- Iteration      1(   9)  ---------------------------------------


    POTLOK:  cpu time      2.3651: real time      2.3941
    SETDIJ:  cpu time      1.9232: real time      1.9242
    EDDIAG:  cpu time     46.4750: real time     46.5039
     EDDAV:  cpu time    232.9458: real time    233.0793
       DOS:  cpu time      0.0047: real time      0.0047
    CHARGE:  cpu time     26.7892: real time     26.8125
    MIXING:  cpu time      0.0473: real time      0.0473
    --------------------------------------------
      LOOP:  cpu time    310.5503: real time    310.7661

 eigenvalue-minimisations  :  2320
 total energy-change (2. order) :-0.1461400E-02  (-0.8425110E-03)
 number of electron     401.9999999 magnetization 
 augmentation part      -20.6071927 magnetization 

 Broyden mixing:
  rms(total) = 0.24444E-01    rms(broyden)= 0.24444E-01
  rms(prec ) = 0.29502E-01
  weight for this iteration     100.00

 eigenvalues of (default mixing * dielectric matrix)
  average eigenvalue GAMMA=   1.0522
  2.4621  2.4621  0.9543  0.7545  0.7545  0.2742  0.3778  0.3778

 Free energy of the ion-electron system (eV)
  ---------------------------------------------------
  alpha Z        PSCENC =        55.84779967
  Ewald energy   TEWEN  =     65737.51707160
  -Hartree energ DENC   =    -74634.39602375
  -exchange      EXHF   =         0.00000000
  -V(xc)+E(xc)   XCENC  =      -373.46294699
  PAW double counting   =     59055.06990761   -58118.69758078
  entropy T*S    EENTRO =        -0.21911481
  eigenvalues    EBANDS =     -2707.55696475
  atomic energy  EATOM  =     10012.97997727
  Solvation  Ediel_sol  =         0.00000000
  ---------------------------------------------------
  free energy    TOTEN  =      -972.91787493 eV

  energy without entropy =     -972.69876012  energy(sigma->0) =     -972.80831752


--------------------------------------------------------------------------------------------------------




--------------------------------------- Iteration      1(  10)  ---------------------------------------


    POTLOK:  cpu time      2.3668: real time      2.3965
    SETDIJ:  cpu time      1.9160: real time      1.9172
    EDDIAG:  cpu time     46.4841: real time     46.5121
     EDDAV:  cpu time    224.2023: real time    224.3294
       DOS:  cpu time      0.0028: real time      0.0029
    CHARGE:  cpu time     26.7978: real time     26.8235
    MIXING:  cpu time      0.0477: real time      0.0477
    --------------------------------------------
      LOOP:  cpu time    301.8176: real time    302.0293

 eigenvalue-minimisations  :  2176
 total energy-change (2. order) : 0.2048432E-03  (-0.8380840E-03)
 number of electron     401.9999999 magnetization 
 augmentation part      -20.6063406 magnetization 

 Broyden mixing:
  rms(total) = 0.10902E-01    rms(broyden)= 0.10902E-01
  rms(prec ) = 0.13098E-01
  weight for this iteration     100.00

 eigenvalues of (default mixing * dielectric matrix)
  average eigenvalue GAMMA=   1.0499
  2.5848  2.5848  1.0264  0.9044  0.7123  0.6339  0.2731  0.3649  0.3649

 Free energy of the ion-electron system (eV)
  ---------------------------------------------------
  alpha Z        PSCENC =        55.84779967
  Ewald energy   TEWEN  =     65737.51707160
  -Hartree energ DENC   =    -74634.07487635
  -exchange      EXHF   =         0.00000000
  -V(xc)+E(xc)   XCENC  =      -373.32366382
  PAW double counting   =     59053.38263957   -58116.99645054
  entropy T*S    EENTRO =        -0.21869308
  eigenvalues    EBANDS =     -2708.03147440
  atomic energy  EATOM  =     10012.97997727
  Solvation  Ediel_sol  =         0.00000000
  ---------------------------------------------------
  free energy    TOTEN  =      -972.91767009 eV

  energy without entropy =     -972.69897700  energy(sigma->0) =     -972.80832354


--------------------------------------------------------------------------------------------------------




--------------------------------------- Iteration      1(  11)  ---------------------------------------


    POTLOK:  cpu time      2.3900: real time      2.4136
    SETDIJ:  cpu time      1.9144: real time      1.9154
    EDDIAG:  cpu time     46.4906: real time     46.5189
     EDDAV:  cpu time    226.2995: real time    226.4233
       DOS:  cpu time      0.0023: real time      0.0023
    CHARGE:  cpu time     26.7964: real time     26.8216
    MIXING:  cpu time      0.0490: real time      0.0490
    --------------------------------------------
      LOOP:  cpu time    303.9421: real time    304.1441

 eigenvalue-minimisations  :  2208
 total energy-change (2. order) : 0.4001427E-05  (-0.4123674E-03)
 number of electron     401.9999999 magnetization 
 augmentation part      -20.6061509 magnetization 

 Broyden mixing:
  rms(total) = 0.41552E-02    rms(broyden)= 0.41552E-02
  rms(prec ) = 0.50053E-02
  weight for this iteration     100.00

 eigenvalues of (default mixing * dielectric matrix)
  average eigenvalue GAMMA=   1.0395
  2.6218  2.6218  1.2048  0.9076  0.7120  0.7120  0.6093  0.2735  0.3660  0.3660

 Free energy of the ion-electron system (eV)
  ---------------------------------------------------
  alpha Z        PSCENC =        55.84779967
  Ewald energy   TEWEN  =     65737.51707160
  -Hartree energ DENC   =    -74634.22243106
  -exchange      EXHF   =         0.00000000
  -V(xc)+E(xc)   XCENC  =      -373.30792990
  PAW double counting   =     59055.12854333   -58118.73651123
  entropy T*S    EENTRO =        -0.21878101
  eigenvalues    EBANDS =     -2707.90540475
  atomic energy  EATOM  =     10012.97997727
  Solvation  Ediel_sol  =         0.00000000
  ---------------------------------------------------
  free energy    TOTEN  =      -972.91766608 eV

  energy without entropy =     -972.69888507  energy(sigma->0) =     -972.80827558


--------------------------------------------------------------------------------------------------------




--------------------------------------- Iteration      1(  12)  ---------------------------------------


    POTLOK:  cpu time      2.3934: real time      2.3953
    SETDIJ:  cpu time      1.9147: real time      1.9158
    EDDIAG:  cpu time     46.4477: real time     46.4755
     EDDAV:  cpu time    231.7961: real time    231.9257
       DOS:  cpu time      0.0048: real time      0.0048
    CHARGE:  cpu time     26.7837: real time     26.8080
    MIXING:  cpu time      0.0489: real time      0.0489
    --------------------------------------------
      LOOP:  cpu time    309.3893: real time    309.5740

 eigenvalue-minimisations  :  2304
 total energy-change (2. order) : 0.6321952E-04  (-0.6430172E-04)
 number of electron     401.9999999 magnetization 
 augmentation part      -20.6060905 magnetization 

 Broyden mixing:
  rms(total) = 0.17480E-02    rms(broyden)= 0.17480E-02
  rms(prec ) = 0.20430E-02
  weight for this iteration     100.00

 eigenvalues of (default mixing * dielectric matrix)
  average eigenvalue GAMMA=   1.0757
  2.6838  2.6838  1.5711  1.0287  0.8311  0.8311  0.5991  0.5991  0.2736  0.3659
  0.3659

 Free energy of the ion-electron system (eV)
  ---------------------------------------------------
  alpha Z        PSCENC =        55.84779967
  Ewald energy   TEWEN  =     65737.51707160
  -Hartree energ DENC   =    -74634.10006474
  -exchange      EXHF   =         0.00000000
  -V(xc)+E(xc)   XCENC  =      -373.31039027
  PAW double counting   =     59053.05655842   -58116.66213279
  entropy T*S    EENTRO =        -0.21892198
  eigenvalues    EBANDS =     -2708.02750003
  atomic energy  EATOM  =     10012.97997727
  Solvation  Ediel_sol  =         0.00000000
  ---------------------------------------------------
  free energy    TOTEN  =      -972.91760287 eV

  energy without entropy =     -972.69868088  energy(sigma->0) =     -972.80814187


--------------------------------------------------------------------------------------------------------




--------------------------------------- Iteration      1(  13)  ---------------------------------------


    POTLOK:  cpu time      2.3629: real time      2.3923
    SETDIJ:  cpu time      2.0068: real time      2.0078
    EDDIAG:  cpu time     46.4310: real time     46.4568
     EDDAV:  cpu time    231.6537: real time    231.7789
       DOS:  cpu time      0.0090: real time      0.0097
    CHARGE:  cpu time     26.8033: real time     26.8421
    MIXING:  cpu time      0.0650: real time      0.0658
    --------------------------------------------
      LOOP:  cpu time    309.3319: real time    309.5535

 eigenvalue-minimisations  :  2296
 total energy-change (2. order) :-0.5411252E-04  (-0.3255952E-04)
 number of electron     401.9999999 magnetization 
 augmentation part      -20.6061968 magnetization 

 Broyden mixing:
  rms(total) = 0.11276E-02    rms(broyden)= 0.11276E-02
  rms(prec ) = 0.13923E-02
  weight for this iteration     100.00

 eigenvalues of (default mixing * dielectric matrix)
  average eigenvalue GAMMA=   1.0829
  2.7594  2.7594  1.8395  1.1440  0.8077  0.8077  0.6500  0.6106  0.6106  0.2736
  0.3660  0.3660

 Free energy of the ion-electron system (eV)
  ---------------------------------------------------
  alpha Z        PSCENC =        55.84779967
  Ewald energy   TEWEN  =     65737.51707160
  -Hartree energ DENC   =    -74633.92095827
  -exchange      EXHF   =         0.00000000
  -V(xc)+E(xc)   XCENC  =      -373.31701554
  PAW double counting   =     59047.74606526   -58111.34999324
[...]
   -.974E+01 0.376E+02 0.242E+03   0.883E+01 -.368E+02 -.240E+03   0.466E+00 -.872E+00 -.164E+01   0.231E-04 0.157E-05 0.626E-04
   -.182E+02 0.247E+02 -.294E+03   0.183E+02 -.212E+02 0.291E+03   0.833E-01 -.362E+01 0.292E+01   -.688E-04 0.232E-04 0.737E-04
   -.267E+02 -.433E+02 0.712E+01   0.256E+02 0.421E+02 -.821E+01   0.882E+00 0.113E+01 0.115E+01   -.150E-04 0.112E-04 0.437E-04
   0.202E+02 0.251E+02 0.307E+03   -.186E+02 -.243E+02 -.305E+03   -.167E+01 -.873E+00 -.168E+01   -.514E-05 0.214E-04 0.227E-04
   -.108E+02 -.180E+02 0.455E+02   0.124E+02 0.172E+02 -.480E+02   -.119E+01 0.853E+00 0.231E+01   0.850E-05 0.103E-04 0.644E-04
   -.434E+02 -.148E+02 0.326E+03   0.412E+02 0.156E+02 -.326E+03   0.203E+01 -.701E+00 -.562E+00   -.132E-04 -.513E-05 0.981E-05
   -.106E+02 -.138E+02 -.233E+03   0.915E+01 0.136E+02 0.233E+03   0.140E+01 -.132E+00 -.102E+00   0.183E-04 -.240E-04 0.773E-04
   0.185E+02 -.349E+02 0.267E+03   -.178E+02 0.353E+02 -.265E+03   -.846E+00 -.593E+00 -.131E+01   0.118E-04 0.248E-04 0.186E-04
   0.298E+02 0.672E+01 0.938E+02   -.273E+02 -.852E+01 -.908E+02   -.227E+01 0.167E+01 -.298E+01   -.108E-04 -.357E-04 0.713E-04
   -.539E+01 0.267E+02 0.398E+03   0.478E+01 -.268E+02 -.401E+03   0.271E+00 0.834E-01 0.264E+01   -.412E-05 -.474E-04 -.283E-04
   0.418E+02 0.181E+02 -.352E+02   -.415E+02 -.167E+02 0.349E+02   -.495E+00 -.103E+01 0.312E+00   -.330E-05 -.247E-04 0.897E-04
   0.191E+00 -.264E+01 -.198E+03   -.147E+01 0.114E+01 0.198E+03   0.139E+01 0.146E+01 -.629E-01   -.166E-04 -.160E-04 0.673E-04
   0.454E+01 -.368E+01 0.275E+03   -.241E+01 0.413E+01 -.274E+03   -.205E+01 -.429E+00 -.956E+00   -.739E-05 0.193E-04 0.732E-05
   -.186E+02 0.265E+02 -.211E+03   0.173E+02 -.276E+02 0.209E+03   0.128E+01 0.120E+01 0.173E+01   -.449E-04 -.226E-04 0.235E-03
   0.567E+02 -.110E+02 -.210E+03   -.552E+02 0.825E+01 0.210E+03   -.155E+01 0.272E+01 0.359E+00   -.128E-05 -.286E-04 0.968E-04
 -----------------------------------------------------------------------------------------------
   0.239E+02 -.298E+01 0.174E+02   -.142E-13 0.165E-12 0.171E-12   -.239E+02 0.299E+01 -.174E+02   0.122E-03 0.214E-04 0.572E-02


 POSITION                                       TOTAL-FORCE (eV/Angst)
 -----------------------------------------------------------------------------------
      2.09185      3.85590      9.36545         0.000212     -0.117916     -0.081588
      1.40510      2.35735     13.83349         0.131885      0.204736      0.044754
     13.23115      3.22606     14.32233         0.067700     -0.067987     -0.030138
      2.68289     14.46336     14.28015         0.177029      0.099911     -0.094608
      1.90274      1.60001     18.29001         0.015138      0.134437      0.022354
     14.21550      2.16341     12.13201        -0.005408      0.182816     -0.039989
     13.49357      0.87464     16.30838        -0.145760     -0.083422      0.141711
      0.00289     14.43662     18.38358         0.042251     -0.036313      0.049751
     12.33827      2.80028     12.38813         0.003463      0.105986      0.118818
      0.35851     13.99232     17.90237         0.018881     -0.008795      0.134659
      0.85657      2.47755     19.89263         0.080081     -0.078887      0.058513
      1.00118      0.33605     12.67368         0.030857     -0.247156      0.172589
      3.03925     13.94664     18.18950         0.167417      0.028770      0.038524
      1.97910      2.07436     11.45150         0.117533     -0.053993      0.030612
      2.79606     13.22701     12.60500        -0.069621      0.073772     -0.130850
      3.60547     12.20113     15.72754         0.319060     -0.324571      0.025209
      2.89034     11.02002     19.67677        -0.021680      0.102058      0.145525
     11.07462      8.92787     17.74943        -0.050348      0.085385      0.001275
      7.46393     10.40357     13.64375         0.023694     -0.067333     -0.098865
      4.89354     14.08367     14.22708         0.007498      0.014729     -0.173153
      0.68398      0.40674     10.41558         0.086594     -0.105796     -0.090217
      0.06948      0.50800     10.01585        -0.119964     -0.020744     -0.142116
     13.63383     14.21274     12.36469        -0.076465      0.073861      0.007782
      0.24272      2.44626     16.17891        -0.116087      0.031978     -0.117955
      1.33165      0.74855     16.05344        -0.201329      0.218993     -0.187949
      2.34903      1.00389     18.25048         0.180542     -0.103240      0.025263
     14.21115      5.55204     16.10987         0.002858      0.086010      0.135282
      2.74865      4.33305     10.60518        -0.430005      0.157441      0.265767
      4.59751     10.68400     12.87734        -0.068220      0.123579     -0.103029
      5.78715      7.49690     12.92033         0.032125      0.007076     -0.117769
      8.43793      9.92001     17.01672         0.149397      0.076425      0.107801
      8.47967      5.95860     12.35032         0.064859     -0.236010      0.051611
      7.74023      7.40226     14.10563         0.011058      0.135092      0.200578
     11.96626     12.93905     17.66883        -0.167237     -0.126161      0.225978
      8.42146      7.71578     17.96379         0.232355     -0.620570      0.031322
     14.23679     11.62137     10.01657        -0.050531      0.061889     -0.284806
      9.69222     12.65838     14.98391        -0.278163      0.184694     -0.066315
     10.71619      4.98614     14.89801         0.001429      0.171719     -0.171653
      7.29708      9.99929     10.29922         0.333792      0.052932      0.123770
      6.79925     14.16975     16.31672         0.151800     -0.203857     -0.457752
     12.06702      0.47760     16.51719         0.009817     -0.165004     -0.073555
      1.85500      8.90334     16.02594        -0.029423      0.031030      0.422423
      7.56716     13.36078     14.28149        -0.056922     -0.022557     -0.184706
      6.15583     10.60843     16.47532        -0.200872      0.149298     -0.227523
      6.36886      4.65565     16.21870        -0.475579      0.285351      0.347872
     12.51732      3.55377     19.16170         0.100709      0.643971     -0.385284
     11.76024      5.70017     10.67239         0.036942      0.084235      0.030790
     10.96390      2.69760     11.82567         0.144192     -0.022773      0.078861
      9.94418      4.11170     16.88597         0.136730      0.105057      0.519432
      7.93448      2.68998     14.12468         0.016947     -0.179522     -0.143201
      1.00159     10.65974     13.66463         0.035779     -0.128141     -0.065167
     10.13408      7.32442     11.29864         0.060847      0.064465     -0.101452
     11.10582      2.28338     17.79697        -0.349020      0.003848      0.304263
      4.39569      5.04449     17.46636         0.018486     -0.156101      0.010040
     10.41552     10.69794     14.02800        -0.101568     -0.077223      0.205496
      7.96806      2.89391     16.45673         0.117793     -0.308997     -0.215270
     12.00631      5.79559     19.23917        -0.232329     -0.536149     -0.025420
      6.64368     12.11648      9.78726         0.019078      0.186335      0.037546
      0.24885      7.65616     12.75373        -0.057171     -0.265542      0.167640
      6.16542      5.38300     12.04816        -0.014873      0.155109      0.005090
      3.26092     12.87051     17.12193        -0.149372      0.036555     -0.274903
      0.94325      7.04648     14.91705         0.134756      0.022606      0.427042
      2.67265     10.89801     18.21933         0.198591      0.028721     -0.043515
      8.40317     13.81608     17.99296        -0.209408      0.390772      0.172308
     13.55931     11.64848     16.54647         0.250045     -0.080606      0.051326
      1.01745      1.79957     12.52746        -0.171788     -0.513276     -0.106951
     10.77089      7.29734     15.04900        -0.142203     -0.127163      0.153208
      4.00090      7.26758     14.32851        -0.022949      0.107484      0.031379
      4.13700      0.63119     13.56429         0.060884     -0.265636      0.198205
      4.73788      7.20680     16.58031         0.039254     -0.336767     -0.131093
      5.56010     12.64350     17.47651        -0.185863      0.014650      0.172295
      6.54829      1.32780     18.97318         0.252246     -0.789579      0.039660
      8.03662      0.69503     12.96763         0.083365     -0.245543      0.138222
      9.51446      9.43799     10.44641        -0.294460     -0.009563     -0.162763
      3.82121      7.83081     10.29909        -0.069337     -0.178177      0.168325
      0.25037     12.55444     14.80568         0.090350      0.113675     -0.013058
      0.90351      8.02547     18.30353         0.066321      0.068662     -0.164314
      1.23589      4.87847     12.23921         0.778003      0.426092     -0.450784
     12.39832     10.12445     15.24643         0.147280     -0.012843     -0.170702
     12.85052     11.29164     11.85728         0.218008     -0.278261     -0.028921
      0.57700     10.19269     17.54538        -0.282715     -0.090654      0.148356
      7.18309      1.18755     10.88532         0.061476      0.672611     -0.079657
      4.07915      9.38703     17.02410        -0.241646      0.193726     -0.160250
      4.58239      5.64181     10.33629        -0.147470     -0.000821      0.009499
      2.95773      4.02523     15.90422         0.007200      0.097036      0.188052
     10.31027      0.53015     12.50822         0.098381      0.256207     -0.004872
      5.00611      0.61046     11.36108         0.301058     -0.560715     -0.411184
      9.14230      8.99693     14.93779         0.018550      0.019826     -0.264302
      8.09503     13.75786     10.16915        -0.122800     -0.073206      0.078266
      5.45050      9.12982     11.32969        -0.094392     -0.215028     -0.086924
      6.40162     11.29635     14.19611         0.375972      0.033537      0.139550
     13.44387      9.49910     13.26023         0.034644      0.179024      0.047279
     13.15190     13.17043     13.30156         0.070280      0.199627     -0.059522
     13.43152      6.93983     17.79847         0.338661      0.128769     -0.056940
     12.94505      4.68168     14.37731         0.022149     -0.088313      0.059151
      9.95306      6.00494     18.25811        -0.329351      0.727504     -0.314827
      8.90683      1.51192     18.25459        -0.258048     -0.159330     -0.214090
      1.40553     10.82536     11.31244        -0.134743      0.114180      0.233822
     11.75316      7.69095     12.96747         0.126636      0.103009     -0.003946
      4.68219     13.21046     10.24817         0.041539      0.095754      0.197932
      6.56320     13.49227     19.43685         0.024983      0.666451      0.152182
      2.49632      5.50443     14.12709         0.017584     -0.102498     -0.169189
      0.21580      3.49971     19.03811         0.096415      0.087414      0.269098
      1.85480     14.02596     15.57140        -0.073114     -0.197308      0.157124
      9.54487      4.03761     13.13954         0.019257     -0.006793      0.011198
     13.47930      5.76883     12.32520        -0.439826     -0.100819      0.246859
      9.76334     12.05263     17.23979         0.162801     -0.165046     -0.043562
     11.34186     14.22374     14.40761        -0.194326     -0.047722      0.097720
      2.09279      8.58180     11.63704        -0.107348     -0.000557     -0.305654
      2.95089      9.31070     13.80262         0.344289      0.024927     -0.119669
     10.09053     13.29228     11.07019        -0.239895     -0.034786     -0.067573
     11.96707      8.36290     16.70199        -0.073778     -0.291793      0.114757
      3.27167     12.15526     11.67823        -0.168654     -0.176871      0.135695
      5.97866      3.93402     13.96518         0.120333     -0.083016     -0.075180
     11.19521      3.67285      9.71411        -0.301132      0.117424     -0.191659
      4.44777      2.46191     14.98074        -0.198260      0.270914     -0.010997
      7.05757      6.85155     16.29926         0.168029      0.020112     -0.083601
     10.54920     11.10674     11.70452        -0.002103      0.018684     -0.264493
      0.82941      3.65623     16.81494         0.062122      0.141561     -0.131574
      5.91562      1.69532     16.68156        -0.004734      0.096945      0.349589
 -----------------------------------------------------------------------------------
    total drift:                                0.007120      0.011756     -0.006174


--------------------------------------------------------------------------------------------------------



  FREE ENERGIE OF THE ION-ELECTRON SYSTEM (eV)
  ---------------------------------------------------
  free  energy   TOTEN  =      -972.91802617 eV

  energy  without entropy=     -972.69910262  energy(sigma->0) =     -972.80856440



--------------------------------------------------------------------------------------------------------


    POTLOK:  cpu time      4.2683: real time      4.2707


--------------------------------------------------------------------------------------------------------


     LOOP+:  cpu time   7770.8822: real time   7776.0172
    4ORBIT:  cpu time      0.0000: real time      0.0000



 total charge

# of ion       s       p       d       tot
------------------------------------------
    1        0.568   0.016   0.000   0.584
    2        0.581   0.016   0.000   0.597
    3        0.571   0.016   0.000   0.587
    4        0.569   0.017   0.000   0.586
    5        0.617   0.033   0.000   0.649
    6        0.581   0.016   0.000   0.597
    7        0.562   0.016   0.000   0.578
    8        0.607   0.033   0.000   0.640
    9        0.566   0.017   0.000   0.583
   10        0.615   0.032   0.000   0.647
   11        0.567   0.016   0.000   0.583
   12        0.593   0.016   0.000   0.610
   13        0.555   0.014   0.000   0.569
   14        0.584   0.018   0.000   0.602
   15        0.571   0.016   0.000   0.587
   16        0.534   0.013   0.000   0.547
   17        0.570   0.016   0.000   0.586
   18        0.570   0.016   0.000   0.586
   19        0.570   0.017   0.000   0.587
   20        0.562   0.016   0.000   0.579
   21        0.617   0.033   0.000   0.650
   22        0.613   0.033   0.000   0.646
   23        0.573   0.017   0.000   0.590
   24        0.567   0.017   0.000   0.584
   25        0.574   0.017   0.000   0.591
   26        0.609   0.034   0.000   0.643
   27        0.753   0.979   0.000   1.732
   28        0.773   0.913   0.000   1.686
   29        0.760   0.955   0.000   1.715
   30        0.768   0.985   0.000   1.753
   31        0.760   0.851   0.000   1.611
   32        0.765   0.898   0.000   1.663
   33        0.761   0.954   0.000   1.715
   34        0.795   0.842   0.000   1.637
   35        0.773   0.871   0.000   1.643
   36        0.875   0.745   0.000   1.620
   37        0.760   0.961   0.000   1.721
   38        0.758   0.981   0.000   1.740
   39        0.767   0.904   0.000   1.672
   40        0.779   0.951   0.000   1.730
   41        0.741   0.931   0.000   1.672
   42        0.766   0.870   0.000   1.636
   43        0.752   0.959   0.000   1.712
   44        0.751   0.904   0.000   1.655
   45        0.773   0.899   0.000   1.672
   46        0.776   0.892   0.000   1.668
   47        0.790   0.847   0.000   1.637
   48        0.747   0.968   0.000   1.715
   49        0.778   0.904   0.000   1.682
   50        0.760   0.967   0.000   1.727
   51        0.774   0.888   0.000   1.661
   52        0.752   0.897   0.000   1.649
   53        0.759   0.911   0.000   1.670
   54        0.809   0.850   0.000   1.660
   55        0.763   0.943   0.000   1.706
   56        0.751   0.972   0.000   1.723
   57        0.782   0.893   0.000   1.676
   58        0.766   0.929   0.000   1.695
   59        0.773   0.907   0.000   1.680
   60        0.757   0.912   0.000   1.669
   61        0.704   0.994   0.000   1.698
   62        0.766   0.955   0.000   1.721
   63        0.744   0.971   0.000   1.715
   64        0.765   0.929   0.000   1.694
   65        0.751   0.948   0.000   1.699
   66        0.742   1.054   0.000   1.796
   67        0.759   0.967   0.000   1.726
   68        0.770   0.934   0.000   1.705
   69        0.775   0.873   0.000   1.647
   70        0.759   0.924   0.000   1.684
   71        0.776   0.944   0.000   1.721
   72        0.831   0.750   0.000   1.582
   73        0.757   0.944   0.000   1.701
   74        0.771   0.887   0.000   1.658
   75        0.794   0.875   0.000   1.669
   76        0.748   0.974   0.000   1.721
   77        0.848   0.771   0.000   1.619
   78        0.803   0.840   0.000   1.643
   79        0.760   0.952   0.000   1.712
   80        0.762   0.946   0.000   1.709
   81        0.763   0.942   0.000   1.705
   82        0.802   0.879   0.000   1.681
   83        0.766   0.866   0.000   1.632
   84        0.783   0.881   0.000   1.665
   85        0.755   0.935   0.000   1.690
   86        0.756   0.958   0.000   1.714
   87        0.780   0.876   0.000   1.656
   88        0.765   0.937   0.000   1.702
   89        0.784   0.921   0.000   1.705
   90        0.752   0.968   0.000   1.721
   91        0.747   0.959   0.000   1.705
   92        0.744   0.951   0.000   1.694
   93        0.747   0.967   0.000   1.715
   94        0.755   0.943   0.000   1.698
   95        0.753   0.974   0.000   1.727
   96        0.772   0.883   0.000   1.656
   97        0.784   0.861   0.000   1.646
   98        0.763   0.950   0.000   1.713
   99        0.794   0.844   0.000   1.639
  100        0.768   0.925   0.000   1.693
  101        0.823   0.813   0.000   1.636
  102        0.755   0.951   0.000   1.706
  103        0.769   0.931   0.000   1.700
  104        0.775   0.944   0.000   1.718
  105        0.755   0.971   0.000   1.727
  106        0.746   0.906   0.000   1.652
  107        0.754   0.902   0.000   1.657
  108        0.750   0.945   0.000   1.695
  109        0.777   0.886   0.000   1.663
  110        0.765   0.917   0.000   1.682
  111        0.779   0.906   0.000   1.685
  112        0.749   0.985   0.000   1.734
  113        0.748   0.988   0.000   1.736
  114        0.759   0.920   0.000   1.679
  115        0.870   0.745   0.000   1.615
  116        0.754   0.930   0.000   1.684
  117        0.760   0.951   0.000   1.711
  118        0.749   0.943   0.000   1.693
  119        0.744   0.976   0.000   1.721
  120        0.771   0.896   0.000   1.667
--------------------------------------------------
tot         87.309  86.821   0.000 174.130


 total amount of memory used by VASP MPI-rank0   397549. kBytes
=======================================================================

   base                                    :      30000. kBytes
   nonl-proj                               :      88271. kBytes
   fftplans                                :     114278. kBytes
   grid                                    :      88184. kBytes
   one-center                              :         24. kBytes
   wavefun                                 :      76792. kBytes

  
  
 General timing and accounting informations for this job:
 ========================================================
  
                  Total CPU time used (sec):     7932.077
                            User time (sec):     7071.663
                          System time (sec):      860.415
                         Elapsed time (sec):     7937.351
  
                   Maximum memory used (kb):      654508.
                   Average memory used (kb):          N/A
  
                          Minor page faults:     12358412
                          Major page faults:         1183
                 Voluntary context switches:         2797
