ITEM: TIMESTEP
213001
ITEM: NUMBER OF ATOMS
13000
ITEM: BOX BOUNDS pp pp pp
-1.2833419084247959e+00 5.9204525514600512e+01
-1.2833419084247959e+00 5.9204525514600512e+01
-1.2833419084247959e+00 6.6237566683459463e+01
ITEM: ATOMS id type xs ys zs
1 2 0.358762 0.390502 0.320465
2 2 0.173235 0.0507062 0.260204
3 2 0.181244 0.0422918 0.210004
4 2 0.524118 0.130028 0.145371
5 2 0.0446365 0.483392 0.983633
6 2 0.667751 0.201094 0.071389
7 2 0.300589 0.433405 0.654625
8 2 0.283218 0.187952 0.475713
9 2 0.439286 0.204307 0.0144601
10 2 0.823327 0.0832534 0.240933
11 2 0.276151 0.862531 0.779168
12 2 0.339692 0.840175 0.289391
13 2 0.465877 0.06085 0.589516
14 2 0.249498 0.319718 0.0387347
15 2 0.25187 0.406914 0.458274
16 2 0.297117 0.180357 0.0763683
17 2 0.699624 0.184211 0.62566
18 2 0.129511 0.123397 0.136804
19 2 0.293323 0.987405 0.501977
20 2 0.0980024 0.23269 0.853006
21 2 0.419599 0.94436 0.575699
22 2 0.334707 0.101894 0.0135313
23 2 0.33379 0.220968 0.822138
24 2 0.172404 0.665602 0.399184
25 2 0.668639 0.92607 0.0768804
26 2 0.475904 0.651375 0.187231
27 2 0.0594683 0.847322 0.421326
28 2 0.207577 0.533585 0.33165
29 2 0.216983 0.577483 0.7329
30 2 0.242047 0.898881 0.446615
31 2 0.714861 0.902792 0.100847
32 2 0.369245 0.278668 0.955233
33 2 0.362187 0.402792 0.0404215
34 2 0.402257 0.31173 0.170956
35 2 0.0580771 0.395729 0.0179451
36 2 0.334856 0.435836 0.919024
37 2 0.251335 0.990345 0.259744
38 2 0.577515 0.558802 0.38531
39 2 0.276496 0.807119 0.810799
40 2 0.303756 0.312627 0.489299
41 2 0.182383 0.230143 0.608608
42 2 0.0294179 0.987456 0.604849
43 2 0.23464 0.150506 0.136763
44 2 0.569256 0.963396 0.51717
45 2 0.305025 0.241816 0.866887
46 2 0.999399 0.788087 0.89601
47 2 0.38943 0.427242 0.125763
48 2 0.428607 0.213586 0.542088
49 2 0.894632 0.922376 0.0912239
50 2 0.883979 0.629466 0.090386
51 2 0.298728 0.324068 0.398471
52 2 0.364067 0.109494 0.95528
53 2 0.153723 0.276719 0.207047
54 2 0.267178 0.413755 0.615092
55 2 0.043568 0.350379 0.650982
56 2 0.49828 0.0813538 0.39059
57 2 0.381795 0.235351 0.00325068
58 2 0.179509 0.349995 0.420327
59 2 0.249183 0.126071 0.988563
60 2 0.288998 0.354181 0.321743
61 2 0.514621 0.244769 0.0882209
62 2 0.85493 0.075448 0.776505
63 2 0.0699963 0.0242454 0.387595
64 2 0.211807 0.34706 0.263601
65 2 0.220119 0.220109 0.942107
66 2 0.0348698 0.599697 0.570743
67 2 0.288116 0.22034 0.574546
68 2 0.122511 0.76052 0.0800792
69 2 0.0141998 0.104987 0.987466
70 2 0.295201 0.389088 0.336633
71 2 0.0103679 0.460663 0.47171
72 2 0.159555 0.807323 0.283765
73 2 0.11905 0.118362 0.990682
74 2 0.161485 0.892248 0.464827
75 2 0.326997 0.972443 0.958186
76 2 0.0330921 0.806244 0.646095
77 2 0.143266 0.787821 0.548735
78 2 0.298134 0.105692 0.51223
79 2 0.391311 0.739016 0.286388
80 2 0.0146429 0.149318 0.424096
81 2 0.169883 0.367262 0.474475
82 2 0.129282 0.474557 0.455122
83 2 0.998205 0.977587 0.113085
84 2 0.551965 0.350109 0.344931
85 2 0.841163 0.855016 0.918684
86 2 0.351587 0.64599 0.696826
87 2 0.354105 0.162667 0.934751
88 2 0.99152 0.16895 0.579924
89 2 0.17513 0.0596488 0.889525
90 2 0.558094 0.0853384 0.460877
91 2 0.788708 0.378348 0.00771306
92 2 0.221728 0.334732 0.459119
93 2 0.346453 0.242568 0.597085
94 2 0.385101 0.34007 0.00733145
95 2 0.167347 0.23278 0.246934
96 2 0.602647 0.0684024 0.367263
97 2 0.0936267 0.113829 0.0822529
98 2 0.286099 0.278696 0.500482
99 2 0.225294 0.260209 0.661983
100 2 0.279021 0.324723 0.343621
101 2 0.113689 0.947166 0.573144
102 2 0.000192546 0.648186 0.322997
103 2 0.387677 0.986704 0.0519761
104 2 0.165693 0.0631481 0.293102
105 2 0.225718 0.474353 0.217238
106 2 0.369884 0.0242438 0.356743
107 2 0.269941 0.286242 0.236153
108 2 0.294844 0.186079 0.51005
109 2 0.131191 0.285173 0.121537
110 2 0.0946511 0.379065 0.0877876
111 2 0.707421 0.427482 0.392197
112 2 0.0859877 0.32738 0.283585
113 2 0.0238115 0.19145 0.142234
114 2 0.00319656 0.280047 0.483102
115 2 0.547354 0.925003 0.914733
116 2 0.535729 0.64773 0.390193
117 2 0.200327 0.146579 0.268134
118 2 0.0542325 0.215775 0.203918
119 2 0.265547 0.244799 0.174433
120 2 0.404116 0.689381 0.458036
121 2 0.974923 0.51877 0.624334
122 2 0.0779218 0.290573 0.160711
123 2 0.990812 0.701637 0.56427
124 2 0.180851 0.128327 0.509284
125 2 0.482406 0.690211 0.359418
126 2 0.876812 0.439325 0.366733
127 2 0.130457 0.762593 0.920793
128 2 0.921827 0.213716 0.328008
129 2 0.427824 0.184925 0.898492
130 2 0.268069 0.0758848 0.372631
131 2 0.146649 0.151061 0.838162
132 2 0.337697 0.00592736 0.0106964
133 2 0.726717 0.314385 0.414283
134 2 0.794961 0.669577 0.606346
135 2 0.286562 0.420897 0.315384
136 2 0.486954 0.0543763 0.890042
137 2 0.365759 0.168998 0.300661
138 2 0.289198 0.685366 0.434384
139 2 0.0163094 0.897013 0.432117
140 2 0.140174 0.365685 0.908276
141 2 0.0828382 0.0974444 0.377379
142 2 0.259114 0.302261 0.173728
143 2 0.252698 0.275051 0.356014
144 2 0.250463 0.281999 0.453192
145 2 0.381977 0.298071 0.592583
146 2 0.00523711 0.559626 0.679703
147 2 0.987843 0.01125 0.674851
148 2 0.339061 0.072447 0.28271
149 2 0.27187 0.384881 0.541846
150 2 0.0457132 0.358005 0.514762
151 2 0.018948 0.279223 0.123787
152 2 0.395019 0.750689 0.604683
153 2 0.0802543 0.0302623 0.612483
154 2 0.118039 0.171449 0.416354
155 2 0.382247 0.179524 0.572936
156 2 0.207001 0.176387 0.142451
157 2 0.77461 0.138825 0.0197323
158 2 0.502943 0.188168 0.356829
159 2 0.222956 0.0861297 0.474844
160 2 0.784187 0.337562 0.55084
161 2 0.87109 0.176947 0.314467
162 2 0.503423 0.159802 0.00202074
163 2 0.282202 0.24935 0.22979
164 2 0.590473 0.231451 0.165913
165 2 0.253067 0.483951 0.603876
166 2 0.352929 0.170207 0.0375053
167 2 0.143276 0.159919 0.780902
168 2 0.983427 0.40936 0.666001
169 2 0.351616 0.429084 0.690101
170 2 0.205749 0.0599364 0.373349
171 2 0.0895083 0.161201 0.192373
172 2 0.241389 0.337729 0.489246
173 2 0.256084 0.42816 0.407605
174 2 0.468313 0.0991778 0.0825048
175 2 0.0408535 0.422783 0.160643
176 2 0.403563 0.303867 0.336873
177 2 0.434539 0.401941 0.95026
178 2 0.312694 0.130231 0.137967
179 2 0.0413158 0.424822 0.86721
180 2 0.17271 0.111121 0.404846
181 2 0.292172 0.357225 0.585956
182 2 0.214999 0.231597 0.974705
183 2 0.582073 0.505338 0.571836
184 2 0.950113 0.200905 0.164037
185 2 0.245521 0.414721 0.000449273
186 2 0.174608 0.130917 0.918665
187 2 0.954216 0.089434 0.269886
188 2 0.0776618 0.395028 0.253568
189 2 0.187041 0.0705129 0.651752
190 2 0.163275 0.346825 0.116882
191 2 0.0499441 0.423248 0.380022
192 2 0.255209 0.107603 0.474558
193 2 0.978044 0.0765542 0.74841
194 2 0.309739 0.528497 0.281045
195 2 0.474553 0.219922 0.459847
196 2 0.473233 0.856201 0.436003
197 2 0.0505101 0.0874859 0.132532
198 2 0.916061 0.205514 0.478096
199 2 0.250266 0.583468 0.921355
200 2 0.380374 0.379848 0.448028
201 2 0.27443 0.115118 0.0130178
202 2 0.143808 0.23921 0.672896
203 2 0.108414 0.458434 0.337904
204 2 0.515377 0.0672703 0.0623798
205 2 0.480095 0.175673 0.415147
206 2 0.0376101 0.27648 0.0720985
207 2 0.215461 0.0958639 0.176272
208 2 0.682204 0.861674 0.0621974
209 2 0.908037 0.573382 0.539492
210 2 0.118039 0.10757 0.168548
211 2 0.520291 0.995325 0.146656
212 2 0.95143 0.856375 0.408291
213 2 0.959144 0.999618 0.390995
214 2 0.417635 0.962197 0.706929
215 2 0.294066 0.194344 0.128647
216 2 0.907861 0.717678 0.440917
217 2 0.101923 0.216686 0.113441
218 2 0.0886537 0.424233 0.380861
219 2 0.958305 0.0483001 0.598931
220 2 0.959503 0.399026 0.130139
221 2 0.336622 0.279315 0.105964
222 2 0.0983639 0.262289 0.0127611
223 2 0.198021 0.636974 0.725032
224 2 0.196785 0.890686 0.812024
225 2 0.798922 0.499304 0.561865
226 2 0.611093 0.208202 0.68956
227 2 0.418872 0.981843 0.367591
228 2 0.23389 0.28429 0.037871
229 2 0.326368 0.141652 0.468833
230 2 0.341276 0.273568 0.219231
231 2 0.23117 0.539131 0.359817
232 2 0.975698 0.782173 0.954283
233 2 0.0667072 0.00542909 0.112257
234 2 0.261622 0.909206 0.418219
235 2 0.183331 0.986736 0.0725718
236 2 0.225547 0.858796 0.250267
237 2 0.0324007 0.914883 0.348096
238 2 0.216161 0.155358 0.954424
239 2 0.977215 0.120159 0.077877
240 2 0.903137 0.163173 0.433484
241 2 0.37802 0.285937 0.438095
242 2 0.00844686 0.477294 0.903389
243 2 0.39729 0.931523 0.310475
244 2 0.117147 0.16976 0.169731
245 2 0.345562 0.744596 0.89512
246 2 0.801198 0.378355 0.672925
247 2 0.968178 0.263446 0.481281
248 2 0.29412 0.234246 0.129351
249 2 0.434594 0.759123 0.327822
250 2 0.259161 0.172447 0.404954
251 2 0.514647 0.589593 0.941721
252 2 0.1407 0.744297 0.851753
253 2 0.1478 0.58079 0.305554
254 2 0.123126 0.184259 0.116933
255 2 0.411057 0.207196 0.305143
256 2 0.558282 0.0699156 0.986276
257 2 0.404578 0.367223 0.400622
258 2 0.498371 0.0709559 0.792612
259 2 0.378752 0.551383 0.313191
260 2 0.364992 0.117847 0.318676
261 2 0.0478799 0.520333 0.969963
262 2 0.273761 0.301171 0.982395
263 2 0.605585 0.080515 0.0288384
264 2 0.116945 0.175018 0.840058
265 2 0.366195 0.0797674 0.306973
266 2 0.118424 0.505118 0.265329
267 2 0.93779 0.510432 0.0477302
268 2 0.213978 0.290817 0.95101
269 2 0.239672 0.387476 0.561371
270 2 0.226224 0.170741 0.888244
271 2 0.0844026 0.273894 0.215738
272 2 0.928926 0.238042 0.30199
273 2 0.594422 0.357392 0.12527
274 2 0.275092 0.189831 0.213667
275 2 0.346576 0.136779 0.293591
276 2 0.618209 0.600997 0.35594
277 2 0.647445 0.890655 0.390734
278 2 0.54235 0.168811 0.998627
279 2 0.214504 0.393773 0.962027
280 2 0.0393289 0.133695 0.241513
281 2 0.0695811 0.148199 0.0189717
282 2 0.272921 0.754238 0.183187
283 2 0.431929 0.040559 0.103972
284 2 0.280348 0.388124 0.369254
285 2 0.373641 0.131596 0.122152
286 2 0.941169 0.889875 0.520225
287 2 0.293554 0.25094 0.071708
288 2 0.691392 0.0761925 0.250895
289 2 0.823313 0.368913 0.137295
290 2 0.115604 0.757939 0.44547
291 2 0.0524614 0.782145 0.572927
292 2 0.429877 0.126322 0.136519
293 2 0.0807901 0.931037 0.957814
294 2 0.310442 0.209205 0.647601
295 2 0.178338 0.39294 0.23637
296 2 0.104691 0.338459 0.255517
297 2 0.143993 0.364159 0.423222
298 2 0.167493 0.778927 0.433578
299 2 0.881619 0.362093 0.433735
300 2 0.152418 0.428715 0.593955
301 2 0.240727 0.419328 0.0732638
302 2 0.157985 0.0031658 0.976181
303 2 0.25624 0.238248 0.0691188
304 2 0.0898988 0.797586 0.349183
305 2 0.242884 0.211264 0.0915846
306 2 0.387866 0.331915 0.393009
307 2 0.818202 0.603678 0.672863
308 2 0.483733 0.802147 0.598985
309 2 0.901158 0.361352 0.0627334
310 2 0.2852 0.105701 0.909812
311 2 0.253705 0.459969 0.880428
312 2 0.961807 0.0533753 0.426574
313 2 0.156105 0.759912 0.136155
314 2 0.334105 0.0310871 0.342541
315 2 0.692929 0.944916 0.416944
316 2 0.548916 0.751771 0.0587735
317 2 0.429341 0.0259784 0.640406
318 2 0.137629 0.575412 0.145217
319 2 0.134136 0.488739 0.515495
320 2 0.568347 0.393501 0.305392
321 2 0.186738 0.492523 0.286761
322 2 0.506017 0.877371 0.431838
323 2 0.481355 0.0863047 0.445556
324 2 0.43423 0.124917 0.380154
325 2 0.402279 0.353046 0.917428
326 2 0.795565 0.449592 0.408461
327 2 0.185532 0.37472 0.976945
328 2 0.149933 0.312733 0.099663
329 2 0.0383417 0.330936 0.934745
330 2 0.179464 0.571311 0.735282
331 2 0.265425 0.349091 0.101386
332 2 0.32571 0.677138 0.924307
333 2 0.432347 0.35491 0.604028
334 2 0.971925 0.0892697 0.852267
335 2 0.339337 0.296597 0.058744
336 2 0.260668 0.344796 0.637556
337 2 0.196597 0.646938 0.55265
338 2 0.323711 0.989144 0.235813
339 2 0.310522 0.445702 0.380246
340 2 0.242566 0.996986 0.560773
341 2 0.0739143 0.291088 0.968544
342 2 0.85935 0.290245 0.982201
343 2 0.0938091 0.272294 0.856463
344 2 0.267097 0.345632 0.293902
345 2 0.51233 0.201218 0.301635
346 2 0.493289 0.755618 0.421179
347 2 0.620784 0.231948 0.896843
348 2 0.240556 0.270708 0.161524
349 2 0.460503 0.714578 0.289965
350 2 0.647797 0.143522 0.606546
351 2 0.0155356 0.210977 0.0473505
352 2 0.00124446 0.854974 0.507495
353 2 0.468936 0.595262 0.432336
354 2 0.382372 0.0396518 0.413064
355 2 0.0448189 0.33622 0.189992
356 2 0.304502 0.516527 0.461045
357 2 0.21402 0.707616 0.23441
358 2 0.0949379 0.650249 0.631538
359 2 0.235935 0.554445 0.0281337
360 2 0.233588 0.510546 0.924316
361 2 0.275534 0.153474 0.225432
362 2 0.228519 0.702642 0.542259
363 2 0.986966 0.878648 0.785983
364 2 0.0265519 0.855811 0.358889
365 2 0.157795 0.0525869 0.418242
366 2 0.409069 0.19479 0.516915
367 2 0.307655 0.756261 0.331341
368 2 0.0341625 0.260094 0.873317
369 2 0.304204 0.405715 0.101345
370 2 0.973792 0.835118 0.385334
371 2 0.337351 0.721388 0.372897
372 2 0.237558 0.0606729 0.825438
373 2 0.998739 0.0213945 0.312556
374 2 0.504427 0.0126014 0.478814
375 2 0.43474 0.323145 0.186962
376 2 0.163601 0.0973411 0.217698
377 2 0.149538 0.993474 0.457043
378 2 0.982221 0.213989 0.9668
379 2 0.869968 0.142487 0.246864
380 2 0.582498 0.171252 0.0661238
381 2 0.422766 0.611715 0.99961
382 2 0.400684 0.86576 0.718905
383 2 0.0103855 0.306135 0.0241413
384 2 0.541099 0.220161 0.32071
385 2 0.191853 0.271157 0.207551
386 2 0.647341 0.0566322 0.112174
387 2 0.197113 0.116784 0.149059
388 2 0.610616 0.262404 0.407265
389 2 0.461141 0.997031 0.439537
390 2 0.938107 0.371305 0.0226105
391 2 0.221316 0.303636 0.410175
392 2 0.132159 0.203285 0.0106244
393 2 0.409725 0.534546 0.522263
394 2 0.0926557 0.0218795 0.215828
395 2 0.392679 0.414086 0.503636
396 2 0.192896 0.268182 0.527814
397 2 0.961558 0.755203 0.433126
398 2 0.320798 0.471578 0.857198
399 2 0.28853 0.0173529 0.306073
400 2 0.225927 0.282927 0.714628
401 2 0.24868 0.206628 0.419196
402 2 0.166303 0.401541 0.841454
403 2 0.337773 0.765585 0.26271
404 2 0.427163 0.982026 0.47503
405 2 0.109846 0.253918 0.385288
406 2 0.94961 0.0744447 0.546617
407 2 0.0552093 0.473724 0.408352
408 2 0.393558 0.169004 0.0806154
409 2 0.284918 0.0184193 0.835588
410 2 0.130027 0.988476 0.604896
411 2 0.528715 0.963338 0.105146
412 2 0.943814 0.122243 0.28542
413 2 0.527994 0.136385 0.381285
414 2 0.0663182 0.374663 0.732097
415 2 0.63072 0.75269 0.331101
416 2 0.541047 0.682234 0.441553
417 2 0.334311 0.0696665 0.343171
418 2 0.396782 0.20491 0.114306
419 2 0.565511 0.879488 0.472845
420 2 0.875531 0.454818 0.0834029
421 2 0.043361 0.859154 0.244814
422 2 0.107466 0.486946 0.599885
423 2 0.0903801 0.783887 0.835934
424 2 0.994163 0.986959 0.2968
425 2 0.343756 0.0534229 0.175026
426 2 0.242723 0.794288 0.50205
427 2 0.378517 0.403993 0.578266
428 2 0.0723841 0.31184 0.0256542
429 2 0.0984808 0.271237 0.0847871
430 2 0.102097 0.42544 0.984263
431 2 0.269548 0.441078 0.547273
432 2 0.632537 0.969727 0.536686
433 2 0.432324 0.121827 0.466777
434 2 0.130249 0.329202 0.16181
435 2 0.21609 0.117331 0.834499
436 2 0.320947 0.634055 0.200307
437 2 0.308228 0.0194375 0.253711
438 2 0.834896 0.601958 0.160152
439 2 0.794308 0.111854 0.36124
440 2 0.418462 0.087953 0.972895
441 2 0.415733 0.363524 0.124018
442 2 0.212717 0.546826 0.00099687
443 2 0.539159 0.219229 0.0352258
444 2 0.310115 0.52735 0.650571
445 2 0.243718 0.312619 0.696283
446 2 0.171001 0.217348 0.735151
447 2 0.108108 0.247939 0.908147
448 2 0.413426 0.0776928 0.163945
449 2 0.307238 0.301045 0.642462
450 2 0.116058 0.943217 0.437681
451 2 0.856935 0.424623 0.500998
452 2 0.31133 0.153914 0.617349
453 2 0.398625 0.437953 0.451438
454 2 0.0483064 0.331336 0.450249
455 2 0.143462 0.624019 0.187327
456 2 0.802256 0.59244 0.175859
457 2 0.107829 0.974157 0.932731
458 2 0.336615 0.250958 0.885539
459 2 0.350366 0.112642 0.169973
460 2 0.403457 0.260338 0.644326
461 2 0.307679 0.196999 0.70364
462 2 0.582654 0.257276 0.208855
463 2 0.245874 0.389027 0.0271962
464 2 0.464872 0.364162 0.16145
465 2 0.321014 0.438965 0.307816
466 2 0.989118 0.323232 0.143255
467 2 0.413712 0.886822 0.407686
468 2 0.067857 0.869796 0.46526
469 2 0.350349 0.181728 0.14181
470 2 0.787554 0.199321 0.347913
471 2 0.991588 0.0812442 0.279174
472 2 0.511016 0.36137 0.504793
473 2 0.0988258 0.370208 0.23557
474 2 0.142816 0.286012 0.889961
475 2 0.375391 0.669998 0.357667
476 2 0.132978 0.258361 0.46337
477 2 0.707482 0.113315 0.805826
478 2 0.435715 0.331215 0.915241
479 2 0.104611 0.141581 0.0598008
480 2 0.0332377 0.949187 0.604
481 2 0.229441 0.252591 0.572783
482 2 0.270939 0.169891 0.371022
483 2 0.247629 0.139338 0.455346
484 2 0.597673 0.0179397 0.843142
485 2 0.530966 0.964713 0.45436
486 2 0.0340967 0.344206 0.250073
487 2 0.457549 0.487525 0.325752
488 2 0.380411 0.142155 0.560632
489 2 0.163057 0.320155 0.632199
490 2 0.276985 0.0532292 0.943049
491 2 0.170656 0.218549 0.190602
492 2 0.985779 0.0517186 0.454016
493 2 0.957551 0.557245 0.181068
494 2 0.28729 0.571728 0.0609508
495 2 0.0674739 0.441544 0.141793
496 2 0.878994 0.755364 0.889095
497 2 0.698241 0.317695 0.0547922
498 2 0.459902 0.690354 0.567681
499 2 0.996748 0.33388 0.982249
500 2 0.706571 0.0301225 0.412188
501 2 0.356068 0.308476 0.910816
502 2 0.723058 0.489438 0.0866703
503 2 0.511783 0.125154 0.486918
504 2 0.445483 0.482759 0.513974
505 2 0.330067 0.268704 0.961904
506 2 0.18787 0.443971 0.0902948
507 2 0.18458 0.409972 0.107249
508 2 0.0777134 0.0575745 0.0882658
509 2 0.742228 0.532847 0.471487
510 2 0.154966 0.135633 0.99211
511 2 0.364727 0.477426 0.151769
512 2 0.82144 0.349581 0.737573
513 2 0.69784 0.360756 0.391082
514 2 0.349256 0.0887939 0.98143
515 2 0.937867 0.295428 0.5156
516 2 0.587372 0.31399 0.946731
517 2 0.273939 0.148722 0.430398
518 2 0.0165681 0.100314 0.371761
519 2 0.242642 0.16029 0.508933
520 2 0.857983 0.419702 0.962105
521 2 0.959755 0.434582 0.683395
522 2 0.805627 0.291468 0.338265
523 2 0.898647 0.681643 0.39411
524 2 0.183097 0.428084 0.296502
525 2 0.469656 0.541026 0.256125
526 2 0.194622 0.287287 0.0318623
527 2 0.495426 0.270215 0.655675
528 2 0.976681 0.438719 0.946497
529 2 0.473499 0.321791 0.193355
530 2 0.0172981 0.517668 0.052891
531 2 0.237272 0.713276 0.761714
532 2 0.182617 0.288985 0.265224
533 2 0.156594 0.185887 0.0331809
534 2 0.274925 0.226808 0.473933
535 2 0.314926 0.152081 0.194951
536 2 0.0793944 0.649893 0.356505
537 2 0.83479 0.276871 0.119399
538 2 0.736399 0.9605 0.0868293
539 2 0.0817317 0.16754 0.252032
540 2 0.332604 0.1333 0.337081
541 2 0.317858 0.701611 0.848068
542 2 0.972246 0.424944 0.0129455
543 2 0.122489 0.330475 0.733564
544 2 0.49611 0.697755 0.291461
545 2 0.373699 0.585598 0.820245
546 2 0.327371 0.878179 0.2868
547 2 0.199191 0.00912939 0.403707
548 2 0.327315 0.0308662 0.985548
549 2 0.0927511 0.163978 0.865111
550 2 0.321941 0.153574 0.385076
551 2 0.0236794 0.188688 0.00117583
552 2 0.0405774 0.064088 0.0813955
553 2 0.122183 0.117626 0.69893
554 2 0.51383 0.257627 0.426238
555 2 0.419647 0.388937 0.870348
556 2 0.280505 0.236332 0.542698
557 2 0.0825645 0.335658 0.600667
558 2 0.234128 0.401793 0.274037
559 2 0.951805 0.325925 0.63447
560 2 0.336076 0.972251 0.475619
561 2 0.598792 0.90423 0.629137
562 2 0.445676 0.41192 0.379373
563 2 0.33441 0.0777632 0.40855
564 2 0.163258 0.419933 0.437912
565 2 0.358663 0.43095 0.627102
566 2 0.614434 0.938776 0.670155
567 2 0.0833811 0.0078935 0.454765
568 2 0.736181 0.148759 0.439394
569 2 0.0430603 0.380872 0.249999
570 2 0.540835 0.260039 0.169274
571 2 0.831806 0.253088 0.168783
572 2 0.845597 0.567054 0.50505
573 2 0.327624 0.369765 0.511871
574 2 0.0495382 0.538427 0.190143
575 2 0.309207 0.637194 0.46893
576 2 0.363946 0.640081 0.280334
577 2 0.149511 0.482437 0.276604
578 2 0.423858 0.37879 0.534955
579 2 0.316875 0.853124 0.624211
580 2 0.637246 0.91036 0.0623395
581 2 0.382409 0.994701 0.946179
582 2 0.40643 0.235508 0.589378
583 2 0.377378 0.400915 0.613042
584 2 0.516267 0.974743 0.302548
585 2 0.058057 0.1824 0.185067
586 2 0.24947 0.293155 0.38685
587 2 0.389264 0.2052 0.950233
588 2 0.049189 0.579203 0.96434
589 2 0.98595 0.244285 0.898426
590 2 0.131801 0.825594 0.477885
591 2 0.474777 0.0215878 0.0443541
592 2 0.377995 0.521962 0.815182
593 2 0.465857 0.203684 0.545986
594 2 0.0610126 0.241696 0.146753
595 2 0.255227 0.948387 0.638961
596 2 0.469697 0.204347 0.581152
597 2 0.290808 0.433241 0.49617
598 2 0.40128 0.99601 0.899549
599 2 0.827421 0.7206 0.137657
600 2 0.46187 0.214324 0.156082
601 2 0.373084 0.959884 0.257568
602 2 0.426189 0.183181 0.486835
603 2 0.281022 0.4417 0.963066
604 2 0.404737 0.391523 0.0810736
605 2 0.147445 0.31371 0.214889
606 2 0.711904 0.0374592 0.869298
607 2 0.400786 0.113775 0.024258
608 2 0.148305 0.0770309 0.245322
609 2 0.312405 0.12183 0.172786
610 2 0.93222 0.0473524 0.129687
611 2 0.0127264 0.222799 0.450712
612 2 0.15985 0.575692 0.0372686
613 2 0.145584 0.253812 0.396619
614 2 0.810814 0.667709 0.956544
615 2 0.162677 0.186142 0.889933
616 2 0.464445 0.241252 0.591145
617 2 0.311257 0.49039 0.567536
618 2 0.647762 0.681936 0.492931
619 2 0.277648 0.254572 0.448922
620 2 0.21944 0.162417 0.198534
621 2 0.188311 0.201104 0.0175522
622 2 0.28191 0.542975 0.155899
623 2 0.189729 0.166141 0.220156
624 2 0.958167 0.939458 0.277645
625 2 0.7789 0.279944 0.441297
626 2 0.945331 0.980575 0.336161
627 2 0.183787 0.819673 0.973538
628 2 0.389979 0.328138 0.0921429
629 2 0.602624 0.793536 0.555455
630 2 0.0164698 0.935933 0.434472
631 2 0.16604 0.095144 0.8014
632 2 0.384752 0.601847 0.995781
633 2 0.195796 0.0637109 0.340099
634 2 0.99673 0.490285 0.637317
635 2 0.243876 0.135888 0.212766
636 2 0.420761 0.96389 0.308213
637 2 0.732972 0.229958 0.52974
638 2 0.212794 0.140636 0.986363
639 2 0.129063 0.583282 0.809035
640 2 0.222063 0.889435 0.0249581
641 2 0.312381 0.124382 0.309214
642 2 0.307596 0.182087 0.365984
643 2 0.108803 0.673619 0.380123
644 2 0.2239 0.224802 0.513498
645 2 0.774081 0.477455 0.45827
646 2 0.365415 0.441986 0.577865
647 2 0.21331 0.224396 0.460681
648 2 0.98191 0.474622 0.161478
649 2 0.452318 0.0459759 0.469902
650 2 0.481648 0.390256 0.0706033
651 2 0.251616 0.209511 0.167992
652 2 0.953885 0.725771 0.023312
653 2 0.175496 0.940584 0.0387424
654 2 0.110967 0.932634 0.980975
655 2 0.886991 0.346977 0.700267
656 2 0.27581 0.425578 0.377619
657 2 0.217188 0.407105 0.186246
658 2 0.187768 0.560169 0.793036
659 2 0.380867 0.15889 0.146519
660 2 0.202122 0.350584 0.115186
661 2 0.277414 0.2455 0.366794
662 2 0.698339 0.607878 0.442447
663 2 0.197747 0.115748 0.479727
664 2 0.377389 0.312515 0.820494
665 2 0.34342 0.948245 0.0239361
666 2 0.849636 0.981263 0.140962
667 2 0.307694 0.555339 0.497676
668 2 0.0560208 0.957741 0.552507
669 2 0.312208 0.0713101 0.024997
670 2 0.461731 0.270667 0.129803
671 2 0.989478 0.17836 0.0884392
672 2 0.512526 0.231747 0.121725
673 2 0.0832179 0.235234 0.217792
674 2 0.196411 0.485482 0.505646
675 2 0.106995 0.682964 0.713415
676 2 0.0215756 0.668895 0.24966
677 2 0.468322 0.622566 0.483276
678 2 0.322108 0.119411 0.368803
679 2 0.580746 0.828666 0.389641
680 2 0.0348506 0.026157 0.117419
681 2 0.0580313 0.385648 0.490723
682 2 0.150473 0.201877 0.138256
683 2 0.603988 0.64234 0.162895
684 2 0.283113 0.605533 0.118069
685 2 0.094507 0.199004 0.96953
686 2 0.84751 0.223992 0.566318
687 2 0.258934 0.668484 0.251611
688 2 0.509891 0.514358 0.457978
689 2 0.376506 0.973485 0.91587
690 2 0.587817 0.402459 0.479631
691 2 0.603876 0.656361 0.211395
692 2 0.0980764 0.405125 0.410072
693 2 0.508361 0.365865 0.940227
694 2 0.179745 0.799034 0.00464035
695 2 0.580399 0.162399 0.585051
696 2 0.598361 0.388058 0.175965
697 2 0.363375 0.313433 0.416767
698 2 0.266424 0.878566 0.315247
699 2 0.767662 0.153617 0.265115
700 2 0.367893 0.269534 0.123976
701 2 0.310219 0.795059 0.447487
702 2 0.383316 0.295852 0.762194
703 2 0.183745 0.11054 0.540707
704 2 0.148138 0.154443 0.184752
705 2 0.338641 0.314127 0.177394
706 2 0.499536 0.1105 0.725297
707 2 0.224364 0.23106 0.117689
708 2 0.252597 0.362559 0.379065
709 2 0.349258 0.961633 0.774812
710 2 0.0847931 0.484605 0.253784
711 2 0.48469 0.107932 0.112758
712 2 0.504666 0.195281 0.95237
713 2 0.848928 0.604432 0.612091
714 2 0.0359582 0.585021 0.311809
715 2 0.24217 0.781467 0.302077
716 2 0.486971 0.364492 0.35563
717 2 0.280107 0.0740723 0.971999
718 2 0.183172 0.252495 0.272793
719 2 0.975503 0.896325 0.734963
720 2 0.0778288 0.134405 0.371211
721 2 0.167712 0.157664 0.809155
722 2 0.572095 0.241337 0.446945
723 2 0.476023 0.250813 0.0801603
724 2 0.307131 0.280654 0.990949
725 2 0.304302 0.448484 0.160157
726 2 0.361535 0.213638 0.125092
727 2 0.3032 0.360416 0.147973
728 2 0.0356854 0.813863 0.558945
729 2 0.22639 0.365838 0.509001
730 2 0.135887 0.648803 0.213652
731 2 0.548911 0.336399 0.831676
732 2 0.915679 0.266257 0.0248505
733 2 0.497754 0.195949 0.38995
734 2 0.434844 0.387954 0.103626
735 2 0.515396 0.131853 0.0511689
736 2 0.935511 0.0780578 0.0826228
737 2 0.879554 0.0687101 0.295326
738 2 0.0118204 0.36053 0.419922
739 2 0.916841 0.339974 0.985143
740 2 0.346048 0.608581 0.703768
741 2 0.425662 0.16085 0.390816
742 2 0.038109 0.443267 0.0555601
743 2 0.452577 0.44486 0.194856
744 2 0.154943 0.197258 0.255518
745 2 0.248963 0.0138667 0.148676
746 2 0.00741748 0.362246 0.521218
747 2 0.357714 0.00763633 0.229722
748 2 0.417521 0.231285 0.0975179
749 2 0.0953576 0.148324 0.992857
750 2 0.102076 0.0352922 0.338616
751 2 0.184172 0.293693 0.158092
752 2 0.428516 0.563621 0.72097
753 2 0.977091 0.243765 0.397593
754 2 0.145746 0.576262 0.510347
755 2 0.193106 0.110927 0.255748
756 2 0.240248 0.952977 0.254341
757 2 0.269239 0.135095 0.864382
758 2 0.985132 0.229658 0.115712
759 2 0.0702617 0.546746 0.552132
760 2 0.119649 0.223877 0.216205
761 2 0.426976 0.901934 0.970188
762 2 0.354628 0.130752 0.4476
763 2 0.411534 0.320018 0.476128
764 2 0.300559 0.921323 0.361393
765 2 0.524408 0.698124 0.551166
766 2 0.000776206 0.361457 0.00721053
767 2 0.669783 0.329355 0.120539
768 2 0.39793 0.131198 0.333226
769 2 0.449714 0.395649 0.510321
770 2 0.600928 0.533979 0.209872
771 2 0.162816 0.423452 0.158238
772 2 0.48913 0.0436536 0.125131
773 2 0.257695 0.148024 0.109803
774 2 0.668093 0.214812 0.386445
775 2 0.20769 0.113105 0.870396
776 2 0.27876 0.0031723 0.336939
777 2 0.156601 0.257973 0.988711
778 2 0.117315 0.335882 0.421844
779 2 0.429419 0.247755 0.36447
780 2 0.336039 0.233437 0.478628
781 2 0.312041 0.250195 0.102233
782 2 0.865315 0.1341 0.0317463
783 2 0.224897 0.47087 0.166222
784 2 0.485484 0.524034 0.0624091
785 2 0.376435 0.140373 0.857957
786 2 0.15674 0.536676 0.00185153
787 2 0.232274 0.861949 0.510998
788 2 0.233312 0.116428 0.403947
789 2 0.0151944 0.149953 0.517266
790 2 0.681301 0.36465 0.423337
791 2 0.230827 0.193086 0.448772
792 2 0.266998 0.128008 0.502104
793 2 0.432572 0.328048 0.341382
794 2 0.199359 0.605995 0.951257
795 2 0.282004 0.123724 0.562369
796 2 0.514024 0.247008 0.550514
797 2 0.281453 0.0643485 0.208325
798 2 0.427529 0.214267 0.430123
799 2 0.315795 0.551476 0.139038
800 2 0.494121 0.0985896 0.0548972
801 2 0.303272 0.189541 0.189192
802 2 0.612306 0.514527 0.315882
803 2 0.158349 0.383332 0.26475
804 2 0.118932 0.632473 0.242054
805 2 0.433222 0.340959 0.541445
806 2 0.539466 0.365802 0.0871782
807 2 0.54042 0.195378 0.277569
808 2 0.23927 0.00847072 0.23015
809 2 0.0505213 0.132006 0.430133
810 2 0.152287 0.272746 0.148648
811 2 0.0379067 0.680396 0.216017
812 2 0.220699 0.359071 0.543729
813 2 0.874836 0.924945 0.830825
814 2 0.945397 0.175667 0.40369
815 2 0.288245 0.939945 0.305216
816 2 0.154934 0.325686 0.993494
817 2 0.556548 0.983774 0.298954
818 2 0.999305 0.251701 0.14052
819 2 0.169561 0.901814 0.524468
820 2 0.202553 0.290378 0.128806
821 2 0.689831 0.50035 0.104214
822 2 0.102752 0.293338 0.292425
823 2 0.150173 0.929892 0.799461
824 2 0.641003 0.0811127 0.413755
825 2 0.0883111 0.778871 0.561392
826 2 0.53638 0.764865 0.00293401
827 2 0.132734 0.267858 0.178883
828 2 0.0537718 0.283053 0.263491
829 2 0.379852 0.907381 0.081709
830 2 0.957903 0.386989 0.974216
831 2 0.00344342 0.546947 0.743628
832 2 0.903071 0.694517 0.733006
833 2 0.941467 0.163779 0.436863
834 2 1.71677e-05 0.44486 0.408758
835 2 0.447675 0.248195 0.95949
836 2 0.301371 0.216224 0.381597
837 2 0.951438 0.12512 0.11837
838 2 0.313813 0.925312 0.328002
839 2 0.479523 0.129337 0.356759
840 2 0.114474 0.515493 0.95721
841 2 0.22725 0.204393 0.729471
842 2 0.0214902 0.923549 0.00152829
843 2 0.0346268 0.385931 0.0735581
844 2 0.582563 0.974433 0.130276
845 2 0.685118 0.383971 0.545964
846 2 0.219248 0.940723 0.942239
847 2 0.990018 0.171068 0.731259
848 2 0.918198 0.245627 0.134643
849 2 0.145986 0.429171 0.304902
850 2 0.110002 0.295858 0.544241
851 2 0.0325147 0.1995 0.500847
852 2 0.489359 0.233448 0.381279
853 2 0.373608 0.959655 0.0969615
854 2 0.0838584 0.126731 0.175258
855 2 0.883547 0.97924 0.520987
856 2 0.358953 0.262049 0.489752
857 2 0.227464 0.0424111 0.347208
858 2 0.255028 0.207395 0.591168
859 2 0.44507 0.392292 0.326868
860 2 0.0426638 0.212255 0.0226039
861 2 0.403408 0.283475 0.0494221
862 2 0.483368 0.358953 0.190786
863 2 0.788238 0.606992 0.281836
864 2 0.184594 0.331145 0.171407
865 2 0.209035 0.171816 0.524763
866 2 0.357254 0.560103 0.45175
867 2 0.15028 0.767363 0.326343
868 2 0.489748 0.345037 0.408217
869 2 0.240162 0.391352 0.0971863
870 2 0.160427 0.0962529 0.274091
871 2 0.534134 0.261499 0.134503
872 2 0.0827 0.368861 0.147138
873 2 0.532447 0.440616 0.375911
874 2 0.44413 0.907129 0.420799
875 2 0.185258 0.0426547 0.729986
876 2 0.67679 0.112915 0.0804392
877 2 0.0163435 0.807013 0.204669
878 2 0.193364 0.137197 0.0432344
879 2 0.66064 0.889814 0.509208
880 2 0.850571 0.779134 0.0808502
881 2 0.183008 0.982103 0.503408
882 2 0.385191 0.616202 0.334407
883 2 0.319228 0.241784 0.221052
884 2 0.317691 0.282938 0.828383
885 2 0.0194704 0.30454 0.990312
886 2 0.104734 0.162444 0.224819
887 2 0.309043 0.0412611 0.222972
888 2 0.302846 0.16652 0.450889
889 2 0.192154 0.99006 0.201429
890 2 0.0425293 0.303602 0.170176
891 2 0.774896 0.897386 0.940052
892 2 0.253417 0.253084 0.206801
893 2 0.347075 0.220399 0.904865
894 2 0.00728084 0.452636 0.0745605
895 2 0.210963 0.302723 0.218957
896 2 0.121989 0.397707 0.1068
897 2 0.923931 0.404917 0.976241
898 2 0.27922 0.340222 0.478913
899 2 0.240347 0.917328 0.271612
900 2 0.220166 0.0533523 0.528513
901 2 0.200937 0.589503 0.540255
902 2 0.271474 0.0203561 0.00906231
903 2 0.184446 0.339762 0.453892