 vasp.6.5.0 16Dec24 (build Jan 20 2025 08:32:48) complex                         
 executed on        HPECrayEX_GCC date 2025.07.21  14:55:27
 running  128 mpi-ranks, with    1 threads/rank, on    1 nodes
 distrk:  each k-point on  128 cores,    1 groups
 distr:  one band on NCORE=  16 cores,    8 groups


--------------------------------------------------------------------------------------------------------


 INCAR:
   SYSTEM = a-Si SPC
   NCORE = 16
   ISTART = 1
   ICHARG = 1
   ISPIN = 1
   ISYM = 1
   EDIFF = 1E-6
   NELM = 150
   EDIFFG = -0.01
   NSW = 0
   ISIF = 2
   IBRION = -1
   PREC = Accurate
   ENCUT = 1200
   KSPACING = 0.23
   KGAMMA = .TRUE.
   METAGGA = SCAN
   LASPH = .TRUE.
   LDIAG = .FALSE.
   LMIXTAU = .TRUE.
   ADDGRID = .TRUE.
   ALGO = Normal
   ISMEAR = 0
   SIGMA = 0.1
   LORBIT = 11
   NEDOS = 2000
   LWAVE = .FALSE.
   LCHARG = .FALSE.

 POTCAR:    PAW_PBE H 15Jun2001                   
 POTCAR:    PAW_PBE Si 05Jan2001                  
 POTCAR:    PAW_PBE H 15Jun2001                   
   SHA256 =  030f79b5d3ab3cf0e668861823c8fb652ff669f3e15e46930bd03bfd63a607b6 H/POTCAR              
   COPYR  = (c) Copyright 15Jun2001 Georg Kresse                                                    
   COPYR  = This file is part of the software VASP. Any use, copying, and all other rights are regul
   COPYR  = If you do not have a valid VASP license, you may not use, copy or distribute this file. 
   VRHFIN =H: ultrasoft test                                                                        
   LEXCH  = PE                                                                                      
   EATOM  =    12.4884 eV,    0.9179 Ry                                                             
                                                                                                    
   TITEL  = PAW_PBE H 15Jun2001                                                                     
   LULTRA =        F    use ultrasoft PP ?                                                          
   IUNSCR =        0    unscreen: 0-lin 1-nonlin 2-no                                               
   RPACOR =    0.000    partial core radius                                                         
   POMASS =    1.000; ZVAL   =    1.000    mass and valenz                                          
   RCORE  =    1.100    outmost cutoff radius                                                       
   RWIGS  =    0.700; RWIGS  =    0.370    wigner-seitz radius (au A)                               
   ENMAX  =  250.000; ENMIN  =  200.000 eV                                                          
   RCLOC  =    0.701    cutoff for local pot                                                        
   LCOR   =        T    correct aug charges                                                         
   LPAW   =        T    paw PP                                                                      
   EAUG   =  400.000                                                                                
   RMAX   =    1.123    core radius for proj-oper                                                   
   RAUG   =    1.200    factor for augmentation sphere                                              
   RDEP   =    1.112    radius for radial grids                                                     
   RDEPT  =    0.926    core radius for aug-charge                                                  
                                                                                                    
   Atomic configuration                                                                             
    2 entries                                                                                       
     n  l   j            E        occ.                                                              
     1  0  0.50        -6.4927   1.0000                                                             
     2  1  0.50        -3.4015   0.0000                                                             
   Description                                                                                      
     l       E           TYP  RCUT    TYP  RCUT                                                     
     0     -6.4927494     23  1.100                                                                 
     0      6.8029130     23  1.100                                                                 
     1     -4.0817478     23  1.100                                                                 
  local pseudopotential read in
  atomic valenz-charges read in
  non local Contribution for L=           0  read in
    real space projection operators read in
  non local Contribution for L=           0  read in
    real space projection operators read in
  non local Contribution for L=           1  read in
    real space projection operators read in
    PAW grid and wavefunctions read in

   number of l-projection  operators is LMAX  =           3
   number of lm-projection operators is LMMAX =           5

 POTCAR:    PAW_PBE Si 05Jan2001                  
   SHA256 =  79d9987ad8750f624c4d6acb2a16d13abf6a777132adc04dc6c8399be72b42bb Si/POTCAR             
   COPYR  = (c) Copyright 05Jan2001 Georg Kresse                                                    
   COPYR  = This file is part of the software VASP. Any use, copying, and all other rights are regul
   COPYR  = If you do not have a valid VASP license, you may not use, copy or distribute this file. 
   VRHFIN =Si: s2p2                                                                                 
   LEXCH  = PE                                                                                      
   EATOM  =   103.0669 eV,    7.5752 Ry                                                             
                                                                                                    
   TITEL  = PAW_PBE Si 05Jan2001                                                                    
   LULTRA =        F    use ultrasoft PP ?                                                          
   IUNSCR =        1    unscreen: 0-lin 1-nonlin 2-no                                               
   RPACOR =    1.500    partial core radius                                                         
   POMASS =   28.085; ZVAL   =    4.000    mass and valenz                                          
   RCORE  =    1.900    outmost cutoff radius                                                       
   RWIGS  =    2.480; RWIGS  =    1.312    wigner-seitz radius (au A)                               
   ENMAX  =  245.345; ENMIN  =  184.009 eV                                                          
   ICORE  =        2    local potential                                                             
   LCOR   =        T    correct aug charges                                                         
   LPAW   =        T    paw PP                                                                      
   EAUG   =  322.069                                                                                
   DEXC   =    0.000                                                                                
   RMAX   =    1.950    core radius for proj-oper                                                   
   RAUG   =    1.300    factor for augmentation sphere                                              
   RDEP   =    1.993    radius for radial grids                                                     
   RDEPT  =    1.837    core radius for aug-charge                                                  
                                                                                                    
   Atomic configuration                                                                             
    6 entries                                                                                       
     n  l   j            E        occ.                                                              
     1  0  0.50     -1785.8828   2.0000                                                             
     2  0  0.50      -139.4969   2.0000                                                             
     2  1  1.50       -95.5546   6.0000                                                             
     3  0  0.50       -10.8127   2.0000                                                             
     3  1  0.50        -4.0811   2.0000                                                             
     3  2  1.50        -4.0817   0.0000                                                             
   Description                                                                                      
     l       E           TYP  RCUT    TYP  RCUT                                                     
     0    -10.8127223     23  1.900                                                                 
     0     -7.6451159     23  1.900                                                                 
     1     -4.0811372     23  1.900                                                                 
     1      2.4879257     23  1.900                                                                 
     2     -4.0817478      7  1.900                                                                 
  local pseudopotential read in
  partial core-charges read in
  partial kinetic energy density read in
  atomic valenz-charges read in
  non local Contribution for L=           0  read in
    real space projection operators read in
  non local Contribution for L=           0  read in
    real space projection operators read in
  non local Contribution for L=           1  read in
    real space projection operators read in
  non local Contribution for L=           1  read in
    real space projection operators read in
    PAW grid and wavefunctions read in

   number of l-projection  operators is LMAX  =           4
   number of lm-projection operators is LMMAX =           8

 -----------------------------------------------------------------------------
|                                                                             |
|               ----> ADVICE to this user running VASP <----                  |
|                                                                             |
|     You have a (more or less) 'large supercell' and for larger cells it     |
|     might be more efficient to use real-space projection operators.         |
|     Therefore, try LREAL= Auto in the INCAR file.                           |
|     Mind: For very accurate calculation, you might also keep the            |
|     reciprocal projection scheme (i.e. LREAL=.FALSE.).                      |
|                                                                             |
 -----------------------------------------------------------------------------

 -----------------------------------------------------------------------------
|                                                                             |
|               ----> ADVICE to this user running VASP <----                  |
|                                                                             |
|     You enforced a specific xc type in the INCAR file but a different       |
|     type was found in the POTCAR file.                                      |
|     I HOPE YOU KNOW WHAT YOU ARE DOING!                                     |
|                                                                             |
 -----------------------------------------------------------------------------

  PAW_PBE H 15Jun2001                   :
 energy of atom  1       EATOM=  -12.4884
 kinetic energy error for atom=    0.0000 (will be added to EATOM!!)
  PAW_PBE Si 05Jan2001                  :
 energy of atom  2       EATOM= -103.0669
 kinetic energy error for atom=    0.0001 (will be added to EATOM!!)


 POSCAR:  H Si
  positions in cartesian coordinates
  No initial velocities read in


 exchange-correlation table for SCAN
   RHO(1)=    0.500       N(1)  =     2000
   RHO(2)=  100.500       N(2)  =     4000



--------------------------------------------------------------------------------------------------------


 ion  position               nearest neighbor table
   1  0.494  0.591  0.477-  93 1.43
   2  0.418  0.051  0.376-
   3  0.783  0.013  0.422-  39 0.80
   4  0.646  0.040  0.438-  82 1.46
   5  0.660  0.592  0.434-  62 1.49
   6  0.611  0.505  0.475-  37 0.80
   7  0.594  0.623  0.492-  42 0.77
   8  0.627  0.325  0.417-  18 0.81
   9  0.512  0.337  0.451-  47 1.56
  10  0.442  0.845  0.357-  30 0.72
  11  0.581  0.735  0.432- 103 1.45
  12  0.468  0.214  0.424-  29 0.74
  13  0.269  0.105  0.369-
  14  0.378  0.582  0.402-  51 1.46
  15  0.397  0.336  0.401-  75 1.45
  16  0.697  0.017  0.529-  41 0.70
  17  0.754  0.882  0.501-  26 0.74
  18  0.666  0.309  0.436-   8 0.81
  19  0.601  0.806  0.494-  23 0.83
  20  0.540  0.572  0.399-  61 1.56
  21  0.343  0.159  0.431-  68 1.54
  22  0.398  0.991  0.458-  54 1.48
  23  0.624  0.811  0.521-  19 0.83
  24  0.567  0.987  0.376-  52 1.66
  25  0.470  0.859  0.445- 103 1.46
  26  0.727  0.918  0.489-  17 0.74
  27  0.315  0.895  0.425-  36 0.76
  28  0.458  0.114  0.488- 101 1.45
  29  0.444  0.215  0.402-  12 0.74
  30  0.453  0.893  0.358-  10 0.72
  31  0.547  0.957  0.517-  32 0.84
  32  0.597  0.978  0.507-  31 0.84
  33  0.579  0.827  0.388-  52 1.66
  34  0.691  0.793  0.447-  60 1.48
  35  0.449  0.727  0.489- 103 1.50
  36  0.333  0.879  0.402-  27 0.76
  37  0.605  0.453  0.469-   6 0.80
  38  0.541  0.413  0.385-  61 1.50
  39  0.789  0.989  0.447-   3 0.80
  40  0.598  0.181  0.418-  82 1.43
  41  0.718  0.048  0.513-  16 0.70
  42  0.592  0.654  0.514-   7 0.77
  43  0.380  0.342  0.528- 110 2.22  46 2.26 112 2.26  47 2.30
  44  0.086  0.570  0.540- 120 2.30  83 2.36  72 2.40  86 2.41
  45  0.682  0.231  0.593- 102 2.25  80 2.31  67 2.50 114 2.57
  46  0.263  0.242  0.523-  68 2.24  43 2.26 124 2.38  85 2.39
  47  0.527  0.309  0.503-   9 1.56 101 2.28  43 2.30 114 2.40
  48  0.630  0.509  0.569-  98 2.28 114 2.31 116 2.36 115 2.41
  49  0.866  0.198  0.380-  95 2.33 100 2.42
  50  0.338  0.705  0.530-  88 2.36  64 2.36  93 2.40  76 2.49  73 3.00
  51  0.383  0.680  0.394-  14 1.46 103 2.35  56 2.38
  52  0.645  0.908  0.365-  24 1.66  33 1.66  60 2.35
  53  0.822  0.440  0.426- 118 2.37  87 2.39  62 2.42
  54  0.380  0.976  0.508-  22 1.48  76 2.27  78 2.38  85 2.48
  55  0.911  0.367  0.544-  59 2.19 123 2.25  87 2.32  72 2.42
  56  0.236  0.744  0.411-  58 2.25  88 2.34  51 2.38
  57  0.061  0.897  0.647-  89 2.34 113 2.39
  58  0.165  0.606  0.408-  56 2.25  92 2.38  86 2.38
  59  0.039  0.319  0.512- 106 2.14  55 2.19  94 2.36 124 2.38
  60  0.755  0.839  0.414-  34 1.48  99 2.31  52 2.35  91 2.48
  61  0.538  0.501  0.358-  38 1.50  20 1.56
  62  0.762  0.594  0.432-   5 1.49  84 2.28  91 2.36  53 2.42
  63  0.764  0.767  0.549- 119 2.26  96 2.33 115 2.37  84 2.52
  64  0.262  0.690  0.603-  73 2.30 120 2.36  50 2.36
  65  0.961  0.730  0.464-  99 2.26  92 2.27  83 2.29  84 2.33
  66  0.943  0.952  0.505- 119 2.24  99 2.25  90 2.29 111 2.39
  67  0.574  0.098  0.582- 107 2.32 125 2.33 101 2.40  45 2.50
  68  0.249  0.175  0.453-  21 1.54  70 2.24  46 2.24 109 2.29
  69  0.477  0.652  0.636- 116 2.28  79 2.30
  70  0.187  0.287  0.409-  68 2.24 106 2.31  75 2.36  95 2.95
  71  0.846  0.998  0.606-  97 2.30 119 2.34 125 2.41  80 3.09
  72  0.926  0.531  0.535- 105 2.34  44 2.40  55 2.42  84 2.43
  73  0.277  0.847  0.599- 113 2.24  64 2.30  78 2.40  76 2.43  50 3.00
  74  0.446  0.289  0.650- 112 2.29 102 2.34 107 2.37
  75  0.313  0.389  0.406-  15 1.45  70 2.36 110 2.45
  76  0.416  0.850  0.552-  79 2.26  54 2.27  73 2.43  50 2.49  78 2.83
  77  0.963  0.687  0.646- 105 2.30  89 2.30
  78  0.238  0.902  0.523-  88 2.23 111 2.32  54 2.38  73 2.40  76 2.83  81 3.08 109 3.09
  79  0.518  0.792  0.604-  76 2.26  96 2.28  69 2.30
  80  0.817  0.202  0.632- 123 2.27  97 2.30  45 2.31  71 3.09
  81  0.182  0.066  0.585- 113 2.16 104 2.21  85 2.32 111 2.39  78 3.08
  82  0.651  0.136  0.453-  40 1.43   4 1.46 101 2.18 100 2.24
  83  0.074  0.728  0.520-  88 2.23  65 2.29  44 2.36  89 2.43
  84  0.837  0.650  0.496-  62 2.28  65 2.33  72 2.43  63 2.52
  85  0.325  0.106  0.557-  81 2.32 107 2.39  46 2.39  54 2.48
  86  0.174  0.511  0.475- 106 2.31 110 2.35  58 2.38  44 2.41
  87  0.793  0.340  0.491- 100 2.30 114 2.31  55 2.32  53 2.39
  88  0.210  0.766  0.491-  83 2.23  78 2.23  56 2.34  50 2.36
  89  0.008  0.794  0.591- 119 2.29  77 2.30  57 2.34  83 2.43
  90  0.898  0.102  0.501-  94 2.29  66 2.29  97 2.34 100 2.47
  91  0.783  0.696  0.369- 122 2.28  62 2.36  60 2.48
  92  0.002  0.618  0.413-  65 2.27 122 2.32 118 2.32  58 2.38
  93  0.417  0.568  0.506-   1 1.43 110 2.22 116 2.33  50 2.40
  94  0.027  0.175  0.474-  95 2.25  90 2.29  59 2.36 109 2.41
  95  0.021  0.175  0.396-  94 2.25  49 2.33 117 2.38  70 2.95
  96  0.668  0.834  0.605-  79 2.28  63 2.33 125 2.35 115 3.04
  97  0.916  0.130  0.581-  71 2.30  80 2.30  90 2.34 104 2.38
  98  0.650  0.459  0.644- 102 2.24  48 2.28 115 3.14
  99  0.900  0.866  0.443-  66 2.25  65 2.26 121 2.31  60 2.31
 100  0.791  0.199  0.455-  82 2.24  87 2.30  49 2.42  90 2.47
 101  0.542  0.153  0.505-  28 1.45  82 2.18  47 2.28  67 2.40
 102  0.605  0.313  0.647-  98 2.24  45 2.25  74 2.34
 103  0.486  0.759  0.443-  11 1.45  25 1.46  35 1.50  51 2.35
 104  0.072  0.166  0.599-  81 2.21 124 2.34  97 2.38
 105  0.870  0.583  0.607- 115 2.28  77 2.30  72 2.34
 106  0.093  0.385  0.451-  59 2.14 118 2.24  86 2.31  70 2.31
 107  0.435  0.141  0.616-  67 2.32  74 2.37  85 2.39
 108  0.231  0.410  0.614- 124 2.33 120 2.33 112 2.37
 109  0.146  0.060  0.468- 117 2.22 111 2.23  68 2.29  94 2.41  78 3.09
 110  0.324  0.455  0.484-  93 2.22  43 2.22  86 2.35  75 2.45
 111  0.098  0.978  0.529- 109 2.23  78 2.32  81 2.39  66 2.39
 112  0.392  0.402  0.601-  43 2.26  74 2.29 108 2.37 116 2.38
 113  0.210  0.963  0.638-  81 2.16  73 2.24  57 2.39
 114  0.666  0.368  0.537-  48 2.31  87 2.31  47 2.40  45 2.57
 115  0.726  0.635  0.593- 105 2.28  63 2.37  48 2.41  96 3.04  98 3.14
 116  0.472  0.538  0.581-  69 2.28  93 2.33  48 2.36 112 2.38
 117  0.085  0.025  0.399- 121 2.19 109 2.22  95 2.38
 118  0.981  0.460  0.413- 106 2.24  92 2.32  53 2.37
 119  0.880  0.867  0.562-  66 2.24  63 2.26  89 2.29  71 2.34
 120  0.171  0.557  0.607-  44 2.30 108 2.33  64 2.36
 121  0.965  0.943  0.380- 117 2.19  99 2.31
 122  0.935  0.693  0.350-  91 2.28  92 2.32
 123  0.879  0.342  0.620-  55 2.25  80 2.27
 124  0.146  0.300  0.574- 108 2.33 104 2.34  59 2.38  46 2.38
 125  0.682  0.994  0.611-  67 2.33  96 2.35  71 2.41

  LATTYP: Found a simple tetragonal cell.
 ALAT       =    14.5791451707
 C/A-ratio  =     1.9576853009
  
  Lattice vectors:
  
 A1 = (  14.5791451707,   0.0000000000,   0.0000000000)
 A2 = (   0.0000000000,  14.5791451707,   0.0000000000)
 A3 = (   0.0000000000,   0.0000000000,  28.5413782000)


Analysis of symmetry for initial positions (statically):
=====================================================================
 Subroutine PRICEL returns:
 Original cell was already a primitive cell.
 

 Routine SETGRP: Setting up the symmetry group for a 
 simple tetragonal supercell.


 Subroutine GETGRP returns: Found  1 space group operations
 (whereof  1 operations were pure point group operations)
 out of a pool of 16 trial point group operations.


The static configuration has the point symmetry C_1 .


Analysis of symmetry for dynamics (positions and initial velocities):
=====================================================================
 Subroutine PRICEL returns:
 Original cell was already a primitive cell.
 

 Routine SETGRP: Setting up the symmetry group for a 
 simple tetragonal supercell.


 Subroutine GETGRP returns: Found  1 space group operations
 (whereof  1 operations were pure point group operations)
 out of a pool of 16 trial point group operations.


The dynamic configuration has the point symmetry C_1 .


 Subroutine INISYM returns: Found  1 space group operations
 (whereof  1 operations are pure point group operations),
 and found     1 'primitive' translations


----------------------------------------------------------------------------------------

                                     Primitive cell                                     

  volume of cell :    6066.5120

  direct lattice vectors                    reciprocal lattice vectors
    14.579145171  0.000000000  0.000000000     0.068591127  0.000000000  0.000000000
     0.000000000 14.579145171  0.000000000     0.000000000  0.068591127  0.000000000
     0.000000000  0.000000000 28.541378200     0.000000000  0.000000000  0.035036850

  length of vectors
    14.579145171 14.579145171 28.541378200     0.068591127  0.068591127  0.035036850

  position of ions in fractional coordinates (direct lattice)
     0.493502185  0.591079923  0.477413463
     0.417794729  0.051442591  0.376385756
     0.783242081  0.013430691  0.421940669
     0.646438450  0.040388239  0.438152219
     0.659668992  0.591906446  0.433863358
     0.610557059  0.505287513  0.475400946
     0.594153491  0.623197718  0.492202517
     0.626600524  0.324840719  0.417176358
     0.511923704  0.337400440  0.450713631
     0.442079417  0.845227882  0.357343403
     0.580808401  0.734508085  0.432117122
     0.468320325  0.213699772  0.424341394
     0.269203026  0.105145397  0.368806024
     0.378435768  0.581552615  0.402466136
     0.396691982  0.335722015  0.400894033
     0.697228807  0.017140374  0.528657660
     0.753871360  0.882363119  0.501410902
     0.665523245  0.309238295  0.435920722
     0.601406317  0.805973180  0.494290363
     0.539710656  0.571700872  0.399079474
     0.343291046  0.159175999  0.430856496
     0.398048029  0.991381856  0.458013559
     0.623699119  0.810568786  0.521047656
     0.567013354  0.987403571  0.376218735
     0.470473400  0.858527702  0.444778038
     0.726963061  0.917996209  0.489189348
     0.314873742  0.894867281  0.425146190
     0.457718880  0.113877047  0.487777013
     0.443827805  0.214594886  0.401614040
     0.453003926  0.893214235  0.357736131
     0.546573198  0.957100011  0.516553479
     0.596726344  0.977512730  0.506585495
     0.579247267  0.827263866  0.388434578
     0.691425998  0.792680220  0.446912133
     0.449094232  0.727100243  0.488603882
     0.333405007  0.879331391  0.401623500
     0.605459367  0.452547109  0.468651798
     0.540794396  0.412538591  0.385191567
     0.788866553  0.989159504  0.447070850
     0.598206541  0.181457141  0.417531631
     0.717861018  0.047926953  0.512936975
     0.591665691  0.653589760  0.514385048
     0.380440001  0.342256692  0.527993361
     0.085526962  0.570482007  0.539664136
     0.681549562  0.230682935  0.592720789
     0.262568207  0.242163032  0.523265138
     0.527000034  0.309190282  0.503001225
     0.629700157  0.509482546  0.568701626
     0.865777784  0.198149478  0.379661421
     0.337697440  0.704814986  0.530249384
     0.382920942  0.680067307  0.394247892
     0.645327959  0.908112228  0.365031609
     0.822023504  0.440250778  0.425984271
     0.380353576  0.976024303  0.508374126
     0.910828436  0.366904228  0.544079129
     0.235754563  0.743541536  0.410718015
     0.060868726  0.897034761  0.647029659
     0.164831338  0.606356538  0.407568903
     0.038559188  0.319332166  0.511621341
     0.754907086  0.838732303  0.413794601
     0.538373129  0.500824288  0.357915659
     0.761773058  0.594156921  0.432168626
     0.764201184  0.767342658  0.549033690
     0.262149115  0.689985584  0.603107463
     0.961009705  0.729912479  0.464422850
     0.943093703  0.952031126  0.504961186
     0.574008963  0.098304803  0.582445532
     0.248531718  0.174970478  0.452891171
     0.476975839  0.652395589  0.635810159
     0.187258578  0.286857696  0.409001209
     0.846195017  0.997836281  0.606219436
     0.926096821  0.531453656  0.534974453
     0.277355082  0.847066125  0.599469937
     0.446244270  0.289385279  0.649631495
     0.312654819  0.388571479  0.406023427
     0.415963346  0.850358499  0.551944552
     0.962518710  0.687427135  0.645518169
     0.237863054  0.902453460  0.523025836
     0.517585216  0.791788535  0.603964815
     0.817201548  0.201554341  0.631769709
     0.181594323  0.065640748  0.584955221
     0.650752146  0.136090969  0.453150794
     0.073989249  0.727580381  0.520261779
     0.837470226  0.650033996  0.495904861
     0.325427859  0.105851199  0.556877740
     0.174465647  0.511319416  0.475374318
     0.793249526  0.340453431  0.490934884
     0.209860727  0.766087440  0.490628662
     0.007821172  0.793928578  0.590504007
     0.898118501  0.102285832  0.500813174
     0.782597324  0.695692366  0.368822000
     0.002489474  0.618086993  0.413202828
     0.416853658  0.568272687  0.506406106
     0.027248511  0.174937554  0.474483681
     0.020732423  0.175157732  0.395880259
     0.668114618  0.833690855  0.604991044
     0.916295149  0.129899248  0.581002364
     0.650295329  0.459117453  0.643691348
     0.900443740  0.866038430  0.443072444
     0.790828259  0.198687232  0.455222173
     0.542432352  0.153422575  0.504868339
     0.605289946  0.312519695  0.647002680
     0.486374881  0.759482114  0.442546191
     0.071787474  0.165906847  0.599177029
     0.870462558  0.583178911  0.607232001
     0.093002709  0.384663842  0.450712930
     0.435249113  0.140550765  0.616293582
     0.231276248  0.409609749  0.613610109
     0.145559975  0.059846856  0.467603145
     0.324377729  0.455489668  0.484413826
     0.098310977  0.977649912  0.528764872
     0.391576456  0.401516682  0.601099852
     0.210142636  0.963088016  0.637795697
     0.665809956  0.368263704  0.536988021
     0.725783294  0.634943263  0.592929258
     0.472299982  0.538013025  0.581418251
     0.084991266  0.024828548  0.398635907
     0.981244088  0.460150436  0.413119441
     0.880257371  0.866978129  0.561749965
     0.170834433  0.556956523  0.607146862
     0.964939977  0.942524396  0.380343763
     0.934958795  0.692763525  0.350368505
     0.879324532  0.342190845  0.620106642
     0.145753402  0.299520304  0.573818058
     0.681519382  0.993940305  0.611130201

  ion indices of the primitive-cell ions
   primitive index   ion index
                 1           1
                 2           2
                 3           3
                 4           4
                 5           5
                 6           6
                 7           7
                 8           8
                 9           9
                10          10
                11          11
                12          12
                13          13
                14          14
                15          15
                16          16
                17          17
                18          18
                19          19
                20          20
                21          21
                22          22
                23          23
                24          24
                25          25
                26          26
                27          27
                28          28
                29          29
                30          30
                31          31
                32          32
                33          33
                34          34
                35          35
                36          36
                37          37
                38          38
                39          39
                40          40
                41          41
                42          42
                43          43
                44          44
                45          45
                46          46
                47          47
                48          48
                49          49
                50          50
                51          51
                52          52
                53          53
                54          54
                55          55
                56          56
                57          57
                58          58
                59          59
                60          60
                61          61
                62          62
                63          63
                64          64
                65          65
                66          66
                67          67
                68          68
                69          69
                70          70
                71          71
                72          72
                73          73
                74          74
                75          75
                76          76
                77          77
                78          78
                79          79
                80          80
                81          81
                82          82
                83          83
                84          84
                85          85
                86          86
                87          87
                88          88
                89          89
                90          90
                91          91
                92          92
                93          93
                94          94
                95          95
                96          96
                97          97
                98          98
                99          99
               100         100
               101         101
               102         102
               103         103
               104         104
               105         105
               106         106
               107         107
               108         108
               109         109
               110         110
               111         111
               112         112
               113         113
               114         114
               115         115
               116         116
               117         117
               118         118
               119         119
               120         120
               121         121
               122         122
               123         123
               124         124
               125         125

----------------------------------------------------------------------------------------


 -----------------------------------------------------------------------------
|                                                                             |
|           W    W    AA    RRRRR   N    N  II  N    N   GGGG   !!!           |
|           W    W   A  A   R    R  NN   N  II  NN   N  G    G  !!!           |
|           W    W  A    A  R    R  N N  N  II  N N  N  G       !!!           |
|           W WW W  AAAAAA  RRRRR   N  N N  II  N  N N  G  GGG   !            |
|           WW  WW  A    A  R   R   N   NN  II  N   NN  G    G                |
|           W    W  A    A  R    R  N    N  II  N    N   GGGG   !!!           |
|                                                                             |
|     The requested file  could not be found or opened for reading            |
|     k-point information. Automatic k-point generation is used as a          |
|     fallback, which may lead to unwanted results.                           |
|                                                                             |
 -----------------------------------------------------------------------------



Automatic generation of k-mesh.
 Grid dimensions derived from KSPACING:
 generate k-points for:    2    2    1

 Generating k-lattice:

  Cartesian coordinates                     Fractional coordinates (reciprocal lattice)
     0.034295564  0.000000000  0.000000000     0.500000000  0.000000000  0.000000000
     0.000000000  0.034295564  0.000000000     0.000000000  0.500000000  0.000000000
     0.000000000  0.000000000  0.035036850     0.000000000  0.000000000  1.000000000

  Length of vectors
     0.034295564  0.034295564  0.035036850

  Shift w.r.t. Gamma in fractional coordinates (k-lattice)
     0.000000000  0.000000000  0.000000000

 
 Subroutine IBZKPT returns following result:
 ===========================================
 
 Found      4 irreducible k-points:
 
 Following reciprocal coordinates:
            Coordinates               Weight
  0.000000  0.000000  0.000000      1.000000
  0.500000  0.000000  0.000000      1.000000
  0.000000  0.500000  0.000000      1.000000
  0.500000  0.500000  0.000000      1.000000
 
 Following cartesian coordinates:
            Coordinates               Weight
  0.000000  0.000000  0.000000      1.000000
  0.034296  0.000000  0.000000      1.000000
  0.000000  0.034296  0.000000      1.000000
  0.034296  0.034296  0.000000      1.000000
 


--------------------------------------------------------------------------------------------------------




 Dimension of arrays:
   k-points           NKPTS =      4   k-points in BZ     NKDIM =      4   number of bands    NBANDS=    256
   number of dos      NEDOS =   2000   number of ions     NIONS =    125
   non local maximal  LDIM  =      4   non local SUM 2l+1 LMDIM =      8
   total plane-waves  NPLWV = ******
   max r-space proj   IRMAX =      1   max aug-charges    IRDMAX= 403347
   dimension x,y,z NGX =   168 NGY =  168 NGZ =  324
   dimension x,y,z NGXF=   336 NGYF=  336 NGZF=  648
   support grid    NGXF=   672 NGYF=  672 NGZF= 1296
   ions per type =              42  83
   NGX,Y,Z   is equivalent  to a cutoff of  19.16, 19.16, 18.87 a.u.
   NGXF,Y,Z  is equivalent  to a cutoff of  38.31, 38.31, 37.74 a.u.

 SYSTEM =  a-Si SPC                                
 POSCAR =   H Si                                   

 Startparameter for this run:
   NWRITE =      2    write-flag & timer
   PREC   = accura    normal or accurate (medium, high low for compatibility)
   ISTART =      1    job   : 0-new  1-cont  2-samecut
   ICHARG =      1    charge: 1-file 2-atom 10-const
   ISPIN  =      1    spin polarized calculation?
   LNONCOLLINEAR =      F non collinear calculations
   LSORBIT =      F    spin-orbit coupling
   INIWAV =      1    electr: 0-lowe 1-rand  2-diag
   LASPH  =      T    aspherical Exc in radial PAW
 Electronic Relaxation 1
   ENCUT  = 1200.0 eV  88.20 Ry    9.39 a.u.  41.18 41.18 80.62*2*pi/ulx,y,z
   ENINI  = 1200.0     initial cutoff
   ENAUG  =  400.0 eV  augmentation charge cutoff
   NELM   =    150;   NELMIN=  2; NELMDL=  0     # of ELM steps 
   EDIFF  = 0.1E-05   stopping-criterion for ELM
   LREAL  =      F    real-space projection
   NLSPLINE    = F    spline interpolate recip. space projectors
   LCOMPAT=      F    compatible to vasp.4.4
   GGA_COMPAT  = T    GGA compatible to vasp.4.4-vasp.4.6
   LMAXPAW     = -100 max onsite density
   LMAXMIX     =    2 max onsite mixed and CHGCAR
   VOSKOWN=      0    Vosko Wilk Nusair interpolation
   ROPT   =    0.00000   0.00000
 Ionic relaxation
   EDIFFG = -.1E-01   stopping-criterion for IOM
   NSW    =      0    number of steps for IOM
   NBLOCK =      1;   KBLOCK =      1    inner block; outer block 
   IBRION =     -1    ionic relax: 0-MD 1-quasi-New 2-CG
   NFREE  =      0    steps in history (QN), initial steepest desc. (CG)
   ISIF   =      2    stress and relaxation
   IWAVPR =     10    prediction:  0-non 1-charg 2-wave 3-comb
   ISYM   =      1    0-nonsym 1-usesym 2-fastsym
   LCORR  =      T    Harris-Foulkes like correction to forces

   POTIM  = 0.5000    time-step for ionic-motion
   TEIN   =    0.0    initial temperature
   TEBEG  =    0.0;   TEEND  =   0.0 temperature during run
   SMASS  =  -3.00    Nose mass-parameter (am)
   estimated Nose-frequenzy (Omega)   =  0.10E-29 period in steps = 0.13E+47 mass=  -0.486E-26a.u.
   SCALEE = 1.0000    scale energy and forces
   NPACO  =    256;   APACO  = 10.0  distance and # of slots for P.C.
   PSTRESS=    0.0 pullay stress

  Mass of Ions in am
   POMASS =   1.00 28.09
  Ionic Valenz
   ZVAL   =   1.00  4.00
  Atomic Wigner-Seitz radii
   RWIGS  =  -1.00 -1.00
  virtual crystal weights 
   VCA    =   1.00  1.00
   NELECT =     374.0000    total number of electrons
   NUPDOWN=      -1.0000    fix difference up-down

 DOS related values:
   EMIN   =  10.00;   EMAX   =-10.00  energy-range for DOS
   EFERMI =   0.00;   METHOD = LEGACY      
   ISMEAR =     0;   SIGMA  =   0.10  broadening in eV -4-tet -1-fermi 0-gaus
   EFERMI_NEDOS =   21; number of points for ismear=-14 and -15

 Electronic relaxation 2 (details)
   IALGO  =     38    algorithm
   LDIAG  =      F    sub-space diagonalisation (order eigenvalues)
   LSUBROT=      F    optimize rotation matrix (better conditioning)
   TURBO    =      0    0=normal 1=particle mesh
   IRESTART =      0    0=no restart 2=restart with 2 vectors
   NREBOOT  =      0    no. of reboots
   NMIN     =      0    reboot dimension
   EREF     =   0.00    reference energy to select bands
   IMIX   =      4    mixing-type and parameters
     AMIX     =   0.40;   BMIX     =  1.00
     AMIX_MAG =   1.60;   BMIX_MAG =  1.00
     AMIN     =   0.10
     WC   =   100.;   INIMIX=   1;  MIXPRE=   1;  MAXMIX= -45

 Intra band minimization:
   WEIMIN = 0.0000     energy-eigenvalue tresh-hold
   EBREAK =  0.98E-09  absolut break condition
   DEPER  =   0.30     relativ break condition  

   TIME   =   0.40     timestep for ELM

  volume/ion in A,a.u.               =      48.53       327.51
  Fermi-wavevector in a.u.,A,eV,Ry     =   0.646724  1.222131  5.690664  0.418252
  Thomas-Fermi vector in A             =   1.714800

 Write flags
   LWAVE        =      F    write WAVECAR
   LDOWNSAMPLE  =      F    k-point downsampling of WAVECAR
   LCHARG       =      F    write CHGCAR
   LVTOT        =      F    write LOCPOT, total local potential
   LVHAR        =      F    write LOCPOT, Hartree potential only
   WRT_POTENTIAL= false  ! write potential to hdf5 file
   LELF         =      F    write electronic localiz. function (ELF)
   LORBIT       =     11    0 simple, 1 ext, 2 COOP (PROOUT), +10 PAW based schemes


 Python interface
   PLUGINS active      =      F    recompile with -DPLUGINS to activate

 Dipole corrections
   LMONO      =      F    monopole corrections only (constant potential shift)
   LDIPOL     =      F    correct potential (dipole corrections)
   IDIPOL     =      0    1-x, 2-y, 3-z, 4-all directions 
   EPSILON    =  1.0000000 bulk dielectric constant
   LVACPOTAV  =      F  vacuum potentials using an averaging scheme for the charge density
   VACPOTFLAT =  0.1000000 required flatness to determine vacuum potential

Coulomb truncation method
  LTRUNCATE          =      F  Coulomb kernel truncation to be used
  IDIMENSIONALITY    =      3  Dimensionality of cutoff (0 molecules / 2 surfaces)
  ISURFACE           =     -1  Direction of surface normal
  LCOARSEN           =      F  Coarsen the charge grid before padding, preferred


 Exchange correlation treatment:
   METAGGA = SCAN    functional components
   XC_C    = 1    coefficients multiplying the functional components
   LIBXC   =     F    Libxc                    
   VOSKOWN =     0    Vosko Wilk Nusair interpolation
   LHFCALC =     F    Hartree Fock is set to
   LHFONE  =     F    Hartree Fock one center treatment
   AEXX    =    0.0000 exact exchange contribution

 Parameters of functionals:
   SCAN:
     P1 =  0.000000E+00
     P2 =  0.000000E+00
     P3 =  0.000000E+00

 Accuracy and mixing parameters for tau-dependent meta-GGA functionals:
   LMAXTAU = 6
   LMIXTAU = T

 Van der Waals corrections
   IVDW    =     0    specifies the selected vdW correction

 Linear response parameters
   LEPSILON=     F    determine dielectric tensor
   LRPA    =     F    only Hartree local field effects (RPA)
   LNABLA  =     F    use nabla operator in PAW spheres
   LVEL    =     F    velocity operator in full k-point grid
   CSHIFT  =0.1000    complex shift for real part using Kramers Kronig
   OMEGAMAX=  -1.0    maximum frequency
   DEG_THRESHOLD= 0.2000000E-02 threshold for treating states as degnerate
   RTIME   =   -0.100 relaxation time in fs
  (WPLASMAI=    0.000 imaginary part of plasma frequency in eV, 0.658/RTIME)
   DFIELD  = 0.0000000 0.0000000 0.0000000 field for delta impulse in time

  Optional k-point grid parameters
   LKPOINTS_OPT  =     F    use optional k-point grid
   KPOINTS_OPT_MODE=     1    mode for optional k-point grid

 Orbital magnetization related:
   ORBITALMAG=     F  switch on orbital magnetization
   LCHIMAG   =     F  perturbation theory with respect to B field
   DQ        =  0.001000  dq finite difference perturbation B field
   LLRAUG    =     F  two centre corrections for induced B field
   LBONE     =     F  B-component reconstruction in AE one-centre
   LVGVCALC  =     T  calculate vGv susceptibility
   LVGVAPPL  =     F  apply vGv susceptibility instead of pGv for G=0

 Random number generation:
   RANDOM_GENERATOR = DEFAULT
   PCG_SEED         = not used


--------------------------------------------------------------------------------------------------------


 Static calculation
 charge density and potential will be updated during run
 non-spin polarized calculation
 Variant of blocked Davidson
 perform Loewdin sub-space diagonalisation
    ordering is kept fixed
    before iterative eigenvector-optimisation
 modified Broyden-mixing scheme, WC =      100.0
 initial mixing is a Kerker type mixing with AMIX =  0.4000 and BMIX =      1.0000
 Hartree-type preconditioning will be used
 using additional bands           69
 reciprocal scheme for non local part
 use partial core corrections
 calculate Harris-corrections to forces   (improved forces if not selfconsistent)
 use gradient corrections 
 use of overlap-Matrix (Vanderbilt PP)
 Gauss-broadening in eV      SIGMA  =   0.10


--------------------------------------------------------------------------------------------------------


  energy-cutoff  :     1200.00
  volume of cell :     6066.51
      direct lattice vectors                 reciprocal lattice vectors
    14.579145171  0.000000000  0.000000000     0.068591127  0.000000000  0.000000000
     0.000000000 14.579145171  0.000000000     0.000000000  0.068591127  0.000000000
     0.000000000  0.000000000 28.541378200     0.000000000  0.000000000  0.035036850

  length of vectors
    14.579145171 14.579145171 28.541378200     0.068591127  0.068591127  0.035036850



 old parameters found on file WAVECAR:
  energy-cutoff  :     1200.00
  volume of cell :     6066.51
      direct lattice vectors                 reciprocal lattice vectors
    14.579145171  0.000000000  0.000000000     0.068591127  0.000000000  0.000000000
     0.000000000 14.579145171  0.000000000     0.000000000  0.068591127  0.000000000
     0.000000000  0.000000000 28.541378200     0.000000000  0.000000000  0.035036850

  length of vectors


 k-points in units of 2pi/SCALE and weight: read from INCAR                         
   0.00000000  0.00000000  0.00000000       0.250
   0.03429556  0.00000000  0.00000000       0.250
   0.00000000  0.03429556  0.00000000       0.250
   0.03429556  0.03429556  0.00000000       0.250

 k-points in reciprocal lattice and weights: read from INCAR                         
   0.00000000  0.00000000  0.00000000       0.250
   0.50000000  0.00000000  0.00000000       0.250
   0.00000000  0.50000000  0.00000000       0.250
   0.50000000  0.50000000  0.00000000       0.250

 position of ions in fractional coordinates (direct lattice) 
   0.49350219  0.59107992  0.47741346
   0.41779473  0.05144259  0.37638576
   0.78324208  0.01343069  0.42194067
   0.64643845  0.04038824  0.43815222
   0.65966899  0.59190645  0.43386336
   0.61055706  0.50528751  0.47540095
   0.59415349  0.62319772  0.49220252
   0.62660052  0.32484072  0.41717636
   0.51192370  0.33740044  0.45071363
   0.44207942  0.84522788  0.35734340
   0.58080840  0.73450808  0.43211712
   0.46832032  0.21369977  0.42434139
   0.26920303  0.10514540  0.36880602
   0.37843577  0.58155262  0.40246614
   0.39669198  0.33572202  0.40089403
   0.69722881  0.01714037  0.52865766
   0.75387136  0.88236312  0.50141090
   0.66552324  0.30923830  0.43592072
   0.60140632  0.80597318  0.49429036
   0.53971066  0.57170087  0.39907947
   0.34329105  0.15917600  0.43085650
   0.39804803  0.99138186  0.45801356
   0.62369912  0.81056879  0.52104766
   0.56701335  0.98740357  0.37621873
   0.47047340  0.85852770  0.44477804
   0.72696306  0.91799621  0.48918935
   0.31487374  0.89486728  0.42514619
   0.45771888  0.11387705  0.48777701
   0.44382781  0.21459489  0.40161404
   0.45300393  0.89321423  0.35773613
   0.54657320  0.95710001  0.51655348
   0.59672634  0.97751273  0.50658549
   0.57924727  0.82726387  0.38843458
   0.69142600  0.79268022  0.44691213
   0.44909423  0.72710024  0.48860388
   0.33340501  0.87933139  0.40162350
   0.60545937  0.45254711  0.46865180
   0.54079440  0.41253859  0.38519157
   0.78886655  0.98915950  0.44707085
   0.59820654  0.18145714  0.41753163
   0.71786102  0.04792695  0.51293698
   0.59166569  0.65358976  0.51438505
   0.38044000  0.34225669  0.52799336
   0.08552696  0.57048201  0.53966414
   0.68154956  0.23068294  0.59272079
   0.26256821  0.24216303  0.52326514
   0.52700003  0.30919028  0.50300123
   0.62970016  0.50948255  0.56870163
   0.86577778  0.19814948  0.37966142
   0.33769744  0.70481499  0.53024938
   0.38292094  0.68006731  0.39424789
   0.64532796  0.90811223  0.36503161
   0.82202350  0.44025078  0.42598427
   0.38035358  0.97602430  0.50837413
   0.91082844  0.36690423  0.54407913
   0.23575456  0.74354154  0.41071802
   0.06086873  0.89703476  0.64702966
   0.16483134  0.60635654  0.40756890
   0.03855919  0.31933217  0.51162134
   0.75490709  0.83873230  0.41379460
   0.53837313  0.50082429  0.35791566
   0.76177306  0.59415692  0.43216863
   0.76420118  0.76734266  0.54903369
   0.26214911  0.68998558  0.60310746
   0.96100971  0.72991248  0.46442285
   0.94309370  0.95203113  0.50496119
   0.57400896  0.09830480  0.58244553
   0.24853172  0.17497048  0.45289117
   0.47697584  0.65239559  0.63581016
   0.18725858  0.28685770  0.40900121
   0.84619502  0.99783628  0.60621944
   0.92609682  0.53145366  0.53497445
   0.27735508  0.84706612  0.59946994
   0.44624427  0.28938528  0.64963150
   0.31265482  0.38857148  0.40602343
   0.41596335  0.85035850  0.55194455
   0.96251871  0.68742714  0.64551817
   0.23786305  0.90245346  0.52302584
   0.51758522  0.79178854  0.60396481
   0.81720155  0.20155434  0.63176971
   0.18159432  0.06564075  0.58495522
   0.65075215  0.13609097  0.45315079
   0.07398925  0.72758038  0.52026178
   0.83747023  0.65003400  0.49590486
   0.32542786  0.10585120  0.55687774
   0.17446565  0.51131942  0.47537432
   0.79324953  0.34045343  0.49093488
   0.20986073  0.76608744  0.49062866
   0.00782117  0.79392858  0.59050401
   0.89811850  0.10228583  0.50081317
   0.78259732  0.69569237  0.36882200
   0.00248947  0.61808699  0.41320283
   0.41685366  0.56827269  0.50640611
   0.02724851  0.17493755  0.47448368
   0.02073242  0.17515773  0.39588026
   0.66811462  0.83369085  0.60499104
   0.91629515  0.12989925  0.58100236
   0.65029533  0.45911745  0.64369135
   0.90044374  0.86603843  0.44307244
   0.79082826  0.19868723  0.45522217
   0.54243235  0.15342258  0.50486834
   0.60528995  0.31251969  0.64700268
   0.48637488  0.75948211  0.44254619
   0.07178747  0.16590685  0.59917703
   0.87046256  0.58317891  0.60723200
   0.09300271  0.38466384  0.45071293
   0.43524911  0.14055076  0.61629358
   0.23127625  0.40960975  0.61361011
   0.14555997  0.05984686  0.46760314
   0.32437773  0.45548967  0.48441383
   0.09831098  0.97764991  0.52876487
   0.39157646  0.40151668  0.60109985
   0.21014264  0.96308802  0.63779570
   0.66580996  0.36826370  0.53698802
   0.72578329  0.63494326  0.59292926
   0.47229998  0.53801303  0.58141825
   0.08499127  0.02482855  0.39863591
   0.98124409  0.46015044  0.41311944
   0.88025737  0.86697813  0.56174996
   0.17083443  0.55695652  0.60714686
   0.96493998  0.94252440  0.38034376
   0.93495879  0.69276353  0.35036850
   0.87932453  0.34219084  0.62010664
   0.14575340  0.29952030  0.57381806
   0.68151938  0.99394031  0.61113020

 position of ions in cartesian coordinates  (Angst):
   7.19484000  8.61744000 13.62603820
   6.09109000  0.74998900 10.74256820
  11.41900000  0.19580800 12.04276820
   9.42452000  0.58882600 12.50546820
   9.61741000  8.62949000 12.38305820
   8.90140000  7.36666000 13.56859820
   8.66225000  9.08569000 14.04813820
   9.13530000  4.73590000 11.90678820
   7.46341000  4.91901000 12.86398820
   6.44514000 12.32270000 10.19907320
   8.46769000 10.70850000 12.33321820
   6.82771000  3.11556000 12.11128820
   3.92475000  1.53293000 10.52623220
   5.51727000  8.47854000 11.48693820
   5.78343000  4.89454000 11.44206820
  10.16500000  0.24989200 15.08861820
  10.99080000 12.86410000 14.31095820
   9.70276000  4.50843000 12.44177820
   8.76799000 11.75040000 14.10772820
   7.86852000  8.33491000 11.39027820
   5.00489000  2.32065000 12.29723820
   5.80320000 14.45350000 13.07233820
   9.09300000 11.81740000 14.87141820
   8.26657000 14.39550000 10.73780120
   6.85910000 12.51660000 12.69457820
  10.59850000 13.38360000 13.96213820
   4.59059000 13.04640000 12.13425820
   6.67315000  1.66023000 13.92182820
   6.47063000  3.12861000 11.46261820
   6.60441000 13.02230000 10.21028220
   7.96857000 13.95370000 14.74314820
   8.69976000 14.25130000 14.45864820
   8.44493000 12.06080000 11.08645820
  10.08040000 11.55660000 12.75548820
   6.54741000 10.60050000 13.94542820
   4.86076000 12.81990000 11.46288820
   8.82708000  6.59775000 13.37596820
   7.88432000  6.01446000 10.99389820
  11.50100000 14.42110000 12.76001820
   8.72134000  2.64549000 11.91692820
  10.46580000  0.69873400 14.63992820
   8.62598000  9.52878000 14.68125820
   5.54649000  4.98981000 15.06965820
   1.24691000  8.31714000 15.40275820
   9.93641000  3.36316000 16.91706820
   3.82802000  3.53053000 14.93470820
   7.68321000  4.50773000 14.35634820
   9.18049000  7.42782000 16.23152820
  12.62230000  2.88885000 10.83606020
   4.92334000 10.27560000 15.13404820
   5.58266000  9.91480000 11.25237820
   9.40833000 13.23950000 10.41850520
  11.98440000  6.41848000 12.15817820
   5.54523000 14.22960000 14.50969820
  13.27910000  5.34915000 15.52876820
   3.43710000 10.84020000 11.72245820
   0.88741400 13.07800000 18.46711820
   2.40310000  8.84016000 11.63257820
   0.56216000  4.65559000 14.60237820
  11.00590000 12.22800000 11.81026820
   7.84902000  7.30159000 10.21540620
  11.10600000  8.66230000 12.33468820
  11.14140000 11.18720000 15.67017820
   3.82191000 10.05940000 17.21351820
  14.01070000 10.64150000 13.25526820
  13.74950000 13.87980000 14.41228820
   8.36856000  1.43320000 16.62379820
   3.62338000  2.55092000 12.92613820
   6.95390000  9.51137000 18.14689820
   2.73007000  4.18214000 11.67345820
  12.33680000 14.54760000 17.30233820
  13.50170000  7.74814000 15.26890820
   4.04360000 12.34950000 17.10969820
   6.50586000  4.21899000 18.54137820
   4.55824000  5.66504000 11.58846820
   6.06439000 12.39750000 15.75325820
  14.03270000 10.02210000 18.42397820
   3.46784000 13.15700000 14.92787820
   7.54595000 11.54360000 17.23798820
  11.91410000  2.93849000 18.03157820
   2.64749000  0.95698600 16.69542820
   9.48741000  1.98409000 12.93354820
   1.07870000 10.60750000 14.84898820
  12.20960000  9.47694000 14.15380820
   4.74446000  1.54322000 15.89405820
   2.54356000  7.45460000 13.56783820
  11.56490000  4.96352000 14.01195820
   3.05959000 11.16890000 14.00321820
   0.11402600 11.57480000 16.85379820
  13.09380000  1.49124000 14.29389820
  11.40960000 10.14260000 10.52668820
   0.03629440  9.01118000 11.79337820
   6.07737000  8.28493000 14.45352820
   0.39726000  2.55044000 13.54241820
   0.30226100  2.55365000 11.29896820
   9.74054000 12.15450000 17.26727820
  13.35880000  1.89382000 16.58260820
   9.48075000  6.69354000 18.37183820
  13.12770000 12.62610000 12.64589820
  11.52960000  2.89669000 12.99266820
   7.90820000  2.23677000 14.40963820
   8.82461000  4.55627000 18.46634820
   7.09093000 11.07260000 12.63087820
   1.04660000  2.41878000 17.10133820
  12.69060000  8.50225000 17.33123820
   1.35590000  5.60807000 12.86396820
   6.34556000  2.04911000 17.58986820
   3.37181000  5.97176000 17.51327820
   2.12214000  0.87251600 13.34603820
   4.72915000  6.64065000 13.82583820
   1.43329000 14.25330000 15.09167820
   5.70885000  5.85377000 17.15621820
   3.06370000 14.04100000 18.20356820
   9.70694000  5.36897000 15.32637820
  10.58130000  9.25693000 16.92301820
   6.88573000  7.84377000 16.59447820
   1.23910000  0.36197900 11.37761820
  14.30570000  6.70860000 11.79099820
  12.83340000 12.63980000 16.03311820
   2.49062000  8.11995000 17.32880820
  14.06800000 13.74120000 10.85553520
  13.63090000 10.09990000 10.00000000
  12.81980000  4.98885000 17.69869820
   2.12496000  4.36675000 16.37755820
   9.93597000 14.49080000 17.44249820



--------------------------------------------------------------------------------------------------------


 k-point     1 :   0.0000 0.0000 0.0000  plane waves:  572617
 k-point     2 :   0.5000 0.0000 0.0000  plane waves:  572674
 k-point     3 :   0.0000 0.5000 0.0000  plane waves:  572674
 k-point     4 :   0.5000 0.5000 0.0000  plane waves:  572716

 maximum and minimum number of plane-waves per node :     35868    35719

 maximum number of plane-waves:    572716
 maximum index in each direction: 
   IXMAX=   41   IYMAX=   41   IZMAX=   80
   IXMIN=  -41   IYMIN=  -41   IZMIN=  -80


 parallel 3D FFT for wavefunctions:
    minimum data exchange during FFTs selected (reduces bandwidth)
 parallel 3D FFT for charge:
    minimum data exchange during FFTs selected (reduces bandwidth)


 total amount of memory used by VASP MPI-rank0   388665. kBytes
=======================================================================

   base                                    :      30000. kBytes
   nonl-proj                               :      89929. kBytes
   fftplans                                :     110224. kBytes
   grid                                    :      85039. kBytes
   one-center                              :         24. kBytes
   wavefun                                 :      73449. kBytes

     INWAV:  cpu time     21.1670: real time     21.1791
 Broyden mixing: mesh for mixing (old mesh)
   NGX = 83   NGY = 83   NGZ =161
  (NGX  =336   NGY  =336   NGZ  =648)
  gives a total of ****** points

 initial charge density was supplied:
 number of electron     373.9999999 magnetization 
 keeping initial charge density in first step


--------------------------------------------------------------------------------------------------------


 Maximum index for augmentation-charges        11212 (set IRDMAX)


--------------------------------------------------------------------------------------------------------


 First call to EWALD:  gamma=   0.097
 Maximum number of real-space cells   3x   3x   2
 Maximum number of reciprocal cells   2x   2x   4

    FEWALD:  cpu time      0.0230: real time      0.0230


--------------------------------------- Ionic step        1  -------------------------------------------




--------------------------------------- Iteration      1(   1)  ---------------------------------------


    POTLOK:  cpu time      2.1710: real time      2.1718
    SETDIJ:  cpu time      1.8733: real time      1.8750
    EDDIAG:  cpu time     41.5012: real time     41.5262
     EDDAV:  cpu time    198.8305: real time    198.9379
       DOS:  cpu time      0.0084: real time      0.0087
    CHARGE:  cpu time     23.9333: real time     23.9579
    MIXING:  cpu time      0.0528: real time      0.0530
    --------------------------------------------
      LOOP:  cpu time    268.3706: real time    268.5306

 eigenvalue-minimisations  :  2072
 total energy-change (2. order) :-0.9618463E+03  (-0.1058266E+01)
 number of electron     373.9999999 magnetization 
 augmentation part      -18.2311273 magnetization 

 Broyden mixing:
  rms(total) = 0.11180E+01    rms(broyden)= 0.29292E+02
  rms(prec ) = 0.11587E+01
  weight for this iteration     100.00
  WARNING: grid for Broyden might be to small

 Free energy of the ion-electron system (eV)
  ---------------------------------------------------
  alpha Z        PSCENC =        49.37104641
  Ewald energy   TEWEN  =     61378.91069598
  -Hartree energ DENC   =    -69273.41046572
  -exchange      EXHF   =         0.00000000
  -V(xc)+E(xc)   XCENC  =      -277.23007128
  PAW double counting   =     32818.89470844   -31992.48031858
  entropy T*S    EENTRO =        -0.21088309
  eigenvalues    EBANDS =     -2744.74962185
  atomic energy  EATOM  =      9079.05857715
  Solvation  Ediel_sol  =         0.00000000
  ---------------------------------------------------
  free energy    TOTEN  =      -961.84633256 eV

  energy without entropy =     -961.63544947  energy(sigma->0) =     -961.74089102


--------------------------------------------------------------------------------------------------------




--------------------------------------- Iteration      1(   2)  ---------------------------------------


    POTLOK:  cpu time      2.1244: real time      2.1527
    SETDIJ:  cpu time      1.8413: real time      1.8424
    EDDIAG:  cpu time     41.4227: real time     41.4496
     EDDAV:  cpu time    197.8746: real time    197.9774
       DOS:  cpu time      0.0023: real time      0.0023
    CHARGE:  cpu time     23.8409: real time     23.8620
    MIXING:  cpu time      0.0434: real time      0.0434
    --------------------------------------------
      LOOP:  cpu time    267.1496: real time    267.3298

 eigenvalue-minimisations  :  2056
 total energy-change (2. order) : 0.6812363E+02  (-0.1109564E+01)
 number of electron     373.9999999 magnetization 
 augmentation part      -18.1856465 magnetization 

 Broyden mixing:
  rms(total) = 0.76687E+00    rms(broyden)= 0.16911E+02
  rms(prec ) = 0.79085E+00
  weight for this iteration     100.00
  WARNING: grid for Broyden might be to small

 eigenvalues of (default mixing * dielectric matrix)
  average eigenvalue GAMMA=   0.6341
  0.6341

 Free energy of the ion-electron system (eV)
  ---------------------------------------------------
  alpha Z        PSCENC =        49.37104641
  Ewald energy   TEWEN  =     61378.91069598
  -Hartree energ DENC   =    -69259.38475971
  -exchange      EXHF   =         0.00000000
  -V(xc)+E(xc)   XCENC  =      -269.65676994
  PAW double counting   =     38908.01085346   -38081.35602697
  entropy T*S    EENTRO =        -0.20767575
  eigenvalues    EBANDS =     -2698.46864547
  atomic energy  EATOM  =      9079.05857715
  Solvation  Ediel_sol  =         0.00000000
  ---------------------------------------------------
  free energy    TOTEN  =      -893.72270485 eV

  energy without entropy =     -893.51502910  energy(sigma->0) =     -893.61886697


--------------------------------------------------------------------------------------------------------




--------------------------------------- Iteration      1(   3)  ---------------------------------------


    POTLOK:  cpu time      2.1395: real time      2.1659
    SETDIJ:  cpu time      1.8398: real time      1.8410
    EDDIAG:  cpu time     41.4383: real time     41.4613
     EDDAV:  cpu time    198.7263: real time    198.8372
       DOS:  cpu time      0.0021: real time      0.0021
    CHARGE:  cpu time     23.8395: real time     23.8616
    MIXING:  cpu time      0.0426: real time      0.0426
    --------------------------------------------
      LOOP:  cpu time    268.0281: real time    268.2117

 eigenvalue-minimisations  :  2072
 total energy-change (2. order) :-0.2816967E+01  (-0.7996079E+00)
 number of electron     373.9999999 magnetization 
 augmentation part      -18.1002157 magnetization 

 Broyden mixing:
  rms(total) = 0.41614E+00    rms(broyden)= 0.19535E+02
  rms(prec ) = 0.49866E+00
  weight for this iteration     100.00
  WARNING: grid for Broyden might be to small

 eigenvalues of (default mixing * dielectric matrix)
  average eigenvalue GAMMA=   0.6409
  0.6837  0.5981

 Free energy of the ion-electron system (eV)
  ---------------------------------------------------
  alpha Z        PSCENC =        49.37104641
  Ewald energy   TEWEN  =     61378.91069598
  -Hartree energ DENC   =    -69262.16108737
  -exchange      EXHF   =         0.00000000
  -V(xc)+E(xc)   XCENC  =      -272.48377750
  PAW double counting   =     45154.64239804   -44328.15567489
  entropy T*S    EENTRO =        -0.18843163
  eigenvalues    EBANDS =     -2695.53341819
  atomic energy  EATOM  =      9079.05857715
  Solvation  Ediel_sol  =         0.00000000
  ---------------------------------------------------
  free energy    TOTEN  =      -896.53967200 eV

  energy without entropy =     -896.35124037  energy(sigma->0) =     -896.44545618


--------------------------------------------------------------------------------------------------------




--------------------------------------- Iteration      1(   4)  ---------------------------------------


    POTLOK:  cpu time      2.1288: real time      2.1562
    SETDIJ:  cpu time      1.8389: real time      1.8406
    EDDIAG:  cpu time     41.4552: real time     41.4802
     EDDAV:  cpu time    218.5366: real time    218.6591
       DOS:  cpu time      0.0033: real time      0.0033
    CHARGE:  cpu time     23.8352: real time     23.8586
    MIXING:  cpu time      0.0420: real time      0.0420
    --------------------------------------------
      LOOP:  cpu time    287.8401: real time    288.0400

 eigenvalue-minimisations  :  2432
 total energy-change (2. order) : 0.4224476E-01  (-0.1777940E+00)
 number of electron     373.9999999 magnetization 
 augmentation part      -18.1154360 magnetization 

 Broyden mixing:
  rms(total) = 0.22648E+00    rms(broyden)= 0.38027E+01
  rms(prec ) = 0.39740E+00
  weight for this iteration     100.00
  WARNING: grid for Broyden might be to small

 eigenvalues of (default mixing * dielectric matrix)
  average eigenvalue GAMMA=   0.7015
  0.9662  0.6281  0.5103

 Free energy of the ion-electron system (eV)
  ---------------------------------------------------
  alpha Z        PSCENC =        49.37104641
  Ewald energy   TEWEN  =     61378.91069598
  -Hartree energ DENC   =    -69260.42493315
  -exchange      EXHF   =         0.00000000
  -V(xc)+E(xc)   XCENC  =      -272.78837580
  PAW double counting   =     51021.58010463   -50195.16823080
  entropy T*S    EENTRO =        -0.21884764
  eigenvalues    EBANDS =     -2696.81746401
  atomic energy  EATOM  =      9079.05857715
  Solvation  Ediel_sol  =         0.00000000
  ---------------------------------------------------
  free energy    TOTEN  =      -896.49742723 eV

  energy without entropy =     -896.27857959  energy(sigma->0) =     -896.38800341


--------------------------------------------------------------------------------------------------------




--------------------------------------- Iteration      1(   5)  ---------------------------------------


    POTLOK:  cpu time      2.1254: real time      2.1557
    SETDIJ:  cpu time      1.8362: real time      1.8378
    EDDIAG:  cpu time     41.4464: real time     41.4709
     EDDAV:  cpu time    216.1409: real time    216.2659
       DOS:  cpu time      0.0042: real time      0.0042
    CHARGE:  cpu time     23.8333: real time     23.8560
    MIXING:  cpu time      0.0427: real time      0.0427
    --------------------------------------------
      LOOP:  cpu time    285.4292: real time    285.6332

 eigenvalue-minimisations  :  2392
 total energy-change (2. order) : 0.1740750E+00  (-0.1306618E+00)
 number of electron     373.9999999 magnetization 
 augmentation part      -18.1057252 magnetization 

 Broyden mixing:
  rms(total) = 0.81891E-01    rms(broyden)= 0.62670E+00
  rms(prec ) = 0.12402E+00
  weight for this iteration     100.00
  WARNING: grid for Broyden might be to small

 eigenvalues of (default mixing * dielectric matrix)
  average eigenvalue GAMMA=   0.8301
  1.7608  0.6651  0.5881  0.3064

 Free energy of the ion-electron system (eV)
  ---------------------------------------------------
  alpha Z        PSCENC =        49.37104641
  Ewald energy   TEWEN  =     61378.91069598
  -Hartree energ DENC   =    -69264.61590152
  -exchange      EXHF   =         0.00000000
  -V(xc)+E(xc)   XCENC  =      -273.67122793
  PAW double counting   =     51467.82252647   -50641.40336848
  entropy T*S    EENTRO =        -0.18603581
  eigenvalues    EBANDS =     -2691.60966454
  atomic energy  EATOM  =      9079.05857715
  Solvation  Ediel_sol  =         0.00000000
  ---------------------------------------------------
  free energy    TOTEN  =      -896.32335228 eV

  energy without entropy =     -896.13731646  energy(sigma->0) =     -896.23033437


--------------------------------------------------------------------------------------------------------




--------------------------------------- Iteration      1(   6)  ---------------------------------------


    POTLOK:  cpu time      2.1238: real time      2.1549
    SETDIJ:  cpu time      1.8379: real time      1.8389
    EDDIAG:  cpu time     41.4633: real time     41.4865
     EDDAV:  cpu time    200.3119: real time    200.4284
       DOS:  cpu time      0.0048: real time      0.0048
    CHARGE:  cpu time     23.8427: real time     23.8635
    MIXING:  cpu time      0.0440: real time      0.0440
    --------------------------------------------
      LOOP:  cpu time    269.6283: real time    269.8209

 eigenvalue-minimisations  :  2104
 total energy-change (2. order) : 0.1643642E-01  (-0.3208055E-01)
 number of electron     373.9999999 magnetization 
 augmentation part      -18.1116264 magnetization 

 Broyden mixing:
  rms(total) = 0.53633E-01    rms(broyden)= 0.43343E+00
  rms(prec ) = 0.64818E-01
  weight for this iteration     100.00
  WARNING: grid for Broyden might be to small

 eigenvalues of (default mixing * dielectric matrix)
  average eigenvalue GAMMA=   0.8461
  2.0794  0.6397  0.5954  0.5954  0.3205

 Free energy of the ion-electron system (eV)
  ---------------------------------------------------
  alpha Z        PSCENC =        49.37104641
  Ewald energy   TEWEN  =     61378.91069598
  -Hartree energ DENC   =    -69262.97517932
  -exchange      EXHF   =         0.00000000
  -V(xc)+E(xc)   XCENC  =      -273.87938984
  PAW double counting   =     51292.73991741   -50466.30041321
  entropy T*S    EENTRO =        -0.20040532
  eigenvalues    EBANDS =     -2693.03176511
  atomic energy  EATOM  =      9079.05857715
  Solvation  Ediel_sol  =         0.00000000
  ---------------------------------------------------
  free energy    TOTEN  =      -896.30691586 eV

  energy without entropy =     -896.10651054  energy(sigma->0) =     -896.20671320


--------------------------------------------------------------------------------------------------------




--------------------------------------- Iteration      1(   7)  ---------------------------------------


    POTLOK:  cpu time      2.1311: real time      2.1590
    SETDIJ:  cpu time      1.8363: real time      1.8372
    EDDIAG:  cpu time     41.4662: real time     41.4888
     EDDAV:  cpu time    204.6327: real time    204.7472
       DOS:  cpu time      0.0021: real time      0.0021
    CHARGE:  cpu time     23.8645: real time     23.8847
    MIXING:  cpu time      0.0441: real time      0.0441
    --------------------------------------------
      LOOP:  cpu time    273.9770: real time    274.1633

 eigenvalue-minimisations  :  2184
 total energy-change (2. order) : 0.4703467E-02  (-0.3190734E-02)
 number of electron     373.9999999 magnetization 
 augmentation part      -18.1098880 magnetization 

 Broyden mixing:
  rms(total) = 0.26053E-01    rms(broyden)= 0.36007E+00
  rms(prec ) = 0.31343E-01
  weight for this iteration     100.00
  WARNING: grid for Broyden might be to small

 eigenvalues of (default mixing * dielectric matrix)
  average eigenvalue GAMMA=   0.9303
  2.5514  0.9031  0.6238  0.5950  0.5950  0.3136

 Free energy of the ion-electron system (eV)
  ---------------------------------------------------
  alpha Z        PSCENC =        49.37104641
  Ewald energy   TEWEN  =     61378.91069598
  -Hartree energ DENC   =    -69261.78418812
  -exchange      EXHF   =         0.00000000
  -V(xc)+E(xc)   XCENC  =      -273.88802950
  PAW double counting   =     51311.33506230   -50484.89123241
  entropy T*S    EENTRO =        -0.20087420
  eigenvalues    EBANDS =     -2694.21326999
  atomic energy  EATOM  =      9079.05857715
  Solvation  Ediel_sol  =         0.00000000
  ---------------------------------------------------
  free energy    TOTEN  =      -896.30221239 eV

  energy without entropy =     -896.10133819  energy(sigma->0) =     -896.20177529


--------------------------------------------------------------------------------------------------------




--------------------------------------- Iteration      1(   8)  ---------------------------------------


    POTLOK:  cpu time      2.1318: real time      2.1593
    SETDIJ:  cpu time      1.8391: real time      1.8402
    EDDIAG:  cpu time     41.4663: real time     41.4902
     EDDAV:  cpu time    216.0770: real time    216.2061
       DOS:  cpu time      0.0042: real time      0.0042
    CHARGE:  cpu time     23.8555: real time     23.8772
    MIXING:  cpu time      0.0448: real time      0.0448
    --------------------------------------------
      LOOP:  cpu time    285.4187: real time    285.6222

 eigenvalue-minimisations  :  2392
 total energy-change (2. order) : 0.1334264E-02  (-0.8472937E-03)
 number of electron     373.9999999 magnetization 
 augmentation part      -18.1097940 magnetization 

 Broyden mixing:
  rms(total) = 0.16390E-01    rms(broyden)= 0.13711E+00
  rms(prec ) = 0.17863E-01
  weight for this iteration     100.00
  WARNING: grid for Broyden might be to small

 eigenvalues of (default mixing * dielectric matrix)
  average eigenvalue GAMMA=   0.9366
  2.5957  1.0918  0.3114  0.7775  0.6218  0.5790  0.5790

 Free energy of the ion-electron system (eV)
  ---------------------------------------------------
  alpha Z        PSCENC =        49.37104641
  Ewald energy   TEWEN  =     61378.91069598
  -Hartree energ DENC   =    -69260.08682677
  -exchange      EXHF   =         0.00000000
  -V(xc)+E(xc)   XCENC  =      -273.78047460
  PAW double counting   =     51244.45041134   -50417.99431023
  entropy T*S    EENTRO =        -0.20334725
  eigenvalues    EBANDS =     -2696.02665015
  atomic energy  EATOM  =      9079.05857715
  Solvation  Ediel_sol  =         0.00000000
  ---------------------------------------------------
  free energy    TOTEN  =      -896.30087813 eV

  energy without entropy =     -896.09753087  energy(sigma->0) =     -896.19920450


--------------------------------------------------------------------------------------------------------




--------------------------------------- Iteration      1(   9)  ---------------------------------------


    POTLOK:  cpu time      2.1431: real time      2.1615
    SETDIJ:  cpu time      1.8943: real time      1.8955
    EDDIAG:  cpu time     41.4626: real time     41.4860
     EDDAV:  cpu time    201.4799: real time    201.5989
       DOS:  cpu time      0.0128: real time      0.0132
    CHARGE:  cpu time     23.8571: real time     23.8816
    MIXING:  cpu time      0.0614: real time      0.0625
    --------------------------------------------
      LOOP:  cpu time    270.9112: real time    271.0993

 eigenvalue-minimisations  :  2128
 total energy-change (2. order) :-0.6425057E-03  (-0.4192869E-03)
 number of electron     373.9999999 magnetization 
 augmentation part      -18.1085360 magnetization 

 Broyden mixing:
  rms(total) = 0.81684E-02    rms(broyden)= 0.93996E-01
  rms(prec ) = 0.90013E-02
  weight for this iteration     100.00
  WARNING: grid for Broyden might be to small

 eigenvalues of (default mixing * dielectric matrix)
  average eigenvalue GAMMA=   0.9210
  2.6041  1.2125  0.3112  0.6804  0.6804  0.6976  0.5911  0.5911

 Free energy of the ion-electron system (eV)
  ---------------------------------------------------
  alpha Z        PSCENC =        49.37104641
  Ewald energy   TEWEN  =     61378.91069598
  -Hartree energ DENC   =    -69259.96176967
  -exchange      EXHF   =         0.00000000
  -V(xc)+E(xc)   XCENC  =      -273.69749291
  PAW double counting   =     51270.77846656   -50444.31682130
  entropy T*S    EENTRO =        -0.20255204
  eigenvalues    EBANDS =     -2696.24167081
  atomic energy  EATOM  =      9079.05857715
  Solvation  Ediel_sol  =         0.00000000
  ---------------------------------------------------
  free energy    TOTEN  =      -896.30152063 eV

  energy without entropy =     -896.09896859  energy(sigma->0) =     -896.20024461


--------------------------------------------------------------------------------------------------------




--------------------------------------- Iteration      1(  10)  ---------------------------------------


    POTLOK:  cpu time      2.1408: real time      2.1593
    SETDIJ:  cpu time      1.8492: real time      1.8511
    EDDIAG:  cpu time     41.4600: real time     41.4851
     EDDAV:  cpu time    202.5297: real time    202.6439
       DOS:  cpu time      0.0048: real time      0.0048
    CHARGE:  cpu time     23.8602: real time     23.8824
    MIXING:  cpu time      0.0458: real time      0.0458
    --------------------------------------------
      LOOP:  cpu time    271.8905: real time    272.0724

 eigenvalue-minimisations  :  2144
 total energy-change (2. order) :-0.3132234E-03  (-0.1580131E-03)
 number of electron     373.9999999 magnetization 
 augmentation part      -18.1076286 magnetization 

 Broyden mixing:
  rms(total) = 0.49263E-02    rms(broyden)= 0.32337E-01
  rms(prec ) = 0.58563E-02
  weight for this iteration     100.00
  WARNING: grid for Broyden might be to small

 eigenvalues of (default mixing * dielectric matrix)
  average eigenvalue GAMMA=   0.9622
  2.5972  1.5431  1.0561  0.3111  0.7808  0.6104  0.6104  0.6268  0.5237

 Free energy of the ion-electron system (eV)
  ---------------------------------------------------
  alpha Z        PSCENC =        49.37104641
  Ewald energy   TEWEN  =     61378.91069598
  -Hartree energ DENC   =    -69259.45672093
  -exchange      EXHF   =         0.00000000
  -V(xc)+E(xc)   XCENC  =      -273.63545978
  PAW double counting   =     51279.85650904   -50453.38811247
  entropy T*S    EENTRO =        -0.20300579
  eigenvalues    EBANDS =     -2696.81536346
  atomic energy  EATOM  =      9079.05857715
  Solvation  Ediel_sol  =         0.00000000
  ---------------------------------------------------
  free energy    TOTEN  =      -896.30183386 eV

  energy without entropy =     -896.09882806  energy(sigma->0) =     -896.20033096


--------------------------------------------------------------------------------------------------------




--------------------------------------- Iteration      1(  11)  ---------------------------------------


    POTLOK:  cpu time      2.1269: real time      2.1524
    SETDIJ:  cpu time      1.8482: real time      1.8493
    EDDIAG:  cpu time     41.4778: real time     41.5039
     EDDAV:  cpu time    202.4489: real time    202.5651
       DOS:  cpu time      0.0023: real time      0.0023
    CHARGE:  cpu time     23.8532: real time     23.8755
    MIXING:  cpu time      0.0474: real time      0.0475
    --------------------------------------------
      LOOP:  cpu time    271.8047: real time    271.9960

 eigenvalue-minimisations  :  2144
 total energy-change (2. order) : 0.1101707E-04  (-0.9609343E-04)
 number of electron     373.9999999 magnetization 
 augmentation part      -18.1079285 magnetization 

 Broyden mixing:
  rms(total) = 0.18558E-02    rms(broyden)= 0.16729E-01
  rms(prec ) = 0.21230E-02
  weight for this iteration     100.00
  WARNING: grid for Broyden might be to small

 eigenvalues of (default mixing * dielectric matrix)
  average eigenvalue GAMMA=   0.9921
  2.5708  2.2364  1.0339  0.3110  0.7412  0.7412  0.6378  0.5754  0.5754  0.4985

 Free energy of the ion-electron system (eV)
  ---------------------------------------------------
  alpha Z        PSCENC =        49.37104641
  Ewald energy   TEWEN  =     61378.91069598
  -Hartree energ DENC   =    -69259.30622604
  -exchange      EXHF   =         0.00000000
  -V(xc)+E(xc)   XCENC  =      -273.64232703
  PAW double counting   =     51276.93160260   -50450.46100181
  entropy T*S    EENTRO =        -0.20266702
  eigenvalues    EBANDS =     -2696.96152307
  atomic energy  EATOM  =      9079.05857715
  Solvation  Ediel_sol  =         0.00000000
  ---------------------------------------------------
  free energy    TOTEN  =      -896.30182284 eV

  energy without entropy =     -896.09915582  energy(sigma->0) =     -896.20048933


--------------------------------------------------------------------------------------------------------




--------------------------------------- Iteration      1(  12)  ---------------------------------------


    POTLOK:  cpu time      2.1347: real time      2.1596
    SETDIJ:  cpu time      1.8473: real time      1.8484
    EDDIAG:  cpu time     41.4680: real time     41.4900
     EDDAV:  cpu time    202.3003: real time    202.4163
       DOS:  cpu time      0.0046: real time      0.0046
    CHARGE:  cpu time     23.8324: real time     23.8535
    MIXING:  cpu time      0.0484: real time      0.0484
    --------------------------------------------
      LOOP:  cpu time    271.6356: real time    271.8207

 eigenvalue-minimisations  :  2136
 total energy-change (2. order) :-0.1884200E-04  (-0.5440587E-04)
 number of electron     373.9999999 magnetization 
 augmentation part      -18.1079272 magnetization 

 Broyden mixing:
  rms(total) = 0.11136E-02    rms(broyden)= 0.13810E-01
  rms(prec ) = 0.14390E-02
  weight for this iteration     100.00
  WARNING: grid for Broyden might be to small

 eigenvalues of (default mixing * dielectric matrix)
  average eigenvalue GAMMA=   1.0091
  2.6007  2.6007  1.0510  0.3110  0.8200  0.8200  0.5901  0.5901  0.6744  0.6054
  0.4361

 Free energy of the ion-electron system (eV)
  ---------------------------------------------------
  alpha Z        PSCENC =        49.37104641
  Ewald energy   TEWEN  =     61378.91069598
  -Hartree energ DENC   =    -69259.05329298
  -exchange      EXHF   =         0.00000000
  -V(xc)+E(xc)   XCENC  =      -273.64713103
  PAW double counting   =     51275.62487643   -50449.15289831
  entropy T*S    EENTRO =        -0.20257731
  eigenvalues    EBANDS =     -2697.21113801
  atomic energy  EATOM  =      9079.05857715
  Solvation  Ediel_sol  =         0.00000000
  ---------------------------------------------------
  free energy    TOTEN  =      -896.30184168 eV

  energy without entropy =     -896.09926438  energy(sigma->0) =     -896.20055303


--------------------------------------------------------------------------------------------------------




--------------------------------------- Iteration      1(  13)  ---------------------------------------


    POTLOK:  cpu time      2.1492: real time      2.1592
    SETDIJ:  cpu time      1.8457: real time      1.8465
    EDDIAG:  cpu time     41.4761: real time     41.4999
     EDDAV:  cpu time    204.5561: real time    204.6705
       DOS:  cpu time      0.0034: real time      0.0034
    CHARGE:  cpu time     23.8185: real time     23.8410
    MIXING:  cpu time      0.0497: real time      0.0502
    --------------------------------------------
      LOOP:  cpu time    273.8987: real time    274.0706

 eigenvalue-minimisations  :  2176
[...]
   0.664E+01 -.550E+01 -.210E+03   -.652E+01 0.748E+01 0.209E+03   -.622E-01 -.223E+01 0.113E+01   0.405E-04 -.563E-04 0.759E-04
   -.486E+02 0.266E+02 0.339E+03   0.447E+02 -.271E+02 -.336E+03   0.399E+01 0.123E+01 -.398E+01   -.339E-04 -.787E-05 -.312E-04
   0.111E+02 0.240E+02 0.304E+03   -.107E+02 -.239E+02 -.301E+03   -.222E+01 0.330E+00 -.244E+01   -.200E-04 0.263E-04 -.133E-04
   0.143E+02 0.516E+01 -.172E+03   -.128E+02 -.466E+01 0.172E+03   -.133E+01 -.586E+00 0.173E+01   -.688E-05 -.940E-05 0.482E-04
   0.121E+02 0.777E+01 -.309E+03   -.126E+02 -.939E+01 0.306E+03   0.278E+00 0.147E+01 0.332E+01   -.303E-04 -.364E-04 0.569E-04
   -.310E+01 0.314E+01 0.366E+03   0.174E+01 -.173E+01 -.368E+03   0.416E+00 -.168E+01 0.199E+00   0.360E-04 -.260E-04 -.110E-04
   -.274E+02 -.480E+01 0.401E+03   0.278E+02 0.537E+01 -.401E+03   -.340E+00 0.136E+00 -.128E+00   0.130E-04 -.261E-04 -.227E-04
   -.268E+02 -.348E+02 -.333E+03   0.260E+02 0.331E+02 0.332E+03   0.366E+00 0.266E+01 0.164E+01   -.393E-04 -.395E-04 0.400E-04
   0.669E+01 -.207E+02 -.225E+03   -.683E+01 0.196E+02 0.222E+03   0.298E-01 0.100E+01 0.159E+01   -.193E-04 -.136E-04 0.521E-04
   0.195E+02 0.989E+00 -.306E+03   -.189E+02 -.376E+01 0.305E+03   0.546E+00 0.197E+01 0.121E+01   0.110E-04 0.572E-04 0.745E-04
 -----------------------------------------------------------------------------------------------
   -.120E+02 -.840E+01 -.324E+02   -.281E-12 0.193E-12 0.682E-12   0.120E+02 0.840E+01 0.324E+02   0.289E-04 -.195E-03 0.306E-02


 POSITION                                       TOTAL-FORCE (eV/Angst)
 -----------------------------------------------------------------------------------
      7.19484      8.61744     13.62604         0.166676     -0.215435     -0.754195
      6.09109      0.74999     10.74257        -0.624308      0.119786     -0.052044
     11.41900      0.19581     12.04277         0.316764     -0.502653      1.383012
      9.42452      0.58883     12.50547         0.131491     -0.427127     -0.009349
      9.61741      8.62949     12.38306         0.231587     -0.018723      0.212367
      8.90140      7.36666     13.56860        -0.124261     -1.529107     -0.477073
      8.66225      9.08569     14.04814         0.342785      0.883729      0.923014
      9.13530      4.73590     11.90679         1.384326     -0.325601      1.026637
      7.46341      4.91901     12.86399         0.239423     -0.270770      1.145571
      6.44514     12.32270     10.19907        -0.350918     -1.021649     -0.298633
      8.46769     10.70850     12.33322         0.215284     -0.350870      0.268350
      6.82771      3.11556     12.11129         0.065858     -0.021607     -0.184923
      3.92475      1.53293     10.52623         0.485090     -0.478965      0.301091
      5.51727      8.47854     11.48694        -0.096036     -0.757438     -0.224655
      5.78343      4.89454     11.44207         0.454115     -0.146188     -0.449873
     10.16500      0.24989     15.08862        -0.617576     -1.105330      1.289937
     10.99080     12.86410     14.31096         0.125757     -0.195477      0.273790
      9.70276      4.50843     12.44178        -1.178009      0.814923     -1.498061
      8.76799     11.75040     14.10773         0.501650      0.222136      1.564847
      7.86852      8.33491     11.39028         0.095782     -0.746799     -0.283617
      5.00489      2.32065     12.29724        -0.865166     -0.131912      0.814645
      5.80320     14.45350     13.07234         0.179985      0.010459      0.027172
      9.09300     11.81740     14.87142        -0.880076     -0.191554     -1.805982
      8.26657     14.39550     10.73780         0.888753     -0.552349     -0.318900
      6.85910     12.51660     12.69458         0.074806      0.211286     -0.152899
     10.59850     13.38360     13.96214        -0.473420      0.475380     -0.274541
      4.59059     13.04640     12.13426         0.108392      0.047142     -0.450334
      6.67315      1.66023     13.92183        -0.388418     -0.233354     -0.402374
      6.47063      3.12861     11.46262         0.056778     -0.146793     -0.207011
      6.60441     13.02230     10.21028         0.022830      1.169248     -0.125828
      7.96857     13.95370     14.74315         2.075637      0.694546     -0.910064
      8.69976     14.25130     14.45865        -2.182698     -1.029793      0.552477
      8.44493     12.06080     11.08646         1.261697      1.170359     -1.133129
     10.08040     11.55660     12.75549         0.259735     -0.210676      0.301076
      6.54741     10.60050     13.94543         0.500946      0.258930     -0.253757
      4.86076     12.81990     11.46289        -0.173113      0.368661      0.299635
      8.82708      6.59775     13.37597         0.033032      1.382072      0.211299
      7.88432      6.01446     10.99390         0.019090     -0.011530      0.436276
     11.50100     14.42110     12.76002        -0.005666      1.053805     -1.577433
      8.72134      2.64549     11.91693        -0.250332      0.253789     -0.899570
     10.46580      0.69873     14.63993         0.981909      1.429571     -1.338311
      8.62598      9.52878     14.68126         0.417630     -0.287515     -0.587041
      5.54649      4.98981     15.06966         0.208890     -0.548635      0.330744
      1.24691      8.31714     15.40276        -0.317472      0.251110     -0.792189
      9.93641      3.36316     16.91707         0.244394     -0.117639     -0.387952
      3.82802      3.53053     14.93471         0.467788     -0.360299      1.353994
      7.68321      4.50773     14.35635        -0.070236      0.729358     -0.855401
      9.18049      7.42782     16.23153         0.272511      0.242577      0.444986
     12.62230      2.88885     10.83606        -0.352148     -0.029123     -0.184839
      4.92334     10.27560     15.13405        -0.032057     -0.235650      0.345982
      5.58266      9.91480     11.25238        -0.830124      1.774735      0.555572
      9.40833     13.23950     10.41851        -1.867600     -0.465720      0.945365
     11.98440      6.41848     12.15818         0.905191      0.328676      0.383684
      5.54523     14.22960     14.50970        -1.548829      0.944539      0.673459
     13.27910      5.34915     15.52877        -1.073637      1.261039     -0.433030
      3.43710     10.84020     11.72246         1.172660     -0.913493     -0.461389
      0.88741     13.07800     18.46712         0.205217      0.588477     -0.038092
      2.40310      8.84016     11.63258        -0.735704     -0.692369      0.625733
      0.56216      4.65559     14.60238         0.619598     -1.812878      1.480711
     11.00590     12.22800     11.81027        -0.387283     -1.230492     -1.073694
      7.84902      7.30159     10.21541        -0.235241      0.886343     -0.222236
     11.10600      8.66230     12.33469        -0.235366     -0.571333     -0.996285
     11.14140     11.18720     15.67018        -0.053966     -1.064819     -0.114379
      3.82191     10.05940     17.21352         1.327817     -0.586714      0.007852
     14.01070     10.64150     13.25527        -0.149334     -0.444813      0.349751
     13.74950     13.87980     14.41229         0.348377      0.672513     -0.025658
      8.36856      1.43320     16.62380         0.468482      1.284836      0.382766
      3.62338      2.55092     12.92614         1.239175     -0.845700     -0.762048
      6.95390      9.51137     18.14690        -0.584398      0.518782      0.420874
      2.73007      4.18214     11.67346        -0.802792      0.528148     -0.832288
     12.33680     14.54760     17.30234        -0.838327     -0.473530      0.306001
     13.50170      7.74814     15.26891         0.171589     -0.289761      0.321045
      4.04360     12.34950     17.10970         0.137916     -0.197263     -0.261686
      6.50586      4.21899     18.54138         1.068352     -1.044677      0.059575
      4.55824      5.66504     11.58847        -0.670313      0.596084      0.589552
      6.06439     12.39750     15.75326        -0.549583     -1.118854      0.817126
     14.03270     10.02210     18.42398         0.506461     -0.430430      0.598771
      3.46784     13.15700     14.92788        -0.331562      0.238366      0.017583
      7.54595     11.54360     17.23799         0.146967     -0.694302     -0.195043
     11.91410      2.93849     18.03158        -0.204917     -0.105827      0.350459
      2.64749      0.95699     16.69543        -0.351054      0.156012     -0.616197
      9.48741      1.98409     12.93355         0.229823     -0.975807     -1.210739
      1.07870     10.60750     14.84899        -0.851156     -0.586924      1.227986
     12.20960      9.47694     14.15381         0.080314     -0.010814      0.598955
      4.74446      1.54322     15.89406         0.628826     -0.029936      0.023754
      2.54356      7.45460     13.56784        -0.041528      0.430204      0.312889
     11.56490      4.96352     14.01196         0.086672      0.467738     -0.501466
      3.05959     11.16890     14.00322         1.369522     -0.403211     -0.946561
      0.11403     11.57480     16.85380         0.752680     -0.452302     -0.704581
     13.09380      1.49124     14.29390        -0.538954      1.125948     -0.120062
     11.40960     10.14260     10.52669         0.254204      0.531163      0.446038
      0.03629      9.01118     11.79338         0.868565     -0.933552     -1.256995
      6.07737      8.28493     14.45353        -0.684384      1.090380      0.824045
      0.39726      2.55044     13.54242         0.391385     -0.092077      1.020038
      0.30226      2.55365     11.29897         0.690963      0.108127     -0.947125
      9.74054     12.15450     17.26728         0.021089      0.617137      0.225516
     13.35880      1.89382     16.58261         0.437040      0.366114     -0.071401
      9.48075      6.69354     18.37184         0.649948      0.491729      0.913876
     13.12770     12.62610     12.64590         0.500550     -0.291133     -1.123456
     11.52960      2.89669     12.99267         1.690165     -0.721893      0.532719
      7.90820      2.23677     14.40964        -0.222451      0.175632      2.090658
      8.82461      4.55627     18.46635        -1.637301      0.287969     -0.176947
      7.09093     11.07260     12.63088        -0.430052     -0.265153     -0.715973
      1.04660      2.41878     17.10134        -0.698777      0.785862      0.302628
     12.69060      8.50225     17.33124         0.078851     -0.327192      0.102501
      1.35590      5.60807     12.86397         1.230811      0.986146     -1.636170
      6.34556      2.04911     17.58987        -0.297586      0.516718     -0.203906
      3.37181      5.97176     17.51328        -0.101702      1.199982      0.039866
      2.12214      0.87252     13.34604         0.337670      1.036086      0.118332
      4.72915      6.64065     13.82584        -1.421804      0.089117     -1.832010
      1.43329     14.25330     15.09168         0.154115     -0.426534      0.414911
      5.70885      5.85377     17.15622        -0.593132      0.637903      0.683965
      3.06370     14.04100     18.20357        -0.339163     -1.442724      2.226428
      9.70694      5.36897     15.32638        -0.810444     -1.451272      0.163056
     10.58130      9.25693     16.92302        -0.528919     -0.204583      0.418671
      6.88573      7.84377     16.59448         0.083394     -0.383395     -0.238283
      1.23910      0.36198     11.37762         0.205691      0.873325     -1.048093
     14.30570      6.70860     11.79100        -2.005300      0.589351      0.053340
     12.83340     12.63980     16.03312         0.076362     -0.097291      1.650687
      2.49062      8.11995     17.32881        -0.038921     -0.065856      0.216762
     14.06800     13.74120     10.85554        -0.782064     -0.304151     -1.098492
     13.63090     10.09990     10.00000        -0.124396      0.638186     -0.123738
     12.81980      4.98885     17.69870        -0.480997      0.894023      0.686764
      2.12496      4.36675     16.37756        -0.081577     -0.125051     -0.851667
      9.93597     14.49080     17.44250         1.174711     -0.731869      0.042508
 -----------------------------------------------------------------------------------
    total drift:                               -0.003809      0.003425      0.002242


--------------------------------------------------------------------------------------------------------



  FREE ENERGIE OF THE ION-ELECTRON SYSTEM (eV)
  ---------------------------------------------------
  free  energy   TOTEN  =      -896.30254248 eV

  energy  without entropy=     -896.09987484  energy(sigma->0) =     -896.20120866



--------------------------------------------------------------------------------------------------------


    POTLOK:  cpu time      4.0283: real time      4.0400


--------------------------------------------------------------------------------------------------------


     LOOP+:  cpu time   6437.9270: real time   6442.5621
    4ORBIT:  cpu time      0.0000: real time      0.0000



 total charge

# of ion       s       p       d       tot
------------------------------------------
    1        0.602   0.022   0.000   0.623
    2        0.365   0.001   0.000   0.366
    3        0.571   0.028   0.000   0.600
    4        0.587   0.018   0.000   0.605
    5        0.569   0.017   0.000   0.587
    6        0.581   0.028   0.000   0.609
    7        0.594   0.033   0.000   0.627
    8        0.562   0.027   0.000   0.588
    9        0.538   0.014   0.000   0.552
   10        0.640   0.037   0.000   0.678
   11        0.583   0.020   0.000   0.603
   12        0.623   0.035   0.000   0.658
   13        0.370   0.001   0.000   0.372
   14        0.566   0.019   0.000   0.585
   15        0.579   0.019   0.000   0.598
   16        0.644   0.047   0.000   0.691
   17        0.625   0.041   0.000   0.666
   18        0.584   0.027   0.000   0.610
   19        0.570   0.024   0.000   0.594
   20        0.556   0.013   0.000   0.569
   21        0.532   0.017   0.000   0.548
   22        0.553   0.018   0.000   0.572
   23        0.556   0.029   0.000   0.584
   24        0.486   0.010   0.000   0.497
   25        0.586   0.017   0.000   0.603
   26        0.622   0.037   0.000   0.659
   27        0.606   0.032   0.000   0.639
   28        0.589   0.020   0.000   0.609
   29        0.614   0.035   0.000   0.649
   30        0.627   0.039   0.000   0.666
   31        0.558   0.024   0.000   0.582
   32        0.553   0.024   0.000   0.577
   33        0.524   0.012   0.000   0.536
   34        0.572   0.018   0.000   0.590
   35        0.585   0.022   0.000   0.608
   36        0.598   0.033   0.000   0.631
   37        0.579   0.028   0.000   0.608
   38        0.578   0.015   0.000   0.593
   39        0.581   0.030   0.000   0.611
   40        0.598   0.019   0.000   0.617
   41        0.655   0.043   0.000   0.698
   42        0.600   0.030   0.000   0.630
   43        0.763   1.023   0.000   1.786
   44        0.757   0.922   0.000   1.679
   45        0.780   0.880   0.000   1.660
   46        0.768   0.970   0.000   1.739
   47        0.747   0.980   0.000   1.727
   48        0.777   0.918   0.000   1.695
   49        0.869   0.713   0.000   1.582
   50        0.778   0.865   0.000   1.643
   51        0.778   0.899   0.000   1.678
   52        0.802   0.799   0.000   1.601
   53        0.787   0.837   0.000   1.625
   54        0.749   0.947   0.000   1.696
   55        0.765   0.985   0.000   1.750
   56        0.795   0.869   0.000   1.665
   57        0.868   0.718   0.000   1.585
   58        0.807   0.847   0.000   1.655
   59        0.768   1.016   0.000   1.784
   60        0.770   0.912   0.000   1.683
   61        0.871   0.736   0.000   1.608
   62        0.752   0.958   0.000   1.710
   63        0.782   0.890   0.000   1.672
   64        0.770   0.870   0.000   1.639
   65        0.769   0.977   0.000   1.746
   66        0.768   0.967   0.000   1.735
   67        0.762   0.897   0.000   1.659
   68        0.752   0.987   0.000   1.739
   69        0.830   0.789   0.000   1.618
   70        0.780   0.897   0.000   1.677
   71        0.799   0.829   0.000   1.629
   72        0.767   0.885   0.000   1.652
   73        0.768   0.916   0.000   1.684
   74        0.787   0.870   0.000   1.657
   75        0.781   0.876   0.000   1.657
   76        0.770   0.914   0.000   1.684
   77        0.852   0.763   0.000   1.615
   78        0.780   0.938   0.000   1.718
   79        0.788   0.887   0.000   1.675
   80        0.810   0.887   0.000   1.698
   81        0.770   0.989   0.000   1.759
   82        0.756   1.106   0.000   1.862
   83        0.759   0.971   0.000   1.729
   84        0.778   0.886   0.000   1.664
   85        0.762   0.900   0.000   1.662
   86        0.764   0.925   0.000   1.688
   87        0.758   0.947   0.000   1.705
   88        0.769   0.974   0.000   1.742
   89        0.767   0.933   0.000   1.699
   90        0.765   0.948   0.000   1.713
   91        0.797   0.864   0.000   1.661
   92        0.760   0.952   0.000   1.712
   93        0.764   1.016   0.000   1.780
   94        0.778   0.954   0.000   1.731
   95        0.794   0.863   0.000   1.658
   96        0.800   0.854   0.000   1.654
   97        0.757   0.937   0.000   1.694
   98        0.843   0.792   0.000   1.634
   99        0.767   0.986   0.000   1.753
  100        0.763   0.943   0.000   1.706
  101        0.759   1.030   0.000   1.789
  102        0.799   0.890   0.000   1.689
  103        0.750   1.020   0.000   1.770
  104        0.788   0.886   0.000   1.674
  105        0.793   0.871   0.000   1.663
  106        0.764   1.035   0.000   1.798
  107        0.786   0.849   0.000   1.636
  108        0.783   0.864   0.000   1.648
  109        0.775   0.989   0.000   1.764
  110        0.756   0.992   0.000   1.748
  111        0.773   0.933   0.000   1.705
  112        0.759   0.941   0.000   1.701
  113        0.808   0.921   0.000   1.729
  114        0.768   0.886   0.000   1.654
  115        0.807   0.822   0.000   1.629
  116        0.761   0.934   0.000   1.695
  117        0.797   0.898   0.000   1.696
  118        0.782   0.883   0.000   1.665
  119        0.770   0.992   0.000   1.762
  120        0.773   0.867   0.000   1.640
  121        0.845   0.803   0.000   1.648
  122        0.855   0.763   0.000   1.618
  123        0.833   0.795   0.000   1.628
  124        0.753   0.924   0.000   1.677
  125        0.786   0.848   0.000   1.634
--------------------------------------------------
tot         89.024  76.233   0.000 165.257


 total amount of memory used by VASP MPI-rank0   388665. kBytes
=======================================================================

   base                                    :      30000. kBytes
   nonl-proj                               :      89929. kBytes
   fftplans                                :     110224. kBytes
   grid                                    :      85039. kBytes
   one-center                              :         24. kBytes
   wavefun                                 :      73449. kBytes

  
  
 General timing and accounting informations for this job:
 ========================================================
  
                  Total CPU time used (sec):     6592.821
                            User time (sec):     5865.065
                          System time (sec):      727.755
                         Elapsed time (sec):     6597.452
  
                   Maximum memory used (kb):      660160.
                   Average memory used (kb):          N/A
  
                          Minor page faults:     10124894
                          Major page faults:         1196
                 Voluntary context switches:         3135
