ITEM: TIMESTEP
168471
ITEM: NUMBER OF ATOMS
14500
ITEM: BOX BOUNDS pp pp pp
-1.7429327034122850e+00 5.9664116309588401e+01
-1.7429327034122850e+00 5.9664116309588401e+01
-1.7429327034122850e+00 6.3461120554680633e+01
ITEM: ATOMS id type xs ys zs
1 2 0.349552 0.375361 0.291817
2 2 0.175148 0.0385297 0.271013
3 2 0.173064 0.0576041 0.212647
4 2 0.528323 0.145758 0.219116
5 2 0.0437139 0.476812 0.997688
6 2 0.664564 0.198494 0.115601
7 2 0.306175 0.414267 0.65388
8 2 0.286034 0.18354 0.44862
9 2 0.440078 0.205334 0.0517841
10 2 0.826784 0.0868568 0.178158
11 2 0.285012 0.855664 0.774786
12 2 0.345752 0.84057 0.257401
13 2 0.472559 0.0577609 0.56793
14 2 0.255273 0.32665 0.0736897
15 2 0.238232 0.414674 0.441722
16 2 0.295989 0.180275 0.112333
17 2 0.698614 0.180854 0.621623
18 2 0.120265 0.12767 0.177476
19 2 0.30253 0.988218 0.482939
20 2 0.0903718 0.232182 0.849391
21 2 0.417362 0.946726 0.551694
22 2 0.337906 0.0981684 0.0410889
23 2 0.325612 0.229588 0.81794
24 2 0.184399 0.673283 0.373103
25 2 0.662154 0.924346 0.121753
26 2 0.476781 0.642166 0.123868
27 2 0.0625063 0.86054 0.402058
28 2 0.200474 0.552124 0.365497
29 2 0.220336 0.576794 0.741225
30 2 0.248314 0.90551 0.427329
31 2 0.727235 0.898368 0.13607
32 2 0.365232 0.272985 0.98738
33 2 0.356084 0.392774 0.0708368
34 2 0.380555 0.338535 0.248636
35 2 0.0595153 0.396566 0.040843
36 2 0.306455 0.433247 0.951109
37 2 0.251014 0.985197 0.248382
38 2 0.580364 0.567729 0.343419
39 2 0.26921 0.802037 0.824255
40 2 0.297998 0.310795 0.460533
41 2 0.183921 0.235429 0.58352
42 2 0.0255489 0.0282242 0.591142
43 2 0.258666 0.14703 0.1881
44 2 0.578854 0.969569 0.508674
45 2 0.291031 0.246906 0.90587
46 2 0.0139982 0.806795 0.921249
47 2 0.39074 0.430165 0.172678
48 2 0.439053 0.197882 0.522516
49 2 0.903388 0.920881 0.1387
50 2 0.878537 0.632472 0.113927
51 2 0.282763 0.332575 0.379402
52 2 0.365373 0.114825 0.986871
53 2 0.153619 0.293999 0.243566
54 2 0.263176 0.415958 0.602121
55 2 0.042354 0.355437 0.641422
56 2 0.499408 0.0681834 0.349971
57 2 0.381255 0.25152 0.0491206
58 2 0.175754 0.343675 0.391626
59 2 0.256953 0.126476 0.0318851
60 2 0.29306 0.349531 0.28932
61 2 0.515669 0.237774 0.13241
62 2 0.851905 0.0691444 0.788622
63 2 0.0647658 0.0379783 0.369415
64 2 0.218816 0.351194 0.314674
65 2 0.220743 0.23648 0.969847
66 2 0.0341221 0.589425 0.555711
67 2 0.290873 0.225146 0.558584
68 2 0.0932502 0.770437 0.112006
69 2 0.0143949 0.102519 0.0134683
70 2 0.292992 0.386123 0.302674
71 2 0.0255361 0.457381 0.461728
72 2 0.173254 0.832304 0.277892
73 2 0.106846 0.110417 0.00796858
74 2 0.17357 0.895936 0.443197
75 2 0.321695 0.973985 0.978133
76 2 0.031528 0.801886 0.636808
77 2 0.141097 0.791699 0.530932
78 2 0.297414 0.108199 0.496793
79 2 0.388693 0.734648 0.245505
80 2 0.016767 0.152558 0.402937
81 2 0.160933 0.366229 0.448278
82 2 0.121152 0.463572 0.432861
83 2 0.0117562 0.970659 0.155184
84 2 0.547617 0.34068 0.28435
85 2 0.834924 0.865138 0.934774
86 2 0.352768 0.63889 0.704045
87 2 0.353969 0.147746 0.969402
88 2 0.98153 0.15779 0.563293
89 2 0.162104 0.045455 0.903061
90 2 0.555326 0.0856361 0.429886
91 2 0.79104 0.380358 0.0356886
92 2 0.217175 0.352479 0.430996
93 2 0.348995 0.24584 0.58751
94 2 0.384767 0.343831 0.0401385
95 2 0.18672 0.238242 0.312437
96 2 0.602789 0.0824015 0.326373
97 2 0.0898211 0.117588 0.121501
98 2 0.285389 0.275744 0.47531
99 2 0.22159 0.264103 0.64979
100 2 0.305458 0.334583 0.324404
101 2 0.103554 0.951324 0.549612
102 2 0.00800352 0.662014 0.32438
103 2 0.375478 0.907706 0.0896287
104 2 0.139362 0.123505 0.300334
105 2 0.218433 0.469169 0.27271
106 2 0.377513 0.0269174 0.325182
107 2 0.256217 0.280427 0.280005
108 2 0.289858 0.183855 0.486169
109 2 0.135404 0.295295 0.164304
110 2 0.0958094 0.376649 0.117296
111 2 0.694016 0.423544 0.357843
112 2 0.0854244 0.345024 0.329199
113 2 0.0182106 0.196495 0.190865
114 2 0.00246212 0.281792 0.454434
115 2 0.542739 0.916543 0.941832
116 2 0.525564 0.643408 0.333396
117 2 0.228101 0.12986 0.331921
118 2 0.0501467 0.219423 0.263941
119 2 0.261687 0.238943 0.229746
120 2 0.416489 0.694792 0.43095
121 2 0.984346 0.522349 0.612428
122 2 0.0792837 0.292826 0.20129
123 2 0.982721 0.709611 0.579146
124 2 0.195906 0.13839 0.487231
125 2 0.483917 0.684946 0.312804
126 2 0.876519 0.443362 0.355278
127 2 0.12882 0.765887 0.939241
128 2 0.926444 0.219331 0.281538
129 2 0.430309 0.18021 0.924587
130 2 0.267553 0.0780602 0.33662
131 2 0.143782 0.149674 0.839626
132 2 0.332337 0.00332314 0.0362578
133 2 0.727484 0.317257 0.376518
134 2 0.794368 0.680168 0.609488
135 2 0.293274 0.409906 0.274331
136 2 0.485005 0.0672404 0.910874
137 2 0.402009 0.182885 0.223817
138 2 0.294995 0.681539 0.409444
139 2 0.0213041 0.909638 0.41057
140 2 0.114679 0.370963 0.912147
141 2 0.0732015 0.106044 0.33167
142 2 0.253268 0.295401 0.225163
143 2 0.314997 0.273386 0.309595
144 2 0.248276 0.284972 0.410588
145 2 0.382472 0.305957 0.586721
146 2 0.000519275 0.556868 0.67557
147 2 0.988498 0.0183493 0.679657
148 2 0.33765 0.0851141 0.238362
149 2 0.273567 0.370622 0.508386
150 2 0.035394 0.367085 0.487223
151 2 0.0143859 0.279533 0.167295
152 2 0.382547 0.750048 0.56775
153 2 0.0787273 0.0418274 0.580883
154 2 0.117411 0.177744 0.393233
155 2 0.366875 0.179981 0.548945
156 2 0.200745 0.17112 0.199116
157 2 0.780952 0.135474 0.0656558
158 2 0.503615 0.199131 0.328136
159 2 0.221752 0.0895819 0.447038
160 2 0.782037 0.352121 0.532004
161 2 0.873357 0.184824 0.265828
162 2 0.508653 0.154513 0.0334564
163 2 0.28353 0.228242 0.298115
164 2 0.589858 0.234927 0.213389
165 2 0.256843 0.478706 0.592909
166 2 0.361352 0.1733 0.0756757
167 2 0.147104 0.154079 0.778099
168 2 0.983797 0.40969 0.660789
169 2 0.349268 0.409091 0.700693
170 2 0.207727 0.0630995 0.333559
171 2 0.0828572 0.166653 0.242917
172 2 0.238576 0.339495 0.460398
173 2 0.256967 0.428402 0.380479
174 2 0.477746 0.105946 0.130104
175 2 0.0453656 0.419603 0.199468
176 2 0.393398 0.293437 0.307886
177 2 0.439682 0.39985 0.989692
178 2 0.316345 0.132725 0.168416
179 2 0.0389648 0.421501 0.877191
180 2 0.165505 0.104812 0.354258
181 2 0.290638 0.356771 0.566983
182 2 0.220828 0.228738 0.00582086
183 2 0.571295 0.507154 0.550268
184 2 0.945544 0.197204 0.207015
185 2 0.242796 0.417787 0.0220498
186 2 0.173344 0.144053 0.948896
187 2 0.923839 0.0620616 0.197194
188 2 0.0684306 0.416052 0.303521
189 2 0.178894 0.0680299 0.638116
190 2 0.164747 0.347349 0.150617
191 2 0.0448899 0.442483 0.350414
192 2 0.254673 0.109879 0.44936
193 2 0.966761 0.0754461 0.740886
194 2 0.280277 0.518022 0.263508
195 2 0.485115 0.2185 0.442314
196 2 0.482094 0.854382 0.389094
197 2 0.0536841 0.0823132 0.172619
198 2 0.91717 0.198687 0.445602
199 2 0.25181 0.584046 0.939615
200 2 0.376805 0.377821 0.432491
201 2 0.271813 0.137045 0.0647827
202 2 0.14069 0.231417 0.660709
203 2 0.087158 0.496689 0.33376
204 2 0.505993 0.062895 0.117547
205 2 0.48946 0.179775 0.388554
206 2 0.0260379 0.274383 0.110705
207 2 0.20629 0.112923 0.210649
208 2 0.677952 0.870403 0.0997939
209 2 0.916503 0.572059 0.516952
210 2 0.113091 0.120762 0.212856
211 2 0.511729 0.967895 0.186532
212 2 0.946321 0.86631 0.382698
213 2 0.953497 0.0156717 0.357997
214 2 0.411077 0.956227 0.698081
215 2 0.28095 0.190517 0.171319
216 2 0.895845 0.714474 0.407076
217 2 0.0915273 0.210139 0.15185
218 2 0.0967971 0.411099 0.326899
219 2 0.957239 0.0371235 0.575636
220 2 0.950022 0.398516 0.174985
221 2 0.305774 0.298002 0.148158
222 2 0.0890547 0.267096 0.03729
223 2 0.213907 0.643287 0.744071
224 2 0.191693 0.884208 0.818296
225 2 0.797539 0.504175 0.548485
226 2 0.612426 0.205762 0.691209
227 2 0.423354 0.986535 0.346509
228 2 0.22166 0.266853 0.0718162
229 2 0.336123 0.141048 0.442196
230 2 0.339235 0.252448 0.29091
231 2 0.2412 0.548367 0.314834
232 2 0.973867 0.788239 0.969306
233 2 0.0724154 0.00855839 0.155296
234 2 0.267603 0.907391 0.394939
235 2 0.182582 0.999517 0.106593
236 2 0.218161 0.865101 0.199674
237 2 0.0340548 0.915621 0.320472
238 2 0.217029 0.174555 0.983124
239 2 0.991476 0.110326 0.118967
240 2 0.901918 0.129329 0.420068
241 2 0.377089 0.274362 0.42661
242 2 0.00362552 0.439468 0.92868
243 2 0.41015 0.937287 0.275436
244 2 0.110598 0.182154 0.224484
245 2 0.340223 0.744587 0.915205
246 2 0.792299 0.383102 0.660248
247 2 0.969136 0.262729 0.454463
248 2 0.284388 0.246245 0.1753
249 2 0.430365 0.758541 0.289826
250 2 0.262972 0.173954 0.372401
251 2 0.520871 0.582314 0.954894
252 2 0.134454 0.737917 0.851821
253 2 0.154973 0.596385 0.342004
254 2 0.118855 0.184337 0.151809
255 2 0.419041 0.219506 0.270439
256 2 0.54939 0.0545032 0.00976648
257 2 0.398769 0.360091 0.379003
258 2 0.493504 0.0742294 0.782629
259 2 0.378283 0.549914 0.26637
260 2 0.367396 0.116671 0.287268
261 2 0.0483408 0.512137 0.982342
262 2 0.280144 0.300238 0.0121944
263 2 0.615245 0.0635254 0.0618166
264 2 0.116401 0.177028 0.841359
265 2 0.369248 0.0792328 0.293446
266 2 0.130665 0.518838 0.301884
267 2 0.933798 0.507993 0.0691189
268 2 0.20698 0.273407 0.970541
269 2 0.235387 0.401073 0.551247
270 2 0.22216 0.178397 0.90748
271 2 0.0879809 0.2683 0.270032
272 2 0.93787 0.246912 0.258485
273 2 0.611201 0.348878 0.178817
274 2 0.272546 0.177498 0.271795
275 2 0.350892 0.152925 0.237955
276 2 0.619163 0.60556 0.317995
277 2 0.646017 0.894267 0.342852
278 2 0.547578 0.156709 0.0333694
279 2 0.198491 0.398993 0.978331
280 2 0.0433116 0.135252 0.293854
281 2 0.0636945 0.15693 0.0516432
282 2 0.268476 0.760894 0.16002
283 2 0.439055 0.0484567 0.156252
284 2 0.262327 0.394311 0.324236
285 2 0.381534 0.135942 0.15452
286 2 0.944198 0.896173 0.505999
287 2 0.288611 0.248319 0.113936
288 2 0.679502 0.0969468 0.187815
289 2 0.812473 0.369909 0.186504
290 2 0.118996 0.756469 0.430459
291 2 0.0597027 0.800455 0.566981
292 2 0.430574 0.130192 0.188947
293 2 0.0790339 0.928457 0.976514
294 2 0.308753 0.207991 0.636885
295 2 0.174934 0.392941 0.277235
296 2 0.0918337 0.342582 0.293237
297 2 0.140343 0.35428 0.383256
298 2 0.171137 0.787314 0.413295
299 2 0.871725 0.359584 0.40551
300 2 0.152136 0.428086 0.577561
301 2 0.239894 0.417551 0.0990946
302 2 0.155372 0.00368203 0.000316884
303 2 0.252521 0.234363 0.106463
304 2 0.0862562 0.808784 0.33172
305 2 0.23908 0.205993 0.128716
306 2 0.387518 0.325953 0.366143
307 2 0.821632 0.605853 0.661873
308 2 0.491569 0.793941 0.579638
309 2 0.908562 0.355501 0.113638
310 2 0.293886 0.120337 0.932757
311 2 0.248856 0.451568 0.886561
312 2 0.958603 0.0606493 0.399102
313 2 0.154733 0.755948 0.133638
314 2 0.339632 0.0282723 0.313323
315 2 0.720339 0.945977 0.40316
316 2 0.550529 0.743775 0.101289
317 2 0.428564 0.0262725 0.626194
318 2 0.137937 0.576984 0.169484
319 2 0.127646 0.481463 0.490163
320 2 0.574243 0.403718 0.278284
321 2 0.19593 0.500954 0.33409
322 2 0.51287 0.875497 0.39499
323 2 0.496645 0.0858537 0.417568
324 2 0.440446 0.123461 0.3458
325 2 0.406286 0.342146 0.94385
326 2 0.828383 0.457022 0.374981
327 2 0.186471 0.373251 0.00334048
328 2 0.149609 0.314651 0.133591
329 2 0.0357691 0.331378 0.949924
330 2 0.183574 0.565961 0.739458
331 2 0.249263 0.370677 0.133075
332 2 0.33396 0.668639 0.937926
333 2 0.441259 0.354456 0.588937
334 2 0.969025 0.0895187 0.868354
335 2 0.332203 0.30318 0.121518
336 2 0.257298 0.341663 0.645468
337 2 0.21316 0.650423 0.543627
338 2 0.325937 0.978344 0.189864
339 2 0.310349 0.442857 0.350014
340 2 0.234384 0.989356 0.55096
341 2 0.0656826 0.294687 0.993528
342 2 0.866999 0.28208 0.037352
343 2 0.0883576 0.269425 0.859347
344 2 0.259812 0.346176 0.265567
345 2 0.501687 0.195193 0.241997
346 2 0.500621 0.750241 0.389705
347 2 0.632421 0.219335 0.935492
348 2 0.23914 0.263331 0.209384
349 2 0.463489 0.708488 0.241298
350 2 0.650627 0.148393 0.592146
351 2 0.0145279 0.214148 0.0821494
352 2 0.0106223 0.865882 0.491635
353 2 0.466736 0.586571 0.392421
354 2 0.388261 0.0426308 0.38642
355 2 0.0492236 0.343901 0.2401
356 2 0.303083 0.514502 0.428394
357 2 0.214566 0.710134 0.240481
358 2 0.0991385 0.651903 0.619909
359 2 0.229817 0.562159 0.0764958
360 2 0.231947 0.506978 0.930375
361 2 0.274033 0.141786 0.285314
362 2 0.229611 0.710857 0.526774
363 2 0.986796 0.867761 0.779158
364 2 0.0278159 0.855922 0.332128
365 2 0.140236 0.0581775 0.407906
366 2 0.417653 0.184367 0.49445
367 2 0.325731 0.766055 0.307348
368 2 0.0330565 0.258997 0.886141
369 2 0.296776 0.395288 0.128593
370 2 0.973568 0.849127 0.360207
371 2 0.346278 0.721048 0.344545
372 2 0.240898 0.0546875 0.824238
373 2 0.994227 0.0317832 0.278327
374 2 0.500192 0.0173504 0.477503
375 2 0.417799 0.325217 0.236144
376 2 0.164453 0.100803 0.256112
377 2 0.158157 0.999637 0.416029
378 2 0.983881 0.211242 0.0020033
379 2 0.872096 0.152598 0.18551
380 2 0.587202 0.172095 0.118398
381 2 0.406199 0.602226 0.0505913
382 2 0.399881 0.862219 0.726233
383 2 0.00525059 0.304758 0.0528138
384 2 0.52563 0.23274 0.287372
385 2 0.20315 0.272462 0.254556
386 2 0.656169 0.0400441 0.161861
387 2 0.184176 0.113468 0.180033
388 2 0.618108 0.281865 0.372225
389 2 0.470306 0.0185165 0.420468
390 2 0.931403 0.369054 0.0634184
391 2 0.218423 0.316092 0.372039
392 2 0.106426 0.211006 0.0432428
393 2 0.407188 0.526707 0.499728
394 2 0.0907314 0.0309191 0.196387
395 2 0.388401 0.395885 0.466675
396 2 0.187918 0.268471 0.504995
397 2 0.948544 0.769202 0.415911
398 2 0.312092 0.478185 0.885683
399 2 0.298018 0.0200257 0.268831
400 2 0.218765 0.285166 0.713781
401 2 0.24428 0.204956 0.386512
402 2 0.159535 0.394741 0.84712
403 2 0.333821 0.770619 0.229055
404 2 0.442462 0.977657 0.4636
405 2 0.10894 0.250999 0.353707
406 2 0.93969 0.0750481 0.51651
407 2 0.0498679 0.478939 0.407355
408 2 0.399088 0.152996 0.123908
409 2 0.295 0.0201027 0.828965
410 2 0.117211 0.996515 0.59279
411 2 0.527357 0.960168 0.153973
412 2 0.9448 0.135156 0.23075
413 2 0.527348 0.146425 0.349353
414 2 0.0697981 0.37461 0.72681
415 2 0.640706 0.762652 0.283581
416 2 0.544992 0.69218 0.411648
417 2 0.335238 0.063219 0.298757
418 2 0.378632 0.190149 0.170016
419 2 0.575418 0.877374 0.428998
420 2 0.874693 0.453865 0.111422
421 2 0.0466493 0.872304 0.209188
422 2 0.138682 0.517816 0.588903
423 2 0.0830293 0.777532 0.834624
424 2 0.991102 0.998206 0.256509
425 2 0.312816 0.0549 0.149549
426 2 0.251696 0.806955 0.482557
427 2 0.378931 0.40518 0.559725
428 2 0.0638902 0.31266 0.0505578
429 2 0.0781465 0.265415 0.100339
430 2 0.103079 0.42373 0.999699
431 2 0.271933 0.439806 0.514784
432 2 0.641383 0.963969 0.517907
433 2 0.435225 0.122165 0.44176
434 2 0.115716 0.338437 0.192498
435 2 0.213104 0.138746 0.861937
436 2 0.317647 0.642952 0.196409
437 2 0.298599 0.00358516 0.206516
438 2 0.831322 0.606134 0.188798
439 2 0.824889 0.10346 0.309918
440 2 0.416852 0.0804182 0.000341046
441 2 0.41094 0.361467 0.167244
442 2 0.207982 0.546245 0.0178718
443 2 0.534912 0.211019 0.0636261
444 2 0.319143 0.51985 0.64653
445 2 0.243012 0.3076 0.694448
446 2 0.179019 0.209809 0.728206
447 2 0.11301 0.250426 0.921603
448 2 0.408141 0.085516 0.215708
449 2 0.305276 0.302566 0.631887
450 2 0.107215 0.947704 0.408692
451 2 0.825616 0.408917 0.478476
452 2 0.306197 0.174445 0.61829
453 2 0.394692 0.430219 0.430886
454 2 0.0389581 0.332332 0.431966
455 2 0.148561 0.618033 0.20704
456 2 0.796675 0.598619 0.203237
457 2 0.111315 0.965999 0.940169
458 2 0.323784 0.230717 0.895089
459 2 0.346917 0.105538 0.209036
460 2 0.407063 0.245088 0.638232
461 2 0.308383 0.197187 0.700593
462 2 0.60349 0.259161 0.274358
463 2 0.246681 0.387803 0.0469617
464 2 0.467581 0.357598 0.214411
465 2 0.326223 0.429337 0.270358
466 2 0.988039 0.325465 0.192061
467 2 0.428448 0.863081 0.368966
468 2 0.079953 0.875134 0.455865
469 2 0.33089 0.197434 0.191172
470 2 0.785741 0.193574 0.313707
471 2 0.988134 0.0756983 0.221305
472 2 0.513178 0.358626 0.488139
473 2 0.112926 0.372081 0.281027
474 2 0.141673 0.300702 0.908387
475 2 0.371584 0.669142 0.302153
476 2 0.136533 0.259584 0.437894
477 2 0.710804 0.120389 0.818353
478 2 0.451812 0.30224 0.926568
479 2 0.105727 0.145469 0.101732
480 2 0.0233996 0.945264 0.623002
481 2 0.211348 0.254725 0.562876
482 2 0.277853 0.173241 0.33634
483 2 0.242137 0.139055 0.425746
484 2 0.594606 0.022337 0.862526
485 2 0.535473 0.961906 0.411275
486 2 0.0236891 0.362733 0.31447
487 2 0.4636 0.493003 0.272214
488 2 0.380071 0.146311 0.536328
489 2 0.169603 0.330012 0.63489
490 2 0.262468 0.0535622 0.979237
491 2 0.171851 0.220785 0.249334
492 2 0.971806 0.0601946 0.432922
493 2 0.953651 0.551923 0.213465
494 2 0.287576 0.562877 0.0862949
495 2 0.0674684 0.441589 0.176725
496 2 0.908124 0.737174 0.894145
497 2 0.70067 0.316825 0.0988952
498 2 0.455613 0.699161 0.532422
499 2 0.995954 0.350641 0.0143679
500 2 0.71982 0.0397758 0.384785
501 2 0.347192 0.321261 0.941492
502 2 0.720185 0.487617 0.125204
503 2 0.513987 0.126238 0.458205
504 2 0.440228 0.475088 0.490711
505 2 0.325662 0.268282 0.991069
506 2 0.188134 0.438258 0.115098
507 2 0.191666 0.409815 0.139758
508 2 0.0761371 0.0620379 0.120678
509 2 0.735798 0.535241 0.433549
510 2 0.154777 0.173384 0.0415703
511 2 0.36125 0.481229 0.191824
512 2 0.821486 0.361469 0.738509
513 2 0.694268 0.359351 0.353916
514 2 0.343497 0.0892188 0.00566684
515 2 0.93516 0.296997 0.493839
516 2 0.590473 0.30404 0.981448
517 2 0.251681 0.139194 0.387659
518 2 0.00956227 0.113841 0.339488
519 2 0.231721 0.184373 0.469544
520 2 0.850917 0.420583 0.985509
521 2 0.958579 0.428043 0.683687
522 2 0.80373 0.283343 0.304535
523 2 0.902318 0.673836 0.353453
524 2 0.199627 0.439054 0.353345
525 2 0.474919 0.549165 0.217275
526 2 0.189966 0.289007 0.0648712
527 2 0.501531 0.262983 0.638689
528 2 0.977525 0.436253 0.95815
529 2 0.487424 0.327364 0.256944
530 2 0.0126466 0.511821 0.069352
531 2 0.241558 0.703085 0.761984
532 2 0.173311 0.302942 0.322979
533 2 0.138036 0.198844 0.0630611
534 2 0.278045 0.220697 0.440387
535 2 0.313471 0.143287 0.237502
536 2 0.0936844 0.648226 0.387251
537 2 0.831618 0.276477 0.177323
538 2 0.736361 0.955612 0.130922
539 2 0.07202 0.159473 0.301645
540 2 0.331686 0.126838 0.297099
541 2 0.312523 0.71112 0.863558
542 2 0.969483 0.42254 0.0614985
543 2 0.124459 0.316175 0.738508
544 2 0.500405 0.695126 0.239384
545 2 0.3762 0.577511 0.82895
546 2 0.333611 0.892469 0.253143
547 2 0.190028 0.00998318 0.36882
548 2 0.324932 0.0315223 0.0137111
549 2 0.0918066 0.160809 0.864515
550 2 0.339433 0.16995 0.369072
551 2 0.0370259 0.180561 0.0344989
552 2 0.0381233 0.0682332 0.116486
553 2 0.130876 0.123656 0.694857
554 2 0.527855 0.260353 0.418693
555 2 0.422467 0.384066 0.898128
556 2 0.279466 0.235852 0.5219
557 2 0.0823541 0.334417 0.591714
558 2 0.237432 0.401529 0.295894
559 2 0.954485 0.323728 0.625555
560 2 0.345392 0.97727 0.451835
561 2 0.597435 0.897816 0.618915
562 2 0.439857 0.399525 0.352197
563 2 0.339889 0.0688225 0.374876
564 2 0.152213 0.415963 0.409006
565 2 0.355181 0.423943 0.610496
566 2 0.612822 0.946612 0.674424
567 2 0.0876747 0.0202334 0.428305
568 2 0.737174 0.142989 0.401886
569 2 0.0342587 0.399427 0.30784
570 2 0.543889 0.262581 0.229205
571 2 0.822421 0.267554 0.231548
572 2 0.84985 0.582283 0.484081
573 2 0.307973 0.368316 0.488668
574 2 0.0515359 0.539136 0.222759
575 2 0.308884 0.633288 0.442207
576 2 0.363346 0.639375 0.237595
577 2 0.159985 0.49546 0.315713
578 2 0.423497 0.376422 0.518367
579 2 0.324281 0.848797 0.603752
580 2 0.633004 0.909009 0.101353
581 2 0.378701 0.997876 0.96434
582 2 0.411212 0.232109 0.573992
583 2 0.369187 0.392845 0.593118
584 2 0.512983 0.980981 0.259964
585 2 0.0542986 0.191222 0.237334
586 2 0.261473 0.295009 0.334923
587 2 0.403884 0.177806 0.992741
588 2 0.0507488 0.573069 0.972909
589 2 0.975174 0.239417 0.920204
590 2 0.128723 0.826282 0.453457
591 2 0.491205 0.0235122 0.0788821
592 2 0.368515 0.520653 0.828024
593 2 0.473624 0.181012 0.528313
594 2 0.0593109 0.262885 0.188489
595 2 0.257851 0.944279 0.629081
596 2 0.483306 0.188671 0.565231
597 2 0.294273 0.427011 0.455383
598 2 0.394941 0.993738 0.905196
599 2 0.835253 0.719049 0.178209
600 2 0.460034 0.209834 0.205315
601 2 0.383173 0.970728 0.209192
602 2 0.434578 0.182316 0.461319
603 2 0.280908 0.444486 0.976711
604 2 0.407557 0.389817 0.123213
605 2 0.135354 0.323682 0.256703
606 2 0.707528 0.040989 0.886897
607 2 0.404114 0.1099 0.0568286
608 2 0.15045 0.068725 0.274205
609 2 0.311098 0.119763 0.203768
610 2 0.933426 0.0328595 0.17468
611 2 0.0137896 0.230514 0.422816
612 2 0.163568 0.574546 0.0555439
613 2 0.14773 0.256092 0.359854
614 2 0.817228 0.649506 0.982083
615 2 0.160489 0.192204 0.905585
616 2 0.460807 0.248729 0.581676
617 2 0.305763 0.500283 0.570814
618 2 0.648526 0.691255 0.474699
619 2 0.27466 0.258996 0.418181
620 2 0.21732 0.15715 0.255919
621 2 0.191568 0.222694 0.0280762
622 2 0.266537 0.534664 0.200638
623 2 0.187859 0.163019 0.278499
624 2 0.959191 0.9439 0.235177
625 2 0.777566 0.282854 0.400043
626 2 0.944169 0.992052 0.294001
627 2 0.185967 0.824616 0.989587
628 2 0.386098 0.331678 0.159187
629 2 0.607717 0.78131 0.536987
630 2 0.0173914 0.949054 0.41498
631 2 0.162114 0.0929568 0.79332
632 2 0.380744 0.592234 0.0247432
633 2 0.179519 0.0876387 0.325585
634 2 0.999637 0.489496 0.628149
635 2 0.239546 0.132174 0.274056
636 2 0.424541 0.972288 0.271288
637 2 0.735806 0.233497 0.496906
638 2 0.198527 0.158583 0.0103234
639 2 0.135485 0.575797 0.825674
640 2 0.218043 0.899053 0.0439168
641 2 0.305107 0.124275 0.270276
642 2 0.315713 0.184994 0.341915
643 2 0.12268 0.69338 0.35904
644 2 0.210819 0.23711 0.494247
645 2 0.766758 0.48472 0.425222
646 2 0.354042 0.435759 0.557967
647 2 0.20928 0.230301 0.433135
648 2 0.972881 0.498318 0.18367
649 2 0.445711 0.031524 0.475732
650 2 0.481851 0.391706 0.106756
651 2 0.246609 0.203625 0.222206
652 2 0.950443 0.725939 0.0352908
653 2 0.193319 0.922039 0.0643924
654 2 0.112851 0.921625 0.993826
655 2 0.869352 0.372024 0.706707
656 2 0.27341 0.425983 0.346738
657 2 0.211452 0.399666 0.230974
658 2 0.188959 0.549015 0.799721
659 2 0.371865 0.155226 0.184215
660 2 0.202784 0.339121 0.153668
661 2 0.296981 0.245415 0.329766
662 2 0.688794 0.61335 0.415983
663 2 0.192993 0.114306 0.456416
664 2 0.371752 0.316325 0.835916
665 2 0.325321 0.951978 0.0583294
666 2 0.877873 0.0170777 0.187335
667 2 0.308034 0.555034 0.474281
668 2 0.0676814 0.960561 0.541442
669 2 0.310492 0.0752298 0.0597651
670 2 0.461976 0.271891 0.182435
671 2 0.99481 0.174789 0.131224
672 2 0.509734 0.236498 0.1696
673 2 0.0820957 0.231598 0.280267
674 2 0.195814 0.48346 0.483563
675 2 0.106878 0.685722 0.705672
676 2 0.0298421 0.671454 0.266785
677 2 0.47523 0.620482 0.444147
678 2 0.323077 0.11625 0.331909
679 2 0.582142 0.829565 0.337352
680 2 0.0372934 0.0243083 0.156041
681 2 0.048974 0.391955 0.463773
682 2 0.145603 0.200731 0.174064
683 2 0.619935 0.63448 0.0797143
684 2 0.260315 0.605881 0.137571
685 2 0.0751485 0.194272 0.981555
686 2 0.849421 0.231026 0.55856
687 2 0.266773 0.679111 0.267768
688 2 0.511657 0.508261 0.440607
689 2 0.364737 0.991911 0.928292
690 2 0.590557 0.403373 0.449618
691 2 0.607445 0.655261 0.150436
692 2 0.102043 0.376761 0.341866
693 2 0.510445 0.357134 0.970389
694 2 0.179433 0.793534 0.017657
695 2 0.567854 0.173227 0.569143
696 2 0.597952 0.383902 0.223003
697 2 0.356679 0.313894 0.385168
698 2 0.282126 0.856041 0.321699
699 2 0.770493 0.161507 0.225557
700 2 0.364732 0.272319 0.151556
701 2 0.315673 0.798268 0.433881
702 2 0.378157 0.314228 0.773184
703 2 0.186933 0.133788 0.525401
704 2 0.161047 0.155221 0.234756
705 2 0.308155 0.303026 0.25355
706 2 0.499072 0.104244 0.731912
707 2 0.223853 0.227732 0.156117
708 2 0.248698 0.359837 0.338333
709 2 0.349738 0.945258 0.768983
710 2 0.0970485 0.500875 0.297816
711 2 0.488471 0.115314 0.16531
712 2 0.508435 0.188423 0.981745
713 2 0.850143 0.615897 0.60017
714 2 0.0466326 0.610238 0.335896
715 2 0.26805 0.772312 0.283747
716 2 0.48403 0.363855 0.297451
717 2 0.274845 0.0877472 0.988239
718 2 0.163655 0.265298 0.326083
719 2 0.962031 0.903655 0.731907
720 2 0.0870017 0.143343 0.332652
721 2 0.167333 0.151461 0.809756
722 2 0.585014 0.244091 0.433949
723 2 0.476973 0.251171 0.125145
724 2 0.311099 0.2832 0.0252428
725 2 0.298016 0.439636 0.219127
726 2 0.35646 0.220784 0.176206
727 2 0.299881 0.364825 0.17866
728 2 0.0325993 0.818711 0.54737
729 2 0.211806 0.385626 0.490545
730 2 0.143941 0.647554 0.229955
731 2 0.54653 0.31293 0.855578
732 2 0.909446 0.260886 0.0744243
733 2 0.515033 0.182065 0.359161
734 2 0.43603 0.381565 0.145952
735 2 0.523227 0.117355 0.0833899
736 2 0.937696 0.07289 0.124341
737 2 0.882692 0.077466 0.243737
738 2 0.000109874 0.364298 0.379584
739 2 0.903714 0.3373 0.0237678
740 2 0.345218 0.603381 0.688813
741 2 0.434386 0.161694 0.359372
742 2 0.0248697 0.444218 0.0667789
743 2 0.458603 0.439987 0.245121
744 2 0.171425 0.203797 0.322746
745 2 0.269137 0.00916663 0.183241
746 2 0.000489298 0.367194 0.500882
747 2 0.372778 0.0320652 0.186197
748 2 0.419051 0.238607 0.144412
749 2 0.0891514 0.156482 0.0249969
750 2 0.104389 0.0383763 0.302192
751 2 0.187043 0.292608 0.191475
752 2 0.426278 0.56188 0.718386
753 2 0.97413 0.246815 0.361983
754 2 0.123501 0.580484 0.483087
755 2 0.200969 0.11265 0.308803
756 2 0.237359 0.953731 0.2302
757 2 0.268298 0.142024 0.891279
758 2 0.978201 0.229119 0.160549
759 2 0.0809602 0.551498 0.542436
760 2 0.112502 0.216453 0.264026
761 2 0.430791 0.891301 0.00934766
762 2 0.363495 0.133446 0.416479
763 2 0.416152 0.311075 0.451566
764 2 0.315384 0.934111 0.334566
765 2 0.523422 0.700871 0.541197
766 2 0.992429 0.366435 0.0465184
767 2 0.669058 0.329115 0.170329
768 2 0.397102 0.136102 0.302102
769 2 0.447382 0.388294 0.489933
770 2 0.624049 0.5219 0.154542
771 2 0.165514 0.441538 0.191529
772 2 0.487386 0.021168 0.174968
773 2 0.258494 0.14409 0.149876
774 2 0.672503 0.211081 0.34461
775 2 0.211684 0.123123 0.895351
776 2 0.284748 0.00803018 0.302725
777 2 0.140554 0.255468 0.00922707
778 2 0.113694 0.327579 0.379575
779 2 0.439598 0.237825 0.34095
780 2 0.334736 0.229796 0.448254
781 2 0.306971 0.257566 0.14685
782 2 0.876092 0.135494 0.0652807
783 2 0.210374 0.477034 0.211727
784 2 0.484427 0.517863 0.0945935
785 2 0.383607 0.124218 0.878309
786 2 0.152661 0.533528 0.0148326
787 2 0.232482 0.864582 0.493044
788 2 0.227114 0.117718 0.367649
789 2 0.00548597 0.157694 0.492891
790 2 0.671616 0.363207 0.386015
791 2 0.228821 0.199063 0.419371
792 2 0.261194 0.115398 0.486935
793 2 0.423619 0.317804 0.313023
794 2 0.199485 0.601383 0.964765
795 2 0.286084 0.135804 0.544259
796 2 0.515954 0.241845 0.530653
797 2 0.280901 0.057198 0.214213
798 2 0.429697 0.220854 0.409947
799 2 0.318409 0.559645 0.151206
800 2 0.496511 0.0940813 0.099059
801 2 0.295187 0.178145 0.23976
802 2 0.609879 0.479995 0.298646
803 2 0.15573 0.361504 0.326619
804 2 0.129724 0.633866 0.262144
805 2 0.427667 0.339742 0.529478
806 2 0.534141 0.376098 0.124915
807 2 0.537878 0.202956 0.227508
808 2 0.232104 0.0144025 0.231054
809 2 0.0545595 0.146326 0.396159
810 2 0.152836 0.270565 0.188678
811 2 0.0630439 0.694499 0.223338
812 2 0.214176 0.380027 0.52826
813 2 0.895606 0.934189 0.84788
814 2 0.934664 0.169673 0.370777
815 2 0.291162 0.944353 0.272882
816 2 0.153075 0.320099 0.020113
817 2 0.549762 0.990857 0.253846
818 2 0.9921 0.254379 0.187931
819 2 0.155184 0.912689 0.523858
820 2 0.204658 0.3005 0.154977
821 2 0.687797 0.498613 0.143018
822 2 0.109932 0.317472 0.34333
823 2 0.153217 0.919042 0.801573
824 2 0.644379 0.0832782 0.384995
825 2 0.0835312 0.791876 0.538829
826 2 0.539432 0.756962 0.037206
827 2 0.134636 0.267855 0.225619
828 2 0.0549167 0.294546 0.324593
829 2 0.381925 0.888982 0.121327
830 2 0.953072 0.402017 0.0113541
831 2 0.996079 0.548751 0.752186
832 2 0.904693 0.695554 0.725266
833 2 0.932879 0.150054 0.405689
834 2 0.985544 0.451279 0.383937
835 2 0.427609 0.234168 0.983929
836 2 0.314944 0.220756 0.35577
837 2 0.930117 0.153052 0.173568
838 2 0.332842 0.927508 0.302644
839 2 0.466364 0.124812 0.319026
840 2 0.113553 0.507073 0.972111
841 2 0.231883 0.19872 0.701973
842 2 0.0225789 0.918764 0.0253203
843 2 0.0284133 0.383977 0.119473
844 2 0.586139 0.952742 0.183864
845 2 0.677234 0.394627 0.516317
846 2 0.220727 0.943528 0.968002
847 2 0.99449 0.169455 0.72983
848 2 0.919248 0.25852 0.189564
849 2 0.16484 0.451213 0.364927
850 2 0.10221 0.292144 0.526748
851 2 0.0401703 0.203532 0.474808
852 2 0.495858 0.234292 0.342201
853 2 0.369604 0.949405 0.143718
854 2 0.0798475 0.138371 0.218499
855 2 0.879211 0.965309 0.527636
856 2 0.350437 0.27279 0.475837
857 2 0.228348 0.0453892 0.305733
858 2 0.256892 0.217287 0.575012
859 2 0.434773 0.388852 0.268962
860 2 0.0388239 0.21588 0.0522776
861 2 0.402178 0.282428 0.0823097
862 2 0.488849 0.36364 0.244282
863 2 0.800719 0.623838 0.253585
864 2 0.184164 0.332155 0.20427
865 2 0.195262 0.174686 0.472229
866 2 0.353794 0.554293 0.425942
867 2 0.1434 0.785326 0.308594
868 2 0.473256 0.328403 0.38616
869 2 0.229764 0.403551 0.132006
870 2 0.1747 0.127 0.284626
871 2 0.535244 0.2577 0.188807
872 2 0.0940146 0.368762 0.183725
873 2 0.522704 0.43358 0.331155
874 2 0.456409 0.882833 0.38408
875 2 0.192219 0.0461677 0.71184
876 2 0.658902 0.121176 0.13078
877 2 0.0267304 0.819527 0.179333
878 2 0.200716 0.138997 0.077138
879 2 0.683813 0.883416 0.490142
880 2 0.850356 0.774433 0.10496
881 2 0.190067 0.984747 0.471329
882 2 0.392098 0.618711 0.28943
883 2 0.319111 0.220161 0.286361
884 2 0.311475 0.288224 0.846508
885 2 0.013911 0.317796 0.0192135
886 2 0.0990354 0.160701 0.275429
887 2 0.313288 0.0398772 0.203137
888 2 0.312108 0.165998 0.425894
889 2 0.184981 0.000744776 0.185342
890 2 0.0533217 0.321637 0.207678
891 2 0.778497 0.905116 0.950109
892 2 0.260196 0.243397 0.269146
893 2 0.344784 0.214375 0.921823
894 2 0.00600465 0.451732 0.0975655
895 2 0.20725 0.30995 0.265308
896 2 0.125704 0.39359 0.137856
897 2 0.924082 0.427554 0.0110882
898 2 0.272552 0.334083 0.44304
899 2 0.238493 0.91607 0.242401
900 2 0.230229 0.0393087 0.517154
901 2 0.20958 0.591358 0.522642
902 2 0.267689 0.0241163 0.0406547
903 2 0.18135 0.339744 0.428552