 vasp.6.5.0 16Dec24 (build Jan 20 2025 08:32:48) complex                         
 executed on        HPECrayEX_GCC date 2025.07.21  14:20:47
 running  128 mpi-ranks, with    1 threads/rank, on    1 nodes
 distrk:  each k-point on  128 cores,    1 groups
 distr:  one band on NCORE=  16 cores,    8 groups


--------------------------------------------------------------------------------------------------------


 INCAR:
   SYSTEM = a-Si SPC
   NCORE = 16
   ISTART = 1
   ICHARG = 1
   ISPIN = 1
   ISYM = 1
   EDIFF = 1E-6
   NELM = 150
   EDIFFG = -0.01
   NSW = 0
   ISIF = 2
   IBRION = -1
   PREC = Accurate
   ENCUT = 1200
   KSPACING = 0.23
   KGAMMA = .TRUE.
   METAGGA = SCAN
   LASPH = .TRUE.
   LDIAG = .FALSE.
   LMIXTAU = .TRUE.
   ADDGRID = .TRUE.
   ALGO = Normal
   ISMEAR = 0
   SIGMA = 0.1
   LORBIT = 11
   NEDOS = 2000
   LWAVE = .FALSE.
   LCHARG = .FALSE.

 POTCAR:    PAW_PBE H 15Jun2001                   
 POTCAR:    PAW_PBE Si 05Jan2001                  
 POTCAR:    PAW_PBE H 15Jun2001                   
   SHA256 =  030f79b5d3ab3cf0e668861823c8fb652ff669f3e15e46930bd03bfd63a607b6 H/POTCAR              
   COPYR  = (c) Copyright 15Jun2001 Georg Kresse                                                    
   COPYR  = This file is part of the software VASP. Any use, copying, and all other rights are regul
   COPYR  = If you do not have a valid VASP license, you may not use, copy or distribute this file. 
   VRHFIN =H: ultrasoft test                                                                        
   LEXCH  = PE                                                                                      
   EATOM  =    12.4884 eV,    0.9179 Ry                                                             
                                                                                                    
   TITEL  = PAW_PBE H 15Jun2001                                                                     
   LULTRA =        F    use ultrasoft PP ?                                                          
   IUNSCR =        0    unscreen: 0-lin 1-nonlin 2-no                                               
   RPACOR =    0.000    partial core radius                                                         
   POMASS =    1.000; ZVAL   =    1.000    mass and valenz                                          
   RCORE  =    1.100    outmost cutoff radius                                                       
   RWIGS  =    0.700; RWIGS  =    0.370    wigner-seitz radius (au A)                               
   ENMAX  =  250.000; ENMIN  =  200.000 eV                                                          
   RCLOC  =    0.701    cutoff for local pot                                                        
   LCOR   =        T    correct aug charges                                                         
   LPAW   =        T    paw PP                                                                      
   EAUG   =  400.000                                                                                
   RMAX   =    1.123    core radius for proj-oper                                                   
   RAUG   =    1.200    factor for augmentation sphere                                              
   RDEP   =    1.112    radius for radial grids                                                     
   RDEPT  =    0.926    core radius for aug-charge                                                  
                                                                                                    
   Atomic configuration                                                                             
    2 entries                                                                                       
     n  l   j            E        occ.                                                              
     1  0  0.50        -6.4927   1.0000                                                             
     2  1  0.50        -3.4015   0.0000                                                             
   Description                                                                                      
     l       E           TYP  RCUT    TYP  RCUT                                                     
     0     -6.4927494     23  1.100                                                                 
     0      6.8029130     23  1.100                                                                 
     1     -4.0817478     23  1.100                                                                 
  local pseudopotential read in
  atomic valenz-charges read in
  non local Contribution for L=           0  read in
    real space projection operators read in
  non local Contribution for L=           0  read in
    real space projection operators read in
  non local Contribution for L=           1  read in
    real space projection operators read in
    PAW grid and wavefunctions read in

   number of l-projection  operators is LMAX  =           3
   number of lm-projection operators is LMMAX =           5

 POTCAR:    PAW_PBE Si 05Jan2001                  
   SHA256 =  79d9987ad8750f624c4d6acb2a16d13abf6a777132adc04dc6c8399be72b42bb Si/POTCAR             
   COPYR  = (c) Copyright 05Jan2001 Georg Kresse                                                    
   COPYR  = This file is part of the software VASP. Any use, copying, and all other rights are regul
   COPYR  = If you do not have a valid VASP license, you may not use, copy or distribute this file. 
   VRHFIN =Si: s2p2                                                                                 
   LEXCH  = PE                                                                                      
   EATOM  =   103.0669 eV,    7.5752 Ry                                                             
                                                                                                    
   TITEL  = PAW_PBE Si 05Jan2001                                                                    
   LULTRA =        F    use ultrasoft PP ?                                                          
   IUNSCR =        1    unscreen: 0-lin 1-nonlin 2-no                                               
   RPACOR =    1.500    partial core radius                                                         
   POMASS =   28.085; ZVAL   =    4.000    mass and valenz                                          
   RCORE  =    1.900    outmost cutoff radius                                                       
   RWIGS  =    2.480; RWIGS  =    1.312    wigner-seitz radius (au A)                               
   ENMAX  =  245.345; ENMIN  =  184.009 eV                                                          
   ICORE  =        2    local potential                                                             
   LCOR   =        T    correct aug charges                                                         
   LPAW   =        T    paw PP                                                                      
   EAUG   =  322.069                                                                                
   DEXC   =    0.000                                                                                
   RMAX   =    1.950    core radius for proj-oper                                                   
   RAUG   =    1.300    factor for augmentation sphere                                              
   RDEP   =    1.993    radius for radial grids                                                     
   RDEPT  =    1.837    core radius for aug-charge                                                  
                                                                                                    
   Atomic configuration                                                                             
    6 entries                                                                                       
     n  l   j            E        occ.                                                              
     1  0  0.50     -1785.8828   2.0000                                                             
     2  0  0.50      -139.4969   2.0000                                                             
     2  1  1.50       -95.5546   6.0000                                                             
     3  0  0.50       -10.8127   2.0000                                                             
     3  1  0.50        -4.0811   2.0000                                                             
     3  2  1.50        -4.0817   0.0000                                                             
   Description                                                                                      
     l       E           TYP  RCUT    TYP  RCUT                                                     
     0    -10.8127223     23  1.900                                                                 
     0     -7.6451159     23  1.900                                                                 
     1     -4.0811372     23  1.900                                                                 
     1      2.4879257     23  1.900                                                                 
     2     -4.0817478      7  1.900                                                                 
  local pseudopotential read in
  partial core-charges read in
  partial kinetic energy density read in
  atomic valenz-charges read in
  non local Contribution for L=           0  read in
    real space projection operators read in
  non local Contribution for L=           0  read in
    real space projection operators read in
  non local Contribution for L=           1  read in
    real space projection operators read in
  non local Contribution for L=           1  read in
    real space projection operators read in
    PAW grid and wavefunctions read in

   number of l-projection  operators is LMAX  =           4
   number of lm-projection operators is LMMAX =           8

 -----------------------------------------------------------------------------
|                                                                             |
|               ----> ADVICE to this user running VASP <----                  |
|                                                                             |
|     You have a (more or less) 'large supercell' and for larger cells it     |
|     might be more efficient to use real-space projection operators.         |
|     Therefore, try LREAL= Auto in the INCAR file.                           |
|     Mind: For very accurate calculation, you might also keep the            |
|     reciprocal projection scheme (i.e. LREAL=.FALSE.).                      |
|                                                                             |
 -----------------------------------------------------------------------------

 -----------------------------------------------------------------------------
|                                                                             |
|               ----> ADVICE to this user running VASP <----                  |
|                                                                             |
|     You enforced a specific xc type in the INCAR file but a different       |
|     type was found in the POTCAR file.                                      |
|     I HOPE YOU KNOW WHAT YOU ARE DOING!                                     |
|                                                                             |
 -----------------------------------------------------------------------------

  PAW_PBE H 15Jun2001                   :
 energy of atom  1       EATOM=  -12.4884
 kinetic energy error for atom=    0.0000 (will be added to EATOM!!)
  PAW_PBE Si 05Jan2001                  :
 energy of atom  2       EATOM= -103.0669
 kinetic energy error for atom=    0.0001 (will be added to EATOM!!)


 POSCAR:  H Si
  positions in cartesian coordinates
  No initial velocities read in


 exchange-correlation table for SCAN
   RHO(1)=    0.500       N(1)  =     2000
   RHO(2)=  100.500       N(2)  =     4000



--------------------------------------------------------------------------------------------------------


 ion  position               nearest neighbor table
   1  0.874  0.687  0.582-  23 1.46
   2  0.328  0.618  0.561-  17 1.57
   3  0.684  0.964  0.472-  30 1.49
   4  0.247  0.191  0.406-  47 1.62
   5  0.763  0.568  0.400-
   6  0.394  0.627  0.456-  33 2.33  42 2.33  17 2.34
   7  0.820  0.121  0.460-  59 2.24  11 2.25  26 2.42
   8  0.072  0.419  0.581-  39 2.30  18 2.34
   9  0.183  0.761  0.448-  57 2.26  41 2.32  36 2.45
  10  0.324  0.128  0.501-  34 2.31  15 2.33  20 2.42  53 2.43
  11  0.884  0.177  0.536-   7 2.25  45 2.31  13 2.37
  12  0.978  0.921  0.464-  28 2.29  57 2.37  22 2.37  26 2.38
  13  0.828  0.327  0.555-  14 2.32  11 2.37  50 2.43
  14  0.830  0.407  0.475-  43 2.29  32 2.31  13 2.32  52 2.34
  15  0.448  0.209  0.467-  21 2.25  10 2.33  38 2.46
  16  0.759  0.806  0.452-  35 2.35  24 2.45  26 2.51
  17  0.424  0.660  0.546-   2 1.57   6 2.34  56 2.55  40 3.05
  18  0.061  0.567  0.545-  36 2.29   8 2.34  23 2.48
  19  0.602  0.789  0.587-  24 2.35  49 2.38
  20  0.242  0.011  0.451-  41 2.35  10 2.42  28 2.44
  21  0.440  0.364  0.464-  15 2.25  44 2.29  37 2.30  51 2.33
  22  0.999  0.843  0.547-  23 2.25  58 2.31  12 2.37
  23  0.950  0.696  0.544-   1 1.46  22 2.25  35 2.34  18 2.48
  24  0.618  0.754  0.496-  46 2.32  27 2.34  19 2.35  16 2.45
  25  0.562  0.058  0.544-  53 2.18  38 2.24  49 2.35  30 2.46
  26  0.821  0.959  0.482-  12 2.38  29 2.39   7 2.42  16 2.51
  27  0.499  0.850  0.466-  30 2.32  40 2.33  24 2.34
  28  0.077  0.039  0.448-  12 2.29  45 2.34  20 2.44
  29  0.782  0.956  0.574-  49 2.30  26 2.39
  30  0.587  0.982  0.457-   3 1.49  27 2.32  25 2.46
  31  0.778  0.558  0.593-  32 2.28
  32  0.788  0.553  0.502-  31 2.28  14 2.31  46 2.41  35 2.45
  33  0.273  0.527  0.473-  36 2.22  48 2.26  51 2.32   6 2.33
  34  0.232  0.192  0.566-  10 2.31  54 2.31  39 2.34
  35  0.867  0.687  0.464-  23 2.34  16 2.35  32 2.45
  36  0.140  0.602  0.468-  33 2.22  18 2.29   9 2.45
  37  0.562  0.412  0.412-  21 2.30  42 2.35  43 2.37
  38  0.593  0.202  0.517-  25 2.24  59 2.32  50 2.43  15 2.46
  39  0.172  0.330  0.532-   8 2.30  34 2.34  55 2.35  48 2.49
  40  0.393  0.867  0.535-  27 2.33  41 2.43  53 2.46  17 3.05
  41  0.235  0.877  0.504-  58 2.24   9 2.32  20 2.35  40 2.43
  42  0.531  0.570  0.422-  46 2.26   6 2.33  37 2.35
  43  0.715  0.358  0.419-  14 2.29  59 2.32  37 2.37
  44  0.436  0.417  0.550-  21 2.29  48 2.34  56 2.38
  45  0.034  0.142  0.516-  11 2.31  55 2.33  28 2.34  54 2.44
  46  0.629  0.596  0.490-  56 2.21  42 2.26  24 2.32  32 2.41
  47  0.186  0.284  0.401-   4 1.62  55 2.25  51 2.43
  48  0.281  0.457  0.554-  33 2.26  44 2.34  39 2.49
  49  0.631  0.948  0.600-  29 2.30  25 2.35  19 2.38
  50  0.671  0.297  0.583-  13 2.43  38 2.43
  51  0.302  0.399  0.421-  33 2.32  21 2.33  47 2.43
  52  0.952  0.336  0.430-  55 2.24  14 2.34
  53  0.417  0.030  0.558-  25 2.18  10 2.43  40 2.46
  54  0.125  0.082  0.590-  34 2.31  45 2.44  58 2.47
  55  0.077  0.269  0.465-  52 2.24  47 2.25  45 2.33  39 2.35
  56  0.547  0.537  0.556-  46 2.21  44 2.38  17 2.55
  57  0.047  0.805  0.411-   9 2.26  12 2.37
  58  0.135  0.916  0.568-  41 2.24  22 2.31  54 2.47
  59  0.695  0.207  0.446-   7 2.24  38 2.32  43 2.32

  LATTYP: Found a simple tetragonal cell.
 ALAT       =    14.5469080134
 C/A-ratio  =     1.7204476839
  
  Lattice vectors:
  
 A1 = (  14.5469080134,   0.0000000000,   0.0000000000)
 A2 = (   0.0000000000,  14.5469080134,   0.0000000000)
 A3 = (   0.0000000000,   0.0000000000,  25.0271942000)


Analysis of symmetry for initial positions (statically):
=====================================================================
 Subroutine PRICEL returns:
 Original cell was already a primitive cell.
 

 Routine SETGRP: Setting up the symmetry group for a 
 simple tetragonal supercell.


 Subroutine GETGRP returns: Found  1 space group operations
 (whereof  1 operations were pure point group operations)
 out of a pool of 16 trial point group operations.


The static configuration has the point symmetry C_1 .


Analysis of symmetry for dynamics (positions and initial velocities):
=====================================================================
 Subroutine PRICEL returns:
 Original cell was already a primitive cell.
 

 Routine SETGRP: Setting up the symmetry group for a 
 simple tetragonal supercell.


 Subroutine GETGRP returns: Found  1 space group operations
 (whereof  1 operations were pure point group operations)
 out of a pool of 16 trial point group operations.


The dynamic configuration has the point symmetry C_1 .


 Subroutine INISYM returns: Found  1 space group operations
 (whereof  1 operations are pure point group operations),
 and found     1 'primitive' translations


----------------------------------------------------------------------------------------

                                     Primitive cell                                     

  volume of cell :    5296.0680

  direct lattice vectors                    reciprocal lattice vectors
    14.546908013  0.000000000  0.000000000     0.068743131  0.000000000  0.000000000
     0.000000000 14.546908013  0.000000000     0.000000000  0.068743131  0.000000000
     0.000000000  0.000000000 25.027194200     0.000000000  0.000000000  0.039956537

  length of vectors
    14.546908013 14.546908013 25.027194200     0.068743131  0.068743131  0.039956537

  position of ions in fractional coordinates (direct lattice)
     0.874330132  0.687214080  0.581501629
     0.328042220  0.617767706  0.560762588
     0.683573443  0.963716825  0.472276441
     0.246919826  0.191279824  0.405929571
     0.762993757  0.568496068  0.399565366
     0.393532426  0.627364248  0.456058482
     0.820318654  0.121198264  0.460308659
     0.071547851  0.419276041  0.581121642
     0.182524699  0.761392042  0.448119118
     0.323851639  0.127941965  0.501291679
     0.883555460  0.177065119  0.535768976
     0.977527320  0.920601133  0.464034206
     0.827997262  0.326580054  0.555045607
     0.829626474  0.407309237  0.474877611
     0.448291142  0.209050610  0.466727277
     0.759357246  0.805910094  0.451980518
     0.423617857  0.660349264  0.546003443
     0.061241055  0.567228444  0.544710449
     0.601703812  0.789129895  0.587277346
     0.242206110  0.010974428  0.451482260
     0.440382244  0.363613353  0.463824435
     0.999281119  0.843347603  0.546669918
     0.950243171  0.696457281  0.543870563
     0.617894194  0.754167139  0.496101325
     0.562426736  0.057727938  0.543592066
     0.821308555  0.958911680  0.481611886
     0.499028384  0.849685719  0.465960911
     0.077096796  0.039036955  0.448070371
     0.781643769  0.956299441  0.574148428
     0.586548014  0.982298093  0.456694590
     0.778330350  0.558130978  0.592729815
     0.787727536  0.553302461  0.501940174
     0.272872420  0.526760051  0.473451962
     0.231550237  0.192497265  0.566130350
     0.866830256  0.687150836  0.464255965
     0.140018071  0.601870858  0.468002690
     0.561610068  0.412227120  0.411972517
     0.592994057  0.201666223  0.517130050
     0.171773960  0.330252312  0.532168492
     0.392878679  0.867139600  0.534775257
     0.234801787  0.877217343  0.504182135
     0.530695595  0.569755442  0.421893765
     0.714584844  0.358279574  0.419137204
     0.436182727  0.417078323  0.549943557
     0.034479630  0.141700903  0.515588927
     0.628843600  0.595593235  0.490354376
     0.185610578  0.284223286  0.401290777
     0.280553778  0.457390670  0.554061877
     0.630671480  0.948338986  0.600434634
     0.671029197  0.297029444  0.582950853
     0.302163181  0.398767215  0.421117490
     0.952009870  0.336027422  0.430151383
     0.417397291  0.029563190  0.558199776
     0.125190178  0.081945249  0.589971616
     0.077094046  0.269321838  0.464800972
     0.546877728  0.536616441  0.556384551
     0.047057423  0.804789581  0.411349275
     0.135376535  0.916435299  0.568379503
     0.695027424  0.206720906  0.446131281

  ion indices of the primitive-cell ions
   primitive index   ion index
                 1           1
                 2           2
                 3           3
                 4           4
                 5           5
                 6           6
                 7           7
                 8           8
                 9           9
                10          10
                11          11
                12          12
                13          13
                14          14
                15          15
                16          16
                17          17
                18          18
                19          19
                20          20
                21          21
                22          22
                23          23
                24          24
                25          25
                26          26
                27          27
                28          28
                29          29
                30          30
                31          31
                32          32
                33          33
                34          34
                35          35
                36          36
                37          37
                38          38
                39          39
                40          40
                41          41
                42          42
                43          43
                44          44
                45          45
                46          46
                47          47
                48          48
                49          49
                50          50
                51          51
                52          52
                53          53
                54          54
                55          55
                56          56
                57          57
                58          58
                59          59

----------------------------------------------------------------------------------------


 -----------------------------------------------------------------------------
|                                                                             |
|           W    W    AA    RRRRR   N    N  II  N    N   GGGG   !!!           |
|           W    W   A  A   R    R  NN   N  II  NN   N  G    G  !!!           |
|           W    W  A    A  R    R  N N  N  II  N N  N  G       !!!           |
|           W WW W  AAAAAA  RRRRR   N  N N  II  N  N N  G  GGG   !            |
|           WW  WW  A    A  R   R   N   NN  II  N   NN  G    G                |
|           W    W  A    A  R    R  N    N  II  N    N   GGGG   !!!           |
|                                                                             |
|     The requested file  could not be found or opened for reading            |
|     k-point information. Automatic k-point generation is used as a          |
|     fallback, which may lead to unwanted results.                           |
|                                                                             |
 -----------------------------------------------------------------------------



Automatic generation of k-mesh.
 Grid dimensions derived from KSPACING:
 generate k-points for:    2    2    2

 Generating k-lattice:

  Cartesian coordinates                     Fractional coordinates (reciprocal lattice)
     0.034371565  0.000000000  0.000000000     0.500000000  0.000000000  0.000000000
     0.000000000  0.034371565  0.000000000     0.000000000  0.500000000  0.000000000
     0.000000000  0.000000000  0.019978268     0.000000000  0.000000000  0.500000000

  Length of vectors
     0.034371565  0.034371565  0.019978268

  Shift w.r.t. Gamma in fractional coordinates (k-lattice)
     0.000000000  0.000000000  0.000000000

 
 Subroutine IBZKPT returns following result:
 ===========================================
 
 Found      8 irreducible k-points:
 
 Following reciprocal coordinates:
            Coordinates               Weight
  0.000000  0.000000  0.000000      1.000000
  0.500000  0.000000  0.000000      1.000000
  0.000000  0.500000  0.000000      1.000000
  0.500000  0.500000  0.000000      1.000000
  0.000000  0.000000  0.500000      1.000000
  0.500000  0.000000  0.500000      1.000000
  0.000000  0.500000  0.500000      1.000000
  0.500000  0.500000  0.500000      1.000000
 
 Following cartesian coordinates:
            Coordinates               Weight
  0.000000  0.000000  0.000000      1.000000
  0.034372  0.000000  0.000000      1.000000
  0.000000  0.034372  0.000000      1.000000
  0.034372  0.034372  0.000000      1.000000
  0.000000  0.000000  0.019978      1.000000
  0.034372  0.000000  0.019978      1.000000
  0.000000  0.034372  0.019978      1.000000
  0.034372  0.034372  0.019978      1.000000
 


--------------------------------------------------------------------------------------------------------




 Dimension of arrays:
   k-points           NKPTS =      8   k-points in BZ     NKDIM =      8   number of bands    NBANDS=    144
   number of dos      NEDOS =   2000   number of ions     NIONS =     59
   non local maximal  LDIM  =      4   non local SUM 2l+1 LMDIM =      8
   total plane-waves  NPLWV = ******
   max r-space proj   IRMAX =      1   max aug-charges    IRDMAX= 410684
   dimension x,y,z NGX =   168 NGY =  168 NGZ =  288
   dimension x,y,z NGXF=   336 NGYF=  336 NGZF=  576
   support grid    NGXF=   672 NGYF=  672 NGZF= 1152
   ions per type =               5  54
   NGX,Y,Z   is equivalent  to a cutoff of  19.20, 19.20, 19.13 a.u.
   NGXF,Y,Z  is equivalent  to a cutoff of  38.40, 38.40, 38.26 a.u.

 SYSTEM =  a-Si SPC                                
 POSCAR =   H Si                                   

 Startparameter for this run:
   NWRITE =      2    write-flag & timer
   PREC   = accura    normal or accurate (medium, high low for compatibility)
   ISTART =      1    job   : 0-new  1-cont  2-samecut
   ICHARG =      1    charge: 1-file 2-atom 10-const
   ISPIN  =      1    spin polarized calculation?
   LNONCOLLINEAR =      F non collinear calculations
   LSORBIT =      F    spin-orbit coupling
   INIWAV =      1    electr: 0-lowe 1-rand  2-diag
   LASPH  =      T    aspherical Exc in radial PAW
 Electronic Relaxation 1
   ENCUT  = 1200.0 eV  88.20 Ry    9.39 a.u.  41.09 41.09 70.69*2*pi/ulx,y,z
   ENINI  = 1200.0     initial cutoff
   ENAUG  =  400.0 eV  augmentation charge cutoff
   NELM   =    150;   NELMIN=  2; NELMDL=  0     # of ELM steps 
   EDIFF  = 0.1E-05   stopping-criterion for ELM
   LREAL  =      F    real-space projection
   NLSPLINE    = F    spline interpolate recip. space projectors
   LCOMPAT=      F    compatible to vasp.4.4
   GGA_COMPAT  = T    GGA compatible to vasp.4.4-vasp.4.6
   LMAXPAW     = -100 max onsite density
   LMAXMIX     =    2 max onsite mixed and CHGCAR
   VOSKOWN=      0    Vosko Wilk Nusair interpolation
   ROPT   =    0.00000   0.00000
 Ionic relaxation
   EDIFFG = -.1E-01   stopping-criterion for IOM
   NSW    =      0    number of steps for IOM
   NBLOCK =      1;   KBLOCK =      1    inner block; outer block 
   IBRION =     -1    ionic relax: 0-MD 1-quasi-New 2-CG
   NFREE  =      0    steps in history (QN), initial steepest desc. (CG)
   ISIF   =      2    stress and relaxation
   IWAVPR =     10    prediction:  0-non 1-charg 2-wave 3-comb
   ISYM   =      1    0-nonsym 1-usesym 2-fastsym
   LCORR  =      T    Harris-Foulkes like correction to forces

   POTIM  = 0.5000    time-step for ionic-motion
   TEIN   =    0.0    initial temperature
   TEBEG  =    0.0;   TEEND  =   0.0 temperature during run
   SMASS  =  -3.00    Nose mass-parameter (am)
   estimated Nose-frequenzy (Omega)   =  0.10E-29 period in steps = 0.13E+47 mass=  -0.484E-26a.u.
   SCALEE = 1.0000    scale energy and forces
   NPACO  =    256;   APACO  = 10.0  distance and # of slots for P.C.
   PSTRESS=    0.0 pullay stress

  Mass of Ions in am
   POMASS =   1.00 28.09
  Ionic Valenz
   ZVAL   =   1.00  4.00
  Atomic Wigner-Seitz radii
   RWIGS  =  -1.00 -1.00
  virtual crystal weights 
   VCA    =   1.00  1.00
   NELECT =     221.0000    total number of electrons
   NUPDOWN=      -1.0000    fix difference up-down

 DOS related values:
   EMIN   =  10.00;   EMAX   =-10.00  energy-range for DOS
   EFERMI =   0.00;   METHOD = LEGACY      
   ISMEAR =     0;   SIGMA  =   0.10  broadening in eV -4-tet -1-fermi 0-gaus
   EFERMI_NEDOS =   21; number of points for ismear=-14 and -15

 Electronic relaxation 2 (details)
   IALGO  =     38    algorithm
   LDIAG  =      F    sub-space diagonalisation (order eigenvalues)
   LSUBROT=      F    optimize rotation matrix (better conditioning)
   TURBO    =      0    0=normal 1=particle mesh
   IRESTART =      0    0=no restart 2=restart with 2 vectors
   NREBOOT  =      0    no. of reboots
   NMIN     =      0    reboot dimension
   EREF     =   0.00    reference energy to select bands
   IMIX   =      4    mixing-type and parameters
     AMIX     =   0.40;   BMIX     =  1.00
     AMIX_MAG =   1.60;   BMIX_MAG =  1.00
     AMIN     =   0.10
     WC   =   100.;   INIMIX=   1;  MIXPRE=   1;  MAXMIX= -45

 Intra band minimization:
   WEIMIN = 0.0000     energy-eigenvalue tresh-hold
   EBREAK =  0.17E-08  absolut break condition
   DEPER  =   0.30     relativ break condition  

   TIME   =   0.40     timestep for ELM

  volume/ion in A,a.u.               =      89.76       605.76
  Fermi-wavevector in a.u.,A,eV,Ry     =   0.567834  1.073050  4.386994  0.322435
  Thomas-Fermi vector in A             =   1.606810

 Write flags
   LWAVE        =      F    write WAVECAR
   LDOWNSAMPLE  =      F    k-point downsampling of WAVECAR
   LCHARG       =      F    write CHGCAR
   LVTOT        =      F    write LOCPOT, total local potential
   LVHAR        =      F    write LOCPOT, Hartree potential only
   WRT_POTENTIAL= false  ! write potential to hdf5 file
   LELF         =      F    write electronic localiz. function (ELF)
   LORBIT       =     11    0 simple, 1 ext, 2 COOP (PROOUT), +10 PAW based schemes


 Python interface
   PLUGINS active      =      F    recompile with -DPLUGINS to activate

 Dipole corrections
   LMONO      =      F    monopole corrections only (constant potential shift)
   LDIPOL     =      F    correct potential (dipole corrections)
   IDIPOL     =      0    1-x, 2-y, 3-z, 4-all directions 
   EPSILON    =  1.0000000 bulk dielectric constant
   LVACPOTAV  =      F  vacuum potentials using an averaging scheme for the charge density
   VACPOTFLAT =  0.1000000 required flatness to determine vacuum potential

Coulomb truncation method
  LTRUNCATE          =      F  Coulomb kernel truncation to be used
  IDIMENSIONALITY    =      3  Dimensionality of cutoff (0 molecules / 2 surfaces)
  ISURFACE           =     -1  Direction of surface normal
  LCOARSEN           =      F  Coarsen the charge grid before padding, preferred


 Exchange correlation treatment:
   METAGGA = SCAN    functional components
   XC_C    = 1    coefficients multiplying the functional components
   LIBXC   =     F    Libxc                    
   VOSKOWN =     0    Vosko Wilk Nusair interpolation
   LHFCALC =     F    Hartree Fock is set to
   LHFONE  =     F    Hartree Fock one center treatment
   AEXX    =    0.0000 exact exchange contribution

 Parameters of functionals:
   SCAN:
     P1 =  0.000000E+00
     P2 =  0.000000E+00
     P3 =  0.000000E+00

 Accuracy and mixing parameters for tau-dependent meta-GGA functionals:
   LMAXTAU = 6
   LMIXTAU = T

 Van der Waals corrections
   IVDW    =     0    specifies the selected vdW correction

 Linear response parameters
   LEPSILON=     F    determine dielectric tensor
   LRPA    =     F    only Hartree local field effects (RPA)
   LNABLA  =     F    use nabla operator in PAW spheres
   LVEL    =     F    velocity operator in full k-point grid
   CSHIFT  =0.1000    complex shift for real part using Kramers Kronig
   OMEGAMAX=  -1.0    maximum frequency
   DEG_THRESHOLD= 0.2000000E-02 threshold for treating states as degnerate
   RTIME   =   -0.100 relaxation time in fs
  (WPLASMAI=    0.000 imaginary part of plasma frequency in eV, 0.658/RTIME)
   DFIELD  = 0.0000000 0.0000000 0.0000000 field for delta impulse in time

  Optional k-point grid parameters
   LKPOINTS_OPT  =     F    use optional k-point grid
   KPOINTS_OPT_MODE=     1    mode for optional k-point grid

 Orbital magnetization related:
   ORBITALMAG=     F  switch on orbital magnetization
   LCHIMAG   =     F  perturbation theory with respect to B field
   DQ        =  0.001000  dq finite difference perturbation B field
   LLRAUG    =     F  two centre corrections for induced B field
   LBONE     =     F  B-component reconstruction in AE one-centre
   LVGVCALC  =     T  calculate vGv susceptibility
   LVGVAPPL  =     F  apply vGv susceptibility instead of pGv for G=0

 Random number generation:
   RANDOM_GENERATOR = DEFAULT
   PCG_SEED         = not used


--------------------------------------------------------------------------------------------------------


 Static calculation
 charge density and potential will be updated during run
 non-spin polarized calculation
 Variant of blocked Davidson
 perform Loewdin sub-space diagonalisation
    ordering is kept fixed
    before iterative eigenvector-optimisation
 modified Broyden-mixing scheme, WC =      100.0
 initial mixing is a Kerker type mixing with AMIX =  0.4000 and BMIX =      1.0000
 Hartree-type preconditioning will be used
 using additional bands           33
 reciprocal scheme for non local part
 use partial core corrections
 calculate Harris-corrections to forces   (improved forces if not selfconsistent)
 use gradient corrections 
 use of overlap-Matrix (Vanderbilt PP)
 Gauss-broadening in eV      SIGMA  =   0.10


--------------------------------------------------------------------------------------------------------


  energy-cutoff  :     1200.00
  volume of cell :     5296.07
      direct lattice vectors                 reciprocal lattice vectors
    14.546908013  0.000000000  0.000000000     0.068743131  0.000000000  0.000000000
     0.000000000 14.546908013  0.000000000     0.000000000  0.068743131  0.000000000
     0.000000000  0.000000000 25.027194200     0.000000000  0.000000000  0.039956537

  length of vectors
    14.546908013 14.546908013 25.027194200     0.068743131  0.068743131  0.039956537



 old parameters found on file WAVECAR:
  energy-cutoff  :     1200.00
  volume of cell :     5296.07
      direct lattice vectors                 reciprocal lattice vectors
    14.546908013  0.000000000  0.000000000     0.068743131  0.000000000  0.000000000
     0.000000000 14.546908013  0.000000000     0.000000000  0.068743131  0.000000000
     0.000000000  0.000000000 25.027194200     0.000000000  0.000000000  0.039956537

  length of vectors


 k-points in units of 2pi/SCALE and weight: read from INCAR                         
   0.00000000  0.00000000  0.00000000       0.125
   0.03437157  0.00000000  0.00000000       0.125
   0.00000000  0.03437157  0.00000000       0.125
   0.03437157  0.03437157  0.00000000       0.125
   0.00000000  0.00000000  0.01997827       0.125
   0.03437157  0.00000000  0.01997827       0.125
   0.00000000  0.03437157  0.01997827       0.125
   0.03437157  0.03437157  0.01997827       0.125

 k-points in reciprocal lattice and weights: read from INCAR                         
   0.00000000  0.00000000  0.00000000       0.125
   0.50000000  0.00000000  0.00000000       0.125
   0.00000000  0.50000000  0.00000000       0.125
   0.50000000  0.50000000  0.00000000       0.125
   0.00000000  0.00000000  0.50000000       0.125
   0.50000000  0.00000000  0.50000000       0.125
   0.00000000  0.50000000  0.50000000       0.125
   0.50000000  0.50000000  0.50000000       0.125

 position of ions in fractional coordinates (direct lattice) 
   0.87433013  0.68721408  0.58150163
   0.32804222  0.61776771  0.56076259
   0.68357344  0.96371682  0.47227644
   0.24691983  0.19127982  0.40592957
   0.76299376  0.56849607  0.39956537
   0.39353243  0.62736425  0.45605848
   0.82031865  0.12119826  0.46030866
   0.07154785  0.41927604  0.58112164
   0.18252470  0.76139204  0.44811912
   0.32385164  0.12794197  0.50129168
   0.88355546  0.17706512  0.53576898
   0.97752732  0.92060113  0.46403421
   0.82799726  0.32658005  0.55504561
   0.82962647  0.40730924  0.47487761
   0.44829114  0.20905061  0.46672728
   0.75935725  0.80591009  0.45198052
   0.42361786  0.66034926  0.54600344
   0.06124106  0.56722844  0.54471045
   0.60170381  0.78912990  0.58727735
   0.24220611  0.01097443  0.45148226
   0.44038224  0.36361335  0.46382443
   0.99928112  0.84334760  0.54666992
   0.95024317  0.69645728  0.54387056
   0.61789419  0.75416714  0.49610132
   0.56242674  0.05772794  0.54359207
   0.82130855  0.95891168  0.48161189
   0.49902838  0.84968572  0.46596091
   0.07709680  0.03903696  0.44807037
   0.78164377  0.95629944  0.57414843
   0.58654801  0.98229809  0.45669459
   0.77833035  0.55813098  0.59272982
   0.78772754  0.55330246  0.50194017
   0.27287242  0.52676005  0.47345196
   0.23155024  0.19249726  0.56613035
   0.86683026  0.68715084  0.46425597
   0.14001807  0.60187086  0.46800269
   0.56161007  0.41222712  0.41197252
   0.59299406  0.20166622  0.51713005
   0.17177396  0.33025231  0.53216849
   0.39287868  0.86713960  0.53477526
   0.23480179  0.87721734  0.50418213
   0.53069559  0.56975544  0.42189377
   0.71458484  0.35827957  0.41913720
   0.43618273  0.41707832  0.54994356
   0.03447963  0.14170090  0.51558893
   0.62884360  0.59559323  0.49035438
   0.18561058  0.28422329  0.40129078
   0.28055378  0.45739067  0.55406188
   0.63067148  0.94833899  0.60043463
   0.67102920  0.29702944  0.58295085
   0.30216318  0.39876722  0.42111749
   0.95200987  0.33602742  0.43015138
   0.41739729  0.02956319  0.55819978
   0.12519018  0.08194525  0.58997162
   0.07709405  0.26932184  0.46480097
   0.54687773  0.53661644  0.55638455
   0.04705742  0.80478958  0.41134928
   0.13537653  0.91643530  0.56837950
   0.69502742  0.20672091  0.44613128

 position of ions in cartesian coordinates  (Angst):
  12.71880000  9.99684000 14.55335420
   4.77200000  8.98661000 14.03431420
   9.94388000 14.01910000 11.81975420
   3.59192000  2.78253000 10.15927820
  11.09920000  8.26986000 10.00000000
   5.72468000  9.12621000 11.41386420
  11.93310000  1.76306000 11.52023420
   1.04080000  6.09917000 14.54384420
   2.65517000 11.07590000 11.21516420
   4.71104000  1.86116000 12.54592420
  12.85300000  2.57575000 13.40879420
  14.22000000 13.39190000 11.61347420
  12.04480000  4.75073000 13.89123420
  12.06850000  5.92509000 11.88485420
   6.52125000  3.04104000 11.68087420
  11.04630000 11.72350000 11.31180420
   6.16233000  9.60604000 13.66493420
   0.89086800  8.25142000 13.63257420
   8.75293000 11.47940000 14.69790420
   3.52335000  0.15964400 11.29933420
   6.40620000  5.28945000 11.60822420
  14.53645051 12.26810000 13.68161420
  13.82310000 10.13130000 13.61155420
   8.98845000 10.97080000 12.41602420
   8.18157000  0.83976300 13.60458420
  11.94750000 13.94920000 12.05339420
   7.25932000 12.36030000 11.66169420
   1.12152000  0.56786700 11.21394420
  11.37050000 13.91120000 14.36932420
   8.53246000 14.28940000 11.42978420
  11.32230000  8.11908000 14.83436420
  11.45900000  8.04884000 12.56215420
   3.96945000  7.66273000 11.84917420
   3.36834000  2.80024000 14.16865420
  12.60970000  9.99592000 11.61902420
   2.03683000  8.75536000 11.71279420
   8.16969000  5.99663000 10.31051620
   8.62623000  2.93362000 12.94231420
   2.49878000  4.80415000 13.31868420
   5.71517000 12.61420000 13.38392420
   3.41564000 12.76080000 12.61826420
   7.71998000  8.28818000 10.55881720
  10.39500000  5.21186000 10.48982820
   6.34511000  6.06720000 13.76354420
   0.50157200  2.06131000 12.90374420
   9.14773000  8.66404000 12.27219420
   2.70006000  4.13457000 10.04318220
   4.08119000  6.65362000 13.86661420
   9.17432000 13.79540000 15.02719420
   9.76140000  4.32086000 14.58962420
   4.39554000  5.80083000 10.53938920
  13.84880000  4.88816000 10.76548220
   6.07184000  0.43005300 13.97017420
   1.82113000  1.19205000 14.76533420
   1.12148000  3.91780000 11.63266420
   7.95538000  7.80611000 13.92474420
   0.68454000 11.70720000 10.29491820
   1.96931000 13.33130000 14.22494420
  10.11050000  3.00715000 11.16541420



--------------------------------------------------------------------------------------------------------


 k-point     1 :   0.0000 0.0000 0.0000  plane waves:  499741
 k-point     2 :   0.5000 0.0000 0.0000  plane waves:  500030
 k-point     3 :   0.0000 0.5000 0.0000  plane waves:  500030
 k-point     4 :   0.5000 0.5000 0.0000  plane waves:  499852
 k-point     5 :   0.0000 0.0000 0.5000  plane waves:  499854
 k-point     6 :   0.5000 0.0000 0.5000  plane waves:  499936
 k-point     7 :   0.0000 0.5000 0.5000  plane waves:  499936
 k-point     8 :   0.5000 0.5000 0.5000  plane waves:  499808

 maximum and minimum number of plane-waves per node :     31312    31186

 maximum number of plane-waves:    500030
 maximum index in each direction: 
   IXMAX=   41   IYMAX=   41   IZMAX=   70
   IXMIN=  -41   IYMIN=  -41   IZMIN=  -71


 parallel 3D FFT for wavefunctions:
    minimum data exchange during FFTs selected (reduces bandwidth)
 parallel 3D FFT for charge:
    minimum data exchange during FFTs selected (reduces bandwidth)


 total amount of memory used by VASP MPI-rank0   337444. kBytes
=======================================================================

   base                                    :      30000. kBytes
   nonl-proj                               :      61622. kBytes
   fftplans                                :      97989. kBytes
   grid                                    :      75605. kBytes
   one-center                              :         12. kBytes
   wavefun                                 :      72216. kBytes

     INWAV:  cpu time     22.1260: real time     22.1391
 Broyden mixing: mesh for mixing (old mesh)
   NGX = 83   NGY = 83   NGZ =141
  (NGX  =336   NGY  =336   NGZ  =576)
  gives a total of 971349 points

 initial charge density was supplied:
 number of electron     220.9999999 magnetization 
 keeping initial charge density in first step


--------------------------------------------------------------------------------------------------------


 Maximum index for augmentation-charges        11458 (set IRDMAX)


--------------------------------------------------------------------------------------------------------


 First call to EWALD:  gamma=   0.102
 Maximum number of real-space cells   3x   3x   2
 Maximum number of reciprocal cells   2x   2x   4

    FEWALD:  cpu time      0.0085: real time      0.0085


--------------------------------------- Ionic step        1  -------------------------------------------




--------------------------------------- Iteration      1(   1)  ---------------------------------------


    POTLOK:  cpu time      2.0339: real time      2.0349
    SETDIJ:  cpu time      1.3045: real time      1.3058
    EDDIAG:  cpu time     43.0940: real time     43.1179
     EDDAV:  cpu time    186.5678: real time    186.6713
       DOS:  cpu time      0.0080: real time      0.0081
    CHARGE:  cpu time     24.7231: real time     24.7459
    MIXING:  cpu time      0.0472: real time      0.0481
    --------------------------------------------
      LOOP:  cpu time    257.7786: real time    257.9321

 eigenvalue-minimisations  :  2304
 total energy-change (2. order) :-0.5361372E+03  (-0.6305048E+00)
 number of electron     220.9999999 magnetization 
 augmentation part      -12.5079551 magnetization 

 Broyden mixing:
  rms(total) = 0.83462E+00    rms(broyden)= 0.21176E+02
  rms(prec ) = 0.86305E+00
  weight for this iteration     100.00
  WARNING: grid for Broyden might be to small

 Free energy of the ion-electron system (eV)
  ---------------------------------------------------
  alpha Z        PSCENC =        19.47216629
  Ewald energy   TEWEN  =     22328.85518659
  -Hartree energ DENC   =    -27088.81029837
  -exchange      EXHF   =         0.00000000
  -V(xc)+E(xc)   XCENC  =      -264.80802260
  PAW double counting   =     17683.54679025   -17144.43955003
  entropy T*S    EENTRO =        -0.19920143
  eigenvalues    EBANDS =     -1697.80525330
  atomic energy  EATOM  =      5628.05094236
  Solvation  Ediel_sol  =         0.00000000
  ---------------------------------------------------
  free energy    TOTEN  =      -536.13724024 eV

  energy without entropy =     -535.93803881  energy(sigma->0) =     -536.03763953


--------------------------------------------------------------------------------------------------------




--------------------------------------- Iteration      1(   2)  ---------------------------------------


    POTLOK:  cpu time      2.0121: real time      2.0349
    SETDIJ:  cpu time      1.3022: real time      1.3030
    EDDIAG:  cpu time     43.0861: real time     43.1091
     EDDAV:  cpu time    186.3756: real time    186.4843
       DOS:  cpu time      0.0034: real time      0.0034
    CHARGE:  cpu time     24.6747: real time     24.6976
    MIXING:  cpu time      0.0397: real time      0.0401
    --------------------------------------------
      LOOP:  cpu time    257.4938: real time    257.6723

 eigenvalue-minimisations  :  2304
 total energy-change (2. order) : 0.3957554E+02  (-0.5813041E+00)
 number of electron     220.9999999 magnetization 
 augmentation part      -12.4810925 magnetization 

 Broyden mixing:
  rms(total) = 0.57338E+00    rms(broyden)= 0.12191E+02
  rms(prec ) = 0.58923E+00
  weight for this iteration     100.00
  WARNING: grid for Broyden might be to small

 eigenvalues of (default mixing * dielectric matrix)
  average eigenvalue GAMMA=   0.6347
  0.6347

 Free energy of the ion-electron system (eV)
  ---------------------------------------------------
  alpha Z        PSCENC =        19.47216629
  Ewald energy   TEWEN  =     22328.85518659
  -Hartree energ DENC   =    -27080.22822996
  -exchange      EXHF   =         0.00000000
  -V(xc)+E(xc)   XCENC  =      -258.92753640
  PAW double counting   =     21037.75052487   -20498.51816880
  entropy T*S    EENTRO =        -0.19251510
  eigenvalues    EBANDS =     -1672.82407398
  atomic energy  EATOM  =      5628.05094236
  Solvation  Ediel_sol  =         0.00000000
  ---------------------------------------------------
  free energy    TOTEN  =      -496.56170413 eV

  energy without entropy =     -496.36918903  energy(sigma->0) =     -496.46544658


--------------------------------------------------------------------------------------------------------




--------------------------------------- Iteration      1(   3)  ---------------------------------------


    POTLOK:  cpu time      2.0100: real time      2.0335
    SETDIJ:  cpu time      1.3046: real time      1.3053
    EDDIAG:  cpu time     43.1415: real time     43.1613
     EDDAV:  cpu time    186.6371: real time    186.7364
       DOS:  cpu time      0.0024: real time      0.0024
    CHARGE:  cpu time     24.5515: real time     24.5746
    MIXING:  cpu time      0.0372: real time      0.0372
    --------------------------------------------
      LOOP:  cpu time    257.6842: real time    257.8507

 eigenvalue-minimisations  :  2304
 total energy-change (2. order) :-0.1726154E+01  (-0.5061077E+00)
 number of electron     220.9999999 magnetization 
 augmentation part      -12.4250298 magnetization 

 Broyden mixing:
  rms(total) = 0.30273E+00    rms(broyden)= 0.14975E+02
  rms(prec ) = 0.35372E+00
  weight for this iteration     100.00
  WARNING: grid for Broyden might be to small

 eigenvalues of (default mixing * dielectric matrix)
  average eigenvalue GAMMA=   0.7568
  0.8849  0.6287

 Free energy of the ion-electron system (eV)
  ---------------------------------------------------
  alpha Z        PSCENC =        19.47216629
  Ewald energy   TEWEN  =     22328.85518659
  -Hartree energ DENC   =    -27081.14897878
  -exchange      EXHF   =         0.00000000
  -V(xc)+E(xc)   XCENC  =      -260.52776773
  PAW double counting   =     24648.54258710   -24109.41531056
  entropy T*S    EENTRO =        -0.18624974
  eigenvalues    EBANDS =     -1671.93043378
  atomic energy  EATOM  =      5628.05094236
  Solvation  Ediel_sol  =         0.00000000
  ---------------------------------------------------
  free energy    TOTEN  =      -498.28785826 eV

  energy without entropy =     -498.10160852  energy(sigma->0) =     -498.19473339


--------------------------------------------------------------------------------------------------------




--------------------------------------- Iteration      1(   4)  ---------------------------------------


    POTLOK:  cpu time      2.0100: real time      2.0356
    SETDIJ:  cpu time      1.2951: real time      1.2958
    EDDIAG:  cpu time     43.1354: real time     43.1602
     EDDAV:  cpu time    195.6943: real time    195.8039
       DOS:  cpu time      0.0025: real time      0.0025
    CHARGE:  cpu time     24.7451: real time     24.7678
    MIXING:  cpu time      0.0376: real time      0.0376
    --------------------------------------------
      LOOP:  cpu time    266.9200: real time    267.1035

 eigenvalue-minimisations  :  2512
 total energy-change (2. order) : 0.2047077E+00  (-0.6326030E-01)
 number of electron     220.9999999 magnetization 
 augmentation part      -12.4394338 magnetization 

 Broyden mixing:
  rms(total) = 0.10724E+00    rms(broyden)= 0.23691E+01
  rms(prec ) = 0.14047E+00
  weight for this iteration     100.00
  WARNING: grid for Broyden might be to small

 eigenvalues of (default mixing * dielectric matrix)
  average eigenvalue GAMMA=   1.0497
  1.9363  0.6318  0.5809

 Free energy of the ion-electron system (eV)
  ---------------------------------------------------
  alpha Z        PSCENC =        19.47216629
  Ewald energy   TEWEN  =     22328.85518659
  -Hartree energ DENC   =    -27081.12582935
  -exchange      EXHF   =         0.00000000
  -V(xc)+E(xc)   XCENC  =      -260.89077246
  PAW double counting   =     27917.78723121   -27378.70240795
  entropy T*S    EENTRO =        -0.19405333
  eigenvalues    EBANDS =     -1671.33561389
  atomic energy  EATOM  =      5628.05094236
  Solvation  Ediel_sol  =         0.00000000
  ---------------------------------------------------
  free energy    TOTEN  =      -498.08315054 eV

  energy without entropy =     -497.88909721  energy(sigma->0) =     -497.98612387


--------------------------------------------------------------------------------------------------------




--------------------------------------- Iteration      1(   5)  ---------------------------------------


    POTLOK:  cpu time      2.0097: real time      2.0342
    SETDIJ:  cpu time      1.2958: real time      1.2966
    EDDIAG:  cpu time     43.1418: real time     43.1654
     EDDAV:  cpu time    194.0584: real time    194.1805
       DOS:  cpu time      0.0026: real time      0.0026
    CHARGE:  cpu time     24.6907: real time     24.7142
    MIXING:  cpu time      0.0400: real time      0.0400
    --------------------------------------------
      LOOP:  cpu time    265.2390: real time    265.4336

 eigenvalue-minimisations  :  2472
 total energy-change (2. order) :-0.3817569E-01  (-0.1598662E-01)
 number of electron     220.9999999 magnetization 
 augmentation part      -12.4267018 magnetization 

 Broyden mixing:
  rms(total) = 0.67970E-01    rms(broyden)= 0.14646E+01
  rms(prec ) = 0.82781E-01
  weight for this iteration     100.00
  WARNING: grid for Broyden might be to small

 eigenvalues of (default mixing * dielectric matrix)
  average eigenvalue GAMMA=   1.0389
  2.3903  0.7420  0.6179  0.4052

 Free energy of the ion-electron system (eV)
  ---------------------------------------------------
  alpha Z        PSCENC =        19.47216629
  Ewald energy   TEWEN  =     22328.85518659
  -Hartree energ DENC   =    -27081.51578292
  -exchange      EXHF   =         0.00000000
  -V(xc)+E(xc)   XCENC  =      -261.43043134
  PAW double counting   =     28030.34280042   -27491.25940874
  entropy T*S    EENTRO =        -0.19067536
  eigenvalues    EBANDS =     -1670.44612354
  atomic energy  EATOM  =      5628.05094236
  Solvation  Ediel_sol  =         0.00000000
  ---------------------------------------------------
  free energy    TOTEN  =      -498.12132623 eV

  energy without entropy =     -497.93065088  energy(sigma->0) =     -498.02598856


--------------------------------------------------------------------------------------------------------




--------------------------------------- Iteration      1(   6)  ---------------------------------------


    POTLOK:  cpu time      2.0117: real time      2.0370
    SETDIJ:  cpu time      1.3109: real time      1.3115
    EDDIAG:  cpu time     43.2032: real time     43.2255
     EDDAV:  cpu time    191.5360: real time    191.6439
       DOS:  cpu time      0.0027: real time      0.0027
    CHARGE:  cpu time     24.6776: real time     24.6992
    MIXING:  cpu time      0.0378: real time      0.0387
    --------------------------------------------
      LOOP:  cpu time    262.7798: real time    262.9585

 eigenvalue-minimisations  :  2416
 total energy-change (2. order) : 0.8199549E-02  (-0.5481336E-02)
 number of electron     220.9999999 magnetization 
 augmentation part      -12.4290760 magnetization 

 Broyden mixing:
  rms(total) = 0.41209E-01    rms(broyden)= 0.22964E+00
  rms(prec ) = 0.48686E-01
  weight for this iteration     100.00
  WARNING: grid for Broyden might be to small

 eigenvalues of (default mixing * dielectric matrix)
  average eigenvalue GAMMA=   1.0311
  2.5887  0.9167  0.6249  0.6249  0.4006

 Free energy of the ion-electron system (eV)
  ---------------------------------------------------
  alpha Z        PSCENC =        19.47216629
  Ewald energy   TEWEN  =     22328.85518659
  -Hartree energ DENC   =    -27081.18873661
  -exchange      EXHF   =         0.00000000
  -V(xc)+E(xc)   XCENC  =      -261.61966847
  PAW double counting   =     27813.31986199   -27274.22218411
  entropy T*S    EENTRO =        -0.19200979
  eigenvalues    EBANDS =     -1670.58868495
  atomic energy  EATOM  =      5628.05094236
  Solvation  Ediel_sol  =         0.00000000
  ---------------------------------------------------
  free energy    TOTEN  =      -498.11312668 eV

  energy without entropy =     -497.92111689  energy(sigma->0) =     -498.01712179


--------------------------------------------------------------------------------------------------------




--------------------------------------- Iteration      1(   7)  ---------------------------------------


    POTLOK:  cpu time      2.0115: real time      2.0371
    SETDIJ:  cpu time      1.2968: real time      1.2975
    EDDIAG:  cpu time     43.0629: real time     43.0860
     EDDAV:  cpu time    206.3605: real time    206.4806
       DOS:  cpu time      0.0035: real time      0.0035
    CHARGE:  cpu time     24.7473: real time     24.7686
    MIXING:  cpu time      0.0394: real time      0.0394
    --------------------------------------------
      LOOP:  cpu time    277.5218: real time    277.7128

 eigenvalue-minimisations  :  2752
 total energy-change (2. order) : 0.1413233E-02  (-0.1336847E-02)
 number of electron     220.9999999 magnetization 
 augmentation part      -12.4331797 magnetization 

 Broyden mixing:
  rms(total) = 0.42318E-01    rms(broyden)= 0.13391E+00
  rms(prec ) = 0.49241E-01
  weight for this iteration     100.00
  WARNING: grid for Broyden might be to small

 eigenvalues of (default mixing * dielectric matrix)
  average eigenvalue GAMMA=   1.0017
  2.5961  1.0616  0.4242  0.7004  0.6140  0.6140

 Free energy of the ion-electron system (eV)
  ---------------------------------------------------
  alpha Z        PSCENC =        19.47216629
  Ewald energy   TEWEN  =     22328.85518659
  -Hartree energ DENC   =    -27080.82537902
  -exchange      EXHF   =         0.00000000
  -V(xc)+E(xc)   XCENC  =      -261.46682940
  PAW double counting   =     27806.48578895   -27267.37922046
  entropy T*S    EENTRO =        -0.19348593
  eigenvalues    EBANDS =     -1671.11088282
  atomic energy  EATOM  =      5628.05094236
  Solvation  Ediel_sol  =         0.00000000
  ---------------------------------------------------
  free energy    TOTEN  =      -498.11171345 eV

  energy without entropy =     -497.91822752  energy(sigma->0) =     -498.01497048


--------------------------------------------------------------------------------------------------------




--------------------------------------- Iteration      1(   8)  ---------------------------------------


    POTLOK:  cpu time      1.9968: real time      2.0258
    SETDIJ:  cpu time      1.2976: real time      1.2985
    EDDIAG:  cpu time     43.1332: real time     43.1564
     EDDAV:  cpu time    189.8188: real time    189.9303
       DOS:  cpu time      0.0030: real time      0.0030
    CHARGE:  cpu time     24.6656: real time     24.6874
    MIXING:  cpu time      0.0398: real time      0.0398
    --------------------------------------------
      LOOP:  cpu time    260.9548: real time    261.1411

 eigenvalue-minimisations  :  2384
 total energy-change (2. order) :-0.1422465E-02  (-0.9573120E-03)
 number of electron     220.9999999 magnetization 
 augmentation part      -12.4315629 magnetization 

 Broyden mixing:
  rms(total) = 0.23499E-01    rms(broyden)= 0.64933E-01
  rms(prec ) = 0.28450E-01
  weight for this iteration     100.00
  WARNING: grid for Broyden might be to small

 eigenvalues of (default mixing * dielectric matrix)
  average eigenvalue GAMMA=   1.0117
  2.5777  1.5157  0.7352  0.4429  0.5969  0.5969  0.6170

 Free energy of the ion-electron system (eV)
  ---------------------------------------------------
  alpha Z        PSCENC =        19.47216629
  Ewald energy   TEWEN  =     22328.85518659
  -Hartree energ DENC   =    -27080.78419293
  -exchange      EXHF   =         0.00000000
  -V(xc)+E(xc)   XCENC  =      -261.50138260
  PAW double counting   =     27819.88025741   -27280.77241561
  entropy T*S    EENTRO =        -0.19348491
  eigenvalues    EBANDS =     -1671.12021251
  atomic energy  EATOM  =      5628.05094236
  Solvation  Ediel_sol  =         0.00000000
  ---------------------------------------------------
  free energy    TOTEN  =      -498.11313592 eV

  energy without entropy =     -497.91965101  energy(sigma->0) =     -498.01639346


--------------------------------------------------------------------------------------------------------




--------------------------------------- Iteration      1(   9)  ---------------------------------------


    POTLOK:  cpu time      2.0015: real time      2.0288
    SETDIJ:  cpu time      1.3060: real time      1.3070
    EDDIAG:  cpu time     43.1023: real time     43.1259
     EDDAV:  cpu time    194.7654: real time    194.8749
       DOS:  cpu time      0.0024: real time      0.0024
    CHARGE:  cpu time     24.6800: real time     24.7007
    MIXING:  cpu time      0.0406: real time      0.0406
    --------------------------------------------
      LOOP:  cpu time    265.8983: real time    266.0805

 eigenvalue-minimisations  :  2496
 total energy-change (2. order) : 0.1438374E-02  (-0.1739589E-03)
 number of electron     220.9999999 magnetization 
 augmentation part      -12.4301011 magnetization 

 Broyden mixing:
  rms(total) = 0.86895E-02    rms(broyden)= 0.29986E-01
  rms(prec ) = 0.10289E-01
  weight for this iteration     100.00
  WARNING: grid for Broyden might be to small

 eigenvalues of (default mixing * dielectric matrix)
  average eigenvalue GAMMA=   1.0229
  2.5560  1.8898  0.9331  0.6447  0.6447  0.5655  0.4747  0.4747

 Free energy of the ion-electron system (eV)
  ---------------------------------------------------
  alpha Z        PSCENC =        19.47216629
  Ewald energy   TEWEN  =     22328.85518659
  -Hartree energ DENC   =    -27080.55770647
  -exchange      EXHF   =         0.00000000
  -V(xc)+E(xc)   XCENC  =      -261.45782070
  PAW double counting   =     27831.49081283   -27292.37957798
  entropy T*S    EENTRO =        -0.19303396
  eigenvalues    EBANDS =     -1671.39266650
  atomic energy  EATOM  =      5628.05094236
  Solvation  Ediel_sol  =         0.00000000
  ---------------------------------------------------
  free energy    TOTEN  =      -498.11169754 eV

  energy without entropy =     -497.91866358  energy(sigma->0) =     -498.01518056


--------------------------------------------------------------------------------------------------------




--------------------------------------- Iteration      1(  10)  ---------------------------------------


    POTLOK:  cpu time      2.0069: real time      2.0296
    SETDIJ:  cpu time      1.2966: real time      1.2978
    EDDIAG:  cpu time     43.1154: real time     43.1376
     EDDAV:  cpu time    191.2547: real time    191.3606
       DOS:  cpu time      0.0030: real time      0.0030
    CHARGE:  cpu time     24.6517: real time     24.6739
    MIXING:  cpu time      0.0406: real time      0.0406
    --------------------------------------------
      LOOP:  cpu time    262.3689: real time    262.5429

 eigenvalue-minimisations  :  2416
 total energy-change (2. order) : 0.8428771E-03  (-0.1375201E-03)
 number of electron     220.9999999 magnetization 
 augmentation part      -12.4293321 magnetization 

 Broyden mixing:
  rms(total) = 0.42125E-02    rms(broyden)= 0.17202E-01
  rms(prec ) = 0.52925E-02
  weight for this iteration     100.00
  WARNING: grid for Broyden might be to small

 eigenvalues of (default mixing * dielectric matrix)
  average eigenvalue GAMMA=   1.0746
  2.5525  2.5525  1.0483  0.6673  0.6673  0.6699  0.5606  0.4629  0.4895

 Free energy of the ion-electron system (eV)
  ---------------------------------------------------
  alpha Z        PSCENC =        19.47216629
  Ewald energy   TEWEN  =     22328.85518659
  -Hartree energ DENC   =    -27080.40649281
  -exchange      EXHF   =         0.00000000
  -V(xc)+E(xc)   XCENC  =      -261.46959655
  PAW double counting   =     27838.58072461   -27299.46865198
  entropy T*S    EENTRO =        -0.19286023
  eigenvalues    EBANDS =     -1671.53227294
  atomic energy  EATOM  =      5628.05094236
  Solvation  Ediel_sol  =         0.00000000
  ---------------------------------------------------
  free energy    TOTEN  =      -498.11085467 eV

  energy without entropy =     -497.91799443  energy(sigma->0) =     -498.01442455


--------------------------------------------------------------------------------------------------------




--------------------------------------- Iteration      1(  11)  ---------------------------------------


    POTLOK:  cpu time      2.0021: real time      2.0311
    SETDIJ:  cpu time      1.2939: real time      1.2947
    EDDIAG:  cpu time     43.0990: real time     43.1225
     EDDAV:  cpu time    191.4093: real time    191.5118
       DOS:  cpu time      0.0024: real time      0.0025
    CHARGE:  cpu time     24.6181: real time     24.6424
    MIXING:  cpu time      0.0415: real time      0.0415
    --------------------------------------------
      LOOP:  cpu time    262.4663: real time    262.6463

 eigenvalue-minimisations  :  2416
 total energy-change (2. order) : 0.8948794E-04  (-0.8153307E-04)
 number of electron     220.9999999 magnetization 
 augmentation part      -12.4295517 magnetization 

 Broyden mixing:
  rms(total) = 0.25506E-02    rms(broyden)= 0.12276E-01
  rms(prec ) = 0.31161E-02
  weight for this iteration     100.00
  WARNING: grid for Broyden might be to small

 eigenvalues of (default mixing * dielectric matrix)
  average eigenvalue GAMMA=   1.1296
  3.1158  2.6288  1.0277  1.0277  0.7760  0.6498  0.6014  0.5563  0.4560  0.4560

 Free energy of the ion-electron system (eV)
  ---------------------------------------------------
  alpha Z        PSCENC =        19.47216629
  Ewald energy   TEWEN  =     22328.85518659
  -Hartree energ DENC   =    -27080.24753600
  -exchange      EXHF   =         0.00000000
  -V(xc)+E(xc)   XCENC  =      -261.47549322
  PAW double counting   =     27837.34125519   -27298.22859097
  entropy T*S    EENTRO =        -0.19290864
  eigenvalues    EBANDS =     -1671.68578677
  atomic energy  EATOM  =      5628.05094236
  Solvation  Ediel_sol  =         0.00000000
  ---------------------------------------------------
  free energy    TOTEN  =      -498.11076518 eV

  energy without entropy =     -497.91785654  energy(sigma->0) =     -498.01431086


--------------------------------------------------------------------------------------------------------




--------------------------------------- Iteration      1(  12)  ---------------------------------------


    POTLOK:  cpu time      2.0140: real time      2.0412
    SETDIJ:  cpu time      1.3084: real time      1.3091
    EDDIAG:  cpu time     43.0865: real time     43.1085
     EDDAV:  cpu time    191.9983: real time    192.1021
       DOS:  cpu time      0.0045: real time      0.0045
    CHARGE:  cpu time     24.6628: real time     24.6832
    MIXING:  cpu time      0.0425: real time      0.0425
    --------------------------------------------
      LOOP:  cpu time    263.1170: real time    263.2910

 eigenvalue-minimisations  :  2432
 total energy-change (2. order) :-0.6281643E-04  (-0.2926093E-04)
 number of electron     220.9999999 magnetization 
 augmentation part      -12.4297995 magnetization 

 Broyden mixing:
  rms(total) = 0.60394E-03    rms(broyden)= 0.91423E-02
  rms(prec ) = 0.88773E-03
  weight for this iteration     100.00
  WARNING: grid for Broyden might be to small

 eigenvalues of (default mixing * dielectric matrix)
  average eigenvalue GAMMA=   1.2307
  3.7885  2.5910  1.7016  0.9608  0.9608  0.8130  0.6466  0.6112  0.5325  0.4658
  0.4658

 Free energy of the ion-electron system (eV)
  ---------------------------------------------------
  alpha Z        PSCENC =        19.47216629
  Ewald energy   TEWEN  =     22328.85518659
  -Hartree energ DENC   =    -27080.05408243
  -exchange      EXHF   =         0.00000000
  -V(xc)+E(xc)   XCENC  =      -261.47803016
  PAW double counting   =     27835.79891484   -27296.68573484
  entropy T*S    EENTRO =        -0.19297578
  eigenvalues    EBANDS =     -1671.87721485
  atomic energy  EATOM  =      5628.05094236
  Solvation  Ediel_sol  =         0.00000000
  ---------------------------------------------------
  free energy    TOTEN  =      -498.11082799 eV

  energy without entropy =     -497.91785221  energy(sigma->0) =     -498.01434010


--------------------------------------------------------------------------------------------------------




--------------------------------------- Iteration      1(  13)  ---------------------------------------


    POTLOK:  cpu time      2.0040: real time      2.0299
    SETDIJ:  cpu time      1.3104: real time      1.3113
    EDDIAG:  cpu time     43.1317: real time     43.1556
     EDDAV:  cpu time    190.6896: real time    190.7965
       DOS:  cpu time      0.0025: real time      0.0025
    CHARGE:  cpu time     24.6711: real time     24.6943
    MIXING:  cpu time      0.0431: real time      0.0431
    --------------------------------------------
      LOOP:  cpu time    261.8523: real time    262.0331

 eigenvalue-minimisations  :  2400
 total energy-change (2. order) :-0.1274850E-03  (-0.1882169E-04)
 number of electron     220.9999999 magnetization 
 augmentation part      -12.4298526 magnetization 

 Broyden mixing:
  rms(total) = 0.35388E-03    rms(broyden)= 0.73194E-02
  rms(prec ) = 0.59432E-03
  weight for this iteration     100.00
  WARNING: grid for Broyden might be to small

 eigenvalues of (default mixing * dielectric matrix)
  average eigenvalue GAMMA=   1.3939
  5.5472  2.4985  2.4985  0.9254  0.9254  0.9128  0.4697  0.4697  0.5333  0.6557
  0.6557  0.6347

 Free energy of the ion-electron system (eV)
  ---------------------------------------------------
  alpha Z        PSCENC =        19.47216629
  Ewald energy   TEWEN  =     22328.85518659
  -Hartree energ DENC   =    -27079.85942520
  -exchange      EXHF   =         0.00000000
  -V(xc)+E(xc)   XCENC  =      -261.48377828
  PAW double counting   =     27835.33106817   -27296.21781948
  entropy T*S    EENTRO =        -0.19297560
  eigenvalues    EBANDS =     -1672.06632034
  atomic energy  EATOM  =      5628.05094236
  Solvation  Ediel_sol  =         0.00000000
  ---------------------------------------------------
  free energy    TOTEN  =      -498.11095548 eV

  energy without entropy =     -497.91797988  energy(sigma->0) =     -498.01446768


--------------------------------------------------------------------------------------------------------




--------------------------------------- Iteration      1(  14)  ---------------------------------------


    POTLOK:  cpu time      2.0300: real time      2.0314
    SETDIJ:  cpu time      1.3052: real time      1.3060
    EDDIAG:  cpu time     43.1378: real time     43.1616
     EDDAV:  cpu time    190.6775: real time    190.7831
       DOS:  cpu time      0.0023: real time      0.0023
    CHARGE:  cpu time     24.6676: real time     24.6886
    MIXING:  cpu time      0.0458: real time      0.0458
    --------------------------------------------
      LOOP:  cpu time    261.8662: real time    262.0189

 eigenvalue-minimisations  :  2400
 total energy-change (2. order) :-0.1061755E-03  (-0.1213649E-04)
 number of electron     220.9999999 magnetization 
 augmentation part      -12.4298962 magnetization 

 Broyden mixing:
  rms(total) = 0.26369E-03    rms(broyden)= 0.56977E-02
  rms(prec ) = 0.45915E-03
  weight for this iteration     100.00
  WARNING: grid for Broyden might be to small

 eigenvalues of (default mixing * dielectric matrix)
  average eigenvalue GAMMA=   1.5433
  7.6658  2.6442  2.6442  0.9991  0.9991  0.9898  0.7817  0.4644  0.4644  0.6295
  0.6295  0.5757  0.5757

 Free energy of the ion-electron system (eV)
  ---------------------------------------------------
  alpha Z        PSCENC =        19.47216629
  Ewald energy   TEWEN  =     22328.85518659
  -Hartree energ DENC   =    -27079.72874150
  -exchange      EXHF   =         0.00000000
  -V(xc)+E(xc)   XCENC  =      -261.48736810
  PAW double counting   =     27835.06384734   -27295.95071072
  entropy T*S    EENTRO =        -0.19296582
  eigenvalues    EBANDS =     -1672.19341808
  atomic energy  EATOM  =      5628.05094236
  Solvation  Ediel_sol  =         0.00000000
  ---------------------------------------------------
  free energy    TOTEN  =      -498.11106165 eV

  energy without entropy =     -497.91809584  energy(sigma->0) =     -498.01457875


--------------------------------------------------------------------------------------------------------




--------------------------------------- Iteration      1(  15)  ---------------------------------------


    POTLOK:  cpu time      2.0162: real time      2.0459
    SETDIJ:  cpu time      1.3092: real time      1.3098
    EDDIAG:  cpu time     43.1386: real time     43.1611
     EDDAV:  cpu time    190.7754: real time    190.8837
       DOS:  cpu time      0.0131: real time      0.0131
    CHARGE:  cpu time     24.5774: real time     24.6210
    MIXING:  cpu time      0.0591: real time      0.0598
    --------------------------------------------
      LOOP:  cpu time    261.8892: real time    262.0947

 eigenvalue-minimisations  :  2400
 total energy-change (2. order) :-0.1127847E-03  (-0.1359019E-04)
 number of electron     220.9999999 magnetization 
 augmentation part      -12.4299462 magnetization 

 Broyden mixing:
  rms(total) = 0.28349E-03    rms(broyden)= 0.45119E-02
  rms(prec ) = 0.40563E-03
  weight for this iteration     100.00
  WARNING: grid for Broyden might be to small

 eigenvalues of (default mixing * dielectric matrix)
  average eigenvalue GAMMA=   1.6006
  8.8716  2.7075  2.7075  1.2491  0.9838  0.9838  0.9412  0.6744  0.6744  0.6228
  0.4644  0.4644  0.5315  0.5315

 Free energy of the ion-electron system (eV)
  ---------------------------------------------------
  alpha Z        PSCENC =        19.47216629
  Ewald energy   TEWEN  =     22328.85518659
  -Hartree energ DENC   =    -27079.57777599
  -exchange      EXHF   =         0.00000000
  -V(xc)+E(xc)   XCENC  =      -261.49023590
  PAW double counting   =     27834.90664973   -27295.79375035
  entropy T*S    EENTRO =        -0.19297051
  eigenvalues    EBANDS =     -1672.34138666
  atomic energy  EATOM  =      5628.05094236
  Solvation  Ediel_sol  =         0.00000000
  ---------------------------------------------------
  free energy    TOTEN  =      -498.11117444 eV

  energy without entropy =     -497.91820393  energy(sigma->0) =     -498.01468918


--------------------------------------------------------------------------------------------------------




--------------------------------------- Iteration      1(  16)  ---------------------------------------


    POTLOK:  cpu time      2.0237: real time      2.0405
    SETDIJ:  cpu time      1.3141: real time      1.3151
    EDDIAG:  cpu time     43.1457: real time     43.1703
     EDDAV:  cpu time    190.7100: real time    190.8136
       DOS:  cpu time      0.0042: real time      0.0042
    CHARGE:  cpu time     24.6238: real time     24.6478
    MIXING:  cpu time      0.0451: real time      0.0451
    --------------------------------------------
      LOOP:  cpu time    261.8662: real time    262.0362

 eigenvalue-minimisations  :  2400
 total energy-change (2. order) :-0.1003884E-03  (-0.1035804E-04)
 number of electron     220.9999999 magnetization 
 augmentation part      -12.4299537 magnetization 

 Broyden mixing:
  rms(total) = 0.19451E-03    rms(broyden)= 0.34731E-02
  rms(prec ) = 0.27441E-03
  weight for this iteration     100.00
  WARNING: grid for Broyden might be to small

 eigenvalues of (default mixing * dielectric matrix)
  average eigenvalue GAMMA=   1.6269
  9.4872  2.7659  2.7659  1.5877  1.0815  0.9925  0.9925  0.8265  0.6512  0.6512
  0.4638  0.4638  0.6093  0.5322  0.5322

 Free energy of the ion-electron system (eV)
  ---------------------------------------------------
  alpha Z        PSCENC =        19.47216629
  Ewald energy   TEWEN  =     22328.85518659
  -Hartree energ DENC   =    -27079.45772324
  -exchange      EXHF   =         0.00000000
  -V(xc)+E(xc)   XCENC  =      -261.49252931
  PAW double counting   =     27835.32011899   -27296.20748144
  entropy T*S    EENTRO =        -0.19297072
  eigenvalues    EBANDS =     -1672.45898436
  atomic energy  EATOM  =      5628.05094236
  Solvation  Ediel_sol  =         0.00000000
  ---------------------------------------------------
  free energy    TOTEN  =      -498.11127483 eV

  energy without entropy =     -497.91830411  energy(sigma->0) =     -498.01478947


--------------------------------------------------------------------------------------------------------




--------------------------------------- Iteration      1(  17)  ---------------------------------------


    POTLOK:  cpu time      2.0051: real time      2.0306
    SETDIJ:  cpu time      1.3043: real time      1.3052
    EDDIAG:  cpu time     43.0667: real time     43.0917
     EDDAV:  cpu time    190.5052: real time    190.6171
       DOS:  cpu time      0.0042: real time      0.0042
    CHARGE:  cpu time     24.6465: real time     24.6704
    MIXING:  cpu time      0.0465: real time      0.0465
    --------------------------------------------
      LOOP:  cpu time    261.5784: real time    261.7656

 eigenvalue-minimisations  :  2400
 total energy-change (2. order) :-0.6054019E-04  (-0.6564038E-05)
 number of electron     220.9999999 magnetization 
 augmentation part      -12.4299820 magnetization 

 Broyden mixing:
  rms(total) = 0.91256E-04    rms(broyden)= 0.20583E-02
  rms(prec ) = 0.14086E-03
  weight for this iteration     100.00
  WARNING: grid for Broyden might be to small

 eigenvalues of (default mixing * dielectric matrix)
  average eigenvalue GAMMA=   1.6304
  9.8026  2.9342  2.7588  2.0596  1.0664  0.9680  0.9680  0.9125  0.7451  0.6576
  0.4637  0.4637  0.6088  0.6088  0.5345  0.5345

 Free energy of the ion-electron system (eV)
  ---------------------------------------------------
  alpha Z        PSCENC =        19.47216629
  Ewald energy   TEWEN  =     22328.85518659
  -Hartree energ DENC   =    -27079.37293592
  -exchange      EXHF   =         0.00000000
  -V(xc)+E(xc)   XCENC  =      -261.49353021
  PAW double counting   =     27835.38926316   -27296.27676309
  entropy T*S    EENTRO =        -0.19296328
  eigenvalues    EBANDS =     -1672.54270125
  atomic energy  EATOM  =      5628.05094236
  Solvation  Ediel_sol  =         0.00000000
  ---------------------------------------------------
  free energy    TOTEN  =      -498.11133537 eV

  energy without entropy =     -497.91837209  energy(sigma->0) =     -498.01485373


--------------------------------------------------------------------------------------------------------




--------------------------------------- Iteration      1(  18)  ---------------------------------------


    POTLOK:  cpu time      2.0318: real time      2.0394
    SETDIJ:  cpu time      1.3039: real time      1.3046
    EDDIAG:  cpu time     43.1251: real time     43.1491
     EDDAV:  cpu time    192.1662: real time    192.2774
       DOS:  cpu time      0.0023: real time      0.0024
    CHARGE:  cpu time     24.5894: real time     24.6110
    MIXING:  cpu time      0.0476: real time      0.0476
    --------------------------------------------
      LOOP:  cpu time    263.2663: real time    263.4315

 eigenvalue-minimisations  :  2432
 total energy-change (2. order) :-0.2852868E-04  (-0.3472843E-05)
 number of electron     220.9999999 magnetization 
 augmentation part      -12.4300060 magnetization 

 Broyden mixing:
  rms(total) = 0.12386E-03    rms(broyden)= 0.14624E-02
  rms(prec ) = 0.15778E-03
  weight for this iteration     100.00
  WARNING: grid for Broyden might be to small

 eigenvalues of (default mixing * dielectric matrix)
  average eigenvalue GAMMA=   1.6073
  9.8947  3.0268  2.7495  2.2091  1.0724  1.0724  1.0264  1.0264  0.7737  0.4638
  0.4638  0.6749  0.6048  0.6048  0.6142  0.5232  0.5232

 Free energy of the ion-electron system (eV)
  ---------------------------------------------------
  alpha Z        PSCENC =        19.47216629
  Ewald energy   TEWEN  =     22328.85518659
  -Hartree energ DENC   =    -27079.32242287
  -exchange      EXHF   =         0.00000000
  -V(xc)+E(xc)   XCENC  =      -261.49414152
  PAW double counting   =     27835.38009834   -27296.26762001
  entropy T*S    EENTRO =        -0.19297196
  eigenvalues    EBANDS =     -1672.59260111
  atomic energy  EATOM  =      5628.05094236
  Solvation  Ediel_sol  =         0.00000000
  ---------------------------------------------------
  free energy    TOTEN  =      -498.11136390 eV

  energy without entropy =     -497.91839194  energy(sigma->0) =     -498.01487792


--------------------------------------------------------------------------------------------------------




--------------------------------------- Iteration      1(  19)  ---------------------------------------


    POTLOK:  cpu time      2.0090: real time      2.0361
    SETDIJ:  cpu time      1.3048: real time      1.3059
    EDDIAG:  cpu time     43.1528: real time     43.1740
     EDDAV:  cpu time    191.3619: real time    191.4693
       DOS:  cpu time      0.0034: real time      0.0034
[...]
    OFIELD:  cpu time      0.0033: real time      0.0035

  FORCE on cell =-STRESS in cart. coord.  units (eV):
  Direction    XX          YY          ZZ          XY          YZ          ZX
  --------------------------------------------------------------------------------------
  Alpha Z    19.47217    19.47217    19.47217
  Ewald   26190.15814 26075.84630-29937.16877    46.94730   -46.78736   -68.17933
  Hartree 26615.37645 26575.37499-26111.47774    43.91851   -17.00223   -14.06295
  E(xc)    -653.76981  -653.12682  -651.77070     0.10817     0.28761     0.81100
  Local  -55440.79691-55278.59771 53440.44489   -87.15006    61.84516    87.86857
  n-local  2072.67692  2053.90506  2001.49704    -4.04721    -2.57989   -15.60882
  augment  -308.06536  -306.18270  -302.67572     0.53575    -0.12403     1.12133
  Kinetic  1487.11672  1489.47677  1539.67270    -2.92466     5.40157     6.63921
  Fock        0.00000     0.00000     0.00000     0.00000     0.00000     0.00000
  -------------------------------------------------------------------------------------
  Total     -17.83167   -23.83194    -2.00613    -2.61220     1.04082    -1.41100
  in kB      -5.39447    -7.20969    -0.60690    -0.79025     0.31487    -0.42686
  external pressure =       -4.40 kB  Pullay stress =        0.00 kB


 VOLUME and BASIS-vectors are now :
 -----------------------------------------------------------------------------
  energy-cutoff  :     1200.00
  volume of cell :     5296.07
      direct lattice vectors                 reciprocal lattice vectors
    14.546908013  0.000000000  0.000000000     0.068743131  0.000000000  0.000000000
     0.000000000 14.546908013  0.000000000     0.000000000  0.068743131  0.000000000
     0.000000000  0.000000000 25.027194200     0.000000000  0.000000000  0.039956537

  length of vectors
    14.546908013 14.546908013 25.027194200     0.068743131  0.068743131  0.039956537


 FORCES acting on ions
    electron-ion (+dipol)            ewald-force                    non-local-force                 convergence-correction
 -----------------------------------------------------------------------------------------------
   0.975E+01 -.282E+01 -.602E+02   -.128E+02 0.250E+01 0.631E+02   0.230E+01 0.419E-01 -.197E+01   0.320E-04 0.211E-04 0.584E-04
   0.193E+02 -.462E+01 -.483E+02   -.209E+02 0.423E+01 0.493E+02   0.228E+01 0.923E+00 -.542E+00   -.610E-05 -.223E-04 0.190E-05
   -.844E+01 0.104E+01 0.225E+02   0.111E+02 -.163E+01 -.218E+02   -.219E+01 0.455E+00 -.797E+00   -.427E-04 0.336E-04 0.211E-04
   -.107E+02 0.168E+02 0.553E+02   0.113E+02 -.176E+02 -.554E+02   -.126E+01 0.193E+01 -.111E+00   0.640E-05 0.161E-04 0.162E-04
   -.509E+01 -.351E+01 0.614E+02   0.517E+01 0.355E+01 -.611E+02   0.280E-01 -.119E-02 0.272E+00   -.315E-05 -.207E-04 -.379E-05
   0.213E+02 -.488E+02 0.140E+03   -.219E+02 0.472E+02 -.137E+03   0.757E+00 0.215E+01 -.291E+01   -.149E-03 -.336E-04 0.779E-04
   -.932E+01 0.139E+02 0.135E+03   0.917E+01 -.126E+02 -.132E+03   0.728E+00 -.205E+01 -.282E+01   0.332E-04 0.604E-04 0.437E-04
   0.297E+02 -.608E+01 -.201E+03   -.291E+02 0.376E+01 0.203E+03   -.978E+00 0.261E+01 -.161E+01   0.113E-03 -.113E-03 0.407E-04
   -.305E+02 0.154E+02 0.136E+03   0.284E+02 -.145E+02 -.135E+03   0.198E+01 -.177E+01 -.602E-01   0.154E-03 0.174E-05 0.102E-03
   -.784E+01 0.398E+01 0.145E+02   0.763E+01 -.359E+01 -.125E+02   0.218E+00 -.117E+01 -.151E+01   0.282E-04 0.543E-04 0.511E-04
   0.357E+01 0.552E+01 -.126E+03   -.344E+01 -.641E+01 0.123E+03   -.414E+00 0.922E+00 0.265E+01   0.523E-04 -.140E-04 0.754E-04
   0.151E+02 0.116E+01 0.106E+03   -.148E+02 -.146E+01 -.105E+03   -.543E+00 -.472E+00 -.319E+00   0.769E-04 0.153E-03 0.772E-04
   -.202E+02 -.125E+02 -.162E+03   0.190E+02 0.135E+02 0.161E+03   0.927E+00 -.749E+00 0.203E+01   0.460E-04 -.205E-03 0.949E-04
   -.281E+02 -.215E+02 0.658E+02   0.271E+02 0.208E+02 -.644E+02   0.131E+01 0.757E+00 -.132E+01   0.193E-03 -.602E-03 0.285E-03
   -.237E+01 0.307E+02 0.106E+03   0.217E+01 -.282E+02 -.108E+03   0.998E+00 -.292E+01 0.135E+01   -.852E-04 -.871E-05 0.254E-04
   0.942E+00 -.281E+01 0.151E+03   -.120E+01 0.299E+01 -.151E+03   0.258E+00 0.173E+00 0.999E+00   -.396E-04 0.436E-03 0.150E-03
   0.145E+02 -.363E+02 -.144E+03   -.158E+02 0.325E+02 0.141E+03   0.132E+01 0.364E+01 0.242E+01   -.121E-03 -.856E-05 0.606E-04
   0.782E+01 -.931E+01 -.118E+03   -.532E+01 0.900E+01 0.116E+03   -.256E+01 0.920E+00 0.165E+01   0.220E-03 -.109E-03 0.967E-04
   0.309E+01 0.214E+02 -.213E+03   -.195E+01 -.237E+02 0.214E+03   -.126E+01 0.232E+01 -.708E+00   -.163E-03 0.188E-03 0.133E-03
   -.259E+02 0.843E+01 0.159E+03   0.276E+02 -.101E+02 -.160E+03   -.176E+01 0.179E+01 0.112E+01   0.512E-04 0.850E-04 0.561E-04
   -.374E+01 0.121E+02 0.840E+02   0.390E+01 -.135E+02 -.833E+02   -.221E+00 0.128E+01 -.142E+01   -.140E-03 -.851E-04 0.802E-04
   0.527E+01 0.695E+01 -.142E+03   -.605E+01 -.699E+01 0.140E+03   0.624E+00 0.114E+01 0.192E+01   0.193E-03 0.110E-03 0.417E-04
   -.243E+02 0.122E+02 -.113E+03   0.212E+02 -.107E+02 0.112E+03   0.399E+01 -.253E+01 0.124E+00   0.249E-03 0.922E-04 0.157E-03
   -.927E+01 -.615E+01 0.303E+02   0.854E+01 0.615E+01 -.286E+02   0.144E+01 0.787E+00 -.209E+01   -.292E-03 0.314E-03 0.207E-03
   -.954E+01 -.138E+02 -.111E+03   0.716E+01 0.129E+02 0.109E+03   0.349E+01 -.245E+00 0.168E+01   -.116E-03 -.127E-04 0.628E-04
   0.178E+01 0.119E+01 0.659E+02   -.709E+00 -.183E+01 -.637E+02   -.100E+01 -.550E-01 -.259E+01   0.160E-04 0.160E-03 0.314E-04
   0.297E+02 0.263E+01 0.140E+03   -.284E+02 -.285E+01 -.137E+03   -.106E+01 -.374E+00 -.218E+01   -.135E-03 0.174E-03 0.126E-03
   0.945E+00 -.389E+01 0.165E+03   -.123E+01 0.425E+01 -.164E+03   0.114E+01 0.152E+00 -.703E+00   0.773E-04 0.109E-03 0.606E-04
   -.352E+02 -.185E+01 -.185E+03   0.351E+02 0.217E+01 0.186E+03   0.109E+01 -.486E+00 -.366E+00   -.156E-03 0.242E-03 0.136E-03
   0.166E+02 -.136E+02 0.164E+03   -.159E+02 0.135E+02 -.164E+03   -.176E+01 0.113E+01 -.403E+00   -.131E-03 0.919E-04 0.105E-03
   -.433E+01 0.412E+01 -.226E+03   0.499E+01 -.411E+01 0.229E+03   -.880E+00 -.305E+00 -.230E+01   -.149E-04 -.793E-04 0.350E-03
   -.226E+02 0.138E+00 0.111E+02   0.225E+02 0.110E+00 -.702E+01   -.194E+00 0.684E+00 -.544E+01   0.133E-03 -.244E-03 0.669E-03
   0.224E+02 -.233E+02 0.778E+02   -.238E+02 0.231E+02 -.769E+02   0.176E+01 0.865E-01 -.210E+01   0.461E-04 -.107E-03 0.839E-04
   -.252E+02 -.122E+02 -.185E+03   0.245E+02 0.112E+02 0.184E+03   0.707E+00 0.909E+00 0.116E+01   0.123E-04 -.575E-06 0.275E-04
   -.220E+02 0.141E+02 0.129E+03   0.200E+02 -.119E+02 -.125E+03   0.171E+01 -.230E+01 -.384E+01   0.450E-03 0.492E-03 0.290E-03
   0.323E+02 -.751E+01 0.104E+03   -.308E+02 0.452E+01 -.102E+03   -.213E+01 0.381E+01 -.159E+01   0.188E-03 -.653E-04 0.105E-03
   -.967E+01 0.116E+02 0.217E+03   0.860E+01 -.114E+02 -.214E+03   0.146E+01 0.238E+00 -.240E+01   -.395E-03 -.305E-03 0.999E-04
   0.557E+01 -.136E+02 -.566E+02   -.468E+01 0.126E+02 0.557E+02   -.931E+00 0.194E+01 0.473E+00   -.110E-03 -.241E-04 0.399E-04
   -.182E+01 -.103E+02 -.818E+02   -.207E-01 0.105E+02 0.830E+02   0.279E+01 0.271E+00 -.103E+01   0.689E-04 -.566E-04 0.284E-04
   0.181E+02 0.219E+02 -.100E+03   -.188E+02 -.206E+02 0.973E+02   0.361E+00 -.136E+01 0.297E+01   0.331E-05 0.113E-03 0.502E-04
   -.212E+02 0.291E+02 -.950E+01   0.194E+02 -.275E+02 0.964E+01   0.312E+01 -.183E+01 -.413E+00   0.632E-04 0.776E-04 0.960E-04
   -.833E+00 -.316E+02 0.221E+03   0.257E+01 0.307E+02 -.217E+03   -.159E+01 0.224E+00 -.445E+01   -.561E-03 -.103E-03 0.792E-04
   -.118E+02 -.565E+01 0.207E+03   0.131E+02 0.544E+01 -.204E+03   -.228E+01 0.289E+00 -.312E+01   -.150E-03 -.589E-03 0.109E-03
   -.125E+02 0.259E+02 -.168E+03   0.118E+02 -.260E+02 0.165E+03   0.140E+01 -.310E-01 0.246E+01   -.123E-03 -.909E-04 -.327E-05
   0.153E+02 0.248E+01 -.515E+02   -.146E+02 -.322E+01 0.505E+02   0.708E-02 0.226E+00 0.161E+01   0.907E-04 0.339E-04 0.874E-04
   -.271E+02 -.208E+01 0.318E+02   0.249E+02 0.253E+01 -.314E+02   0.372E+01 -.341E+00 -.157E+01   -.608E-03 0.153E-04 0.400E-03
   0.753E+01 -.348E+01 0.239E+03   -.968E+01 0.278E+01 -.239E+03   0.379E+01 -.438E-01 -.898E+00   0.836E-04 -.546E-04 0.614E-04
   0.132E+02 -.843E+01 -.178E+03   -.135E+02 0.108E+02 0.176E+03   -.707E+00 -.295E+01 0.243E+01   0.343E-04 -.846E-04 -.159E-04
   0.361E+01 -.719E+01 -.234E+03   -.294E+01 0.749E+01 0.234E+03   -.458E+00 -.247E+00 -.203E-01   -.136E-03 0.685E-04 0.140E-03
   0.130E+02 -.926E+01 -.206E+03   -.136E+02 0.874E+01 0.210E+03   0.550E+00 0.763E+00 -.358E+01   -.654E-04 -.131E-03 0.805E-04
   0.144E+02 -.299E+01 0.210E+03   -.133E+02 0.415E+01 -.208E+03   -.171E+01 -.147E+01 -.205E+01   0.112E-04 -.105E-03 0.743E-04
   -.612E-01 -.233E+02 0.185E+03   0.552E+00 0.223E+02 -.187E+03   -.141E+01 0.110E+01 0.167E+01   0.191E-03 -.253E-03 0.729E-04
   0.260E+02 0.343E+00 -.163E+03   -.237E+02 0.405E+00 0.161E+03   -.422E+01 -.144E+01 0.173E+01   -.255E-04 0.301E-04 0.551E-04
   0.951E+01 0.116E+02 -.229E+03   -.125E+02 -.921E+01 0.230E+03   0.194E+01 -.234E+01 -.119E+01   0.476E-04 0.662E-04 0.352E-04
   0.157E+02 -.920E+01 0.919E+02   -.161E+02 0.103E+02 -.922E+02   0.987E-01 -.909E+00 0.756E+00   0.129E-03 -.510E-04 0.559E-04
   -.118E+02 0.149E+02 -.179E+03   0.125E+02 -.135E+02 0.177E+03   -.192E+01 -.137E+01 0.313E+01   -.293E-03 -.126E-03 0.152E-03
   0.125E+02 0.207E+02 0.225E+03   -.120E+02 -.205E+02 -.227E+03   -.172E+01 -.460E+00 0.131E+01   0.113E-03 0.117E-03 0.514E-04
   -.724E+01 0.194E+02 -.193E+03   0.942E+01 -.219E+02 0.192E+03   -.233E+01 0.309E+01 0.162E+01   0.965E-04 0.981E-04 0.643E-04
   0.105E+02 0.219E+02 0.159E+03   -.978E+01 -.211E+02 -.156E+03   -.151E+01 -.487E+00 -.298E+01   -.679E-04 -.799E-04 0.459E-04
 -----------------------------------------------------------------------------------------------
   -.928E+01 -.606E+01 0.259E+02   -.533E-14 0.497E-13 -.256E-12   0.928E+01 0.605E+01 -.259E+02   -.828E-03 -.332E-03 0.586E-02


 POSITION                                       TOTAL-FORCE (eV/Angst)
 -----------------------------------------------------------------------------------
     12.71880      9.99684     14.55335        -0.733145     -0.284872      0.916141
      4.77200      8.98661     14.03431         0.626205      0.535272      0.447674
      9.94388     14.01910     11.81975         0.441028     -0.136648     -0.119050
      3.59192      2.78253     10.15928        -0.664548      1.123650     -0.243019
     11.09920      8.26986     10.00000         0.105315      0.035735      0.506116
      5.72468      9.12621     11.41386         0.265986      0.484728     -0.078032
     11.93310      1.76306     11.52023         0.520709     -0.788705     -0.171599
      1.04080      6.09917     14.54384        -0.313736      0.534797      0.165570
      2.65517     11.07590     11.21516        -0.219738     -0.952199      0.492438
      4.71104      1.86116     12.54592         0.065315     -0.873638      0.528096
     12.85300      2.57575     13.40879        -0.270604      0.140931      0.052376
     14.22000     13.39190     11.61347        -0.237066     -0.804961      0.507320
     12.04480      4.75073     13.89123        -0.274061      0.037015      0.295719
     12.06850      5.92509     11.88485         0.304103      0.104837      0.029638
      6.52125      3.04104     11.68087         0.833739     -0.475068      0.504235
     11.04630     11.72350     11.31180         0.084991      0.288389      0.740272
      6.16233      9.60604     13.66493        -0.046229     -0.087932      0.092051
      0.89087      8.25142     13.63257        -0.230804      0.636085     -0.614538
      8.75293     11.47940     14.69790        -0.175549      0.290403     -0.243866
      3.52335      0.15964     11.29933        -0.362806      0.225067     -0.043159
      6.40620      5.28945     11.60822        -0.081602     -0.117358     -0.811607
     14.53645     12.26810     13.68161        -0.027114      1.148636     -0.149060
     13.82310     10.13130     13.61155         1.015148     -1.172689     -0.563746
      8.98845     10.97080     12.41602         0.787743      0.824584     -0.500629
      8.18157      0.83976     13.60458         1.253158     -1.182932     -0.327775
     11.94750     13.94920     12.05339         0.001637     -0.705167     -0.552708
      7.25932     12.36030     11.66169         0.266732     -0.528748      0.417526
      1.12152      0.56787     11.21394         0.900960      0.458333      0.529270
     11.37050     13.91120     14.36932         0.835022     -0.226495     -0.437104
      8.53246     14.28940     11.42978        -1.048095      0.984159      0.540649
     11.32230      8.11908     14.83436        -0.262053     -0.315599      0.719207
     11.45900      8.04884     12.56215        -0.274520      0.971296     -1.681158
      3.96945      7.66273     11.84917         0.391579     -0.039702     -1.312452
      3.36834      2.80024     14.16865         0.003894     -0.150626     -0.168633
     12.60970      9.99592     11.61902        -0.295846     -0.202797     -0.195397
      2.03683      8.75536     11.71279        -0.591590      1.078035      0.207590
      8.16969      5.99663     10.31052         0.469031      0.521326      0.165054
      8.62623      2.93362     12.94231        -0.073562      1.001512     -0.391716
      2.49878      4.80415     13.31868         1.087694      0.520654      0.168155
      5.71517     12.61420     13.38392        -0.332644     -0.019281     -0.038180
      3.41564     12.76080     12.61826         1.539234     -0.256506     -0.289200
      7.71998      8.28818     10.55882         0.039416     -0.736644     -0.223518
     10.39500      5.21186     10.48983        -1.224094      0.017165     -0.267557
      6.34511      6.06720     13.76354         0.678976      0.020739      0.181319
      0.50157      2.06131     12.90374         0.717596     -0.467244      0.704946
      9.14773      8.66404     12.27219         1.663726      0.090096     -1.183684
      2.70006      4.13457     10.04318         1.973332     -0.817680     -0.083275
      4.08119      6.65362     13.86661        -0.941219     -0.795414      0.443006
      9.17432     13.79540     15.02719         0.294825     -0.007227     -0.146067
      9.76140      4.32086     14.58962         0.068226      0.215964     -0.421435
      4.39554      5.80083     10.53939        -0.783673     -0.406046      0.694486
     13.84880      4.88816     10.76548        -0.952824      0.086703     -0.081561
      6.07184      0.43005     13.97017        -2.029190     -0.796666     -0.600730
      1.82113      1.19205     14.76533        -0.799452     -0.026504     -0.677502
      1.12148      3.91780     11.63266        -0.224063      0.123442      0.567203
      7.95538      7.80611     13.92474        -1.425168      0.036923      1.250164
      0.68454     11.70720     10.29492        -1.221061     -0.284632      0.145908
      1.96931     13.33130     14.22494        -0.347926      0.784212      0.511530
     10.11050      3.00715     11.16541        -0.771338      0.339291      0.094296
 -----------------------------------------------------------------------------------
    total drift:                                0.005287     -0.004314     -0.003551


--------------------------------------------------------------------------------------------------------



  FREE ENERGIE OF THE ION-ELECTRON SYSTEM (eV)
  ---------------------------------------------------
  free  energy   TOTEN  =      -498.11138093 eV

  energy  without entropy=     -497.91841481  energy(sigma->0) =     -498.01489787



--------------------------------------------------------------------------------------------------------


    POTLOK:  cpu time      3.3048: real time      3.3067


--------------------------------------------------------------------------------------------------------


     LOOP+:  cpu time   5941.4064: real time   5945.5679
    4ORBIT:  cpu time      0.0000: real time      0.0000



 total charge

# of ion       s       p       d       tot
------------------------------------------
    1        0.580   0.018   0.000   0.598
    2        0.533   0.015   0.000   0.548
    3        0.575   0.022   0.000   0.597
    4        0.515   0.011   0.000   0.527
    5        0.393   0.001   0.000   0.394
    6        0.783   0.871   0.000   1.655
    7        0.803   0.882   0.000   1.685
    8        0.859   0.732   0.000   1.591
    9        0.792   0.853   0.000   1.645
   10        0.764   0.896   0.000   1.660
   11        0.800   0.861   0.000   1.661
   12        0.770   0.916   0.000   1.686
   13        0.797   0.830   0.000   1.626
   14        0.771   0.916   0.000   1.687
   15        0.810   0.844   0.000   1.654
   16        0.813   0.784   0.000   1.597
   17        0.783   0.811   0.000   1.594
   18        0.782   0.849   0.000   1.631
   19        0.874   0.698   0.000   1.572
   20        0.819   0.796   0.000   1.615
   21        0.767   0.953   0.000   1.721
   22        0.796   0.864   0.000   1.660
   23        0.762   0.935   0.000   1.697
   24        0.774   0.895   0.000   1.670
   25        0.770   0.964   0.000   1.734
   26        0.776   0.829   0.000   1.605
   27        0.807   0.842   0.000   1.649
   28        0.808   0.837   0.000   1.645
   29        0.849   0.733   0.000   1.581
   30        0.817   0.841   0.000   1.657
   31        0.923   0.621   0.000   1.544
   32        0.759   0.923   0.000   1.682
   33        0.767   0.972   0.000   1.739
   34        0.801   0.857   0.000   1.658
   35        0.783   0.828   0.000   1.611
   36        0.794   0.873   0.000   1.668
   37        0.786   0.858   0.000   1.644
   38        0.770   0.908   0.000   1.678
   39        0.780   0.872   0.000   1.651
   40        0.784   0.814   0.000   1.598
   41        0.770   0.925   0.000   1.695
   42        0.797   0.865   0.000   1.663
   43        0.789   0.858   0.000   1.647
   44        0.811   0.840   0.000   1.650
   45        0.778   0.885   0.000   1.662
   46        0.777   0.946   0.000   1.723
   47        0.798   0.838   0.000   1.637
   48        0.828   0.806   0.000   1.634
   49        0.804   0.859   0.000   1.664
   50        0.871   0.689   0.000   1.561
   51        0.804   0.834   0.000   1.638
   52        0.854   0.768   0.000   1.622
   53        0.806   0.850   0.000   1.656
   54        0.821   0.796   0.000   1.617
   55        0.775   0.948   0.000   1.723
   56        0.811   0.814   0.000   1.625
   57        0.848   0.757   0.000   1.605
   58        0.808   0.841   0.000   1.649
   59        0.795   0.877   0.000   1.672
--------------------------------------------------
tot         45.834  45.824   0.000  91.658


 total amount of memory used by VASP MPI-rank0   337444. kBytes
=======================================================================

   base                                    :      30000. kBytes
   nonl-proj                               :      61622. kBytes
   fftplans                                :      97989. kBytes
   grid                                    :      75605. kBytes
   one-center                              :         12. kBytes
   wavefun                                 :      72216. kBytes

  
  
 General timing and accounting informations for this job:
 ========================================================
  
                  Total CPU time used (sec):     6077.211
                            User time (sec):     5357.367
                          System time (sec):      719.845
                         Elapsed time (sec):     6081.393
  
                   Maximum memory used (kb):      590056.
                   Average memory used (kb):          N/A
  
                          Minor page faults:     10338953
                          Major page faults:         1151
                 Voluntary context switches:         3312
