 vasp.6.5.0 16Dec24 (build Jan 20 2025 08:32:48) complex                         
 executed on        HPECrayEX_GCC date 2025.07.22  12:55:28
 running  128 mpi-ranks, with    1 threads/rank, on    1 nodes
 distrk:  each k-point on  128 cores,    1 groups
 distr:  one band on NCORE=  16 cores,    8 groups


--------------------------------------------------------------------------------------------------------


 INCAR:
   SYSTEM = a-Si SPC
   NCORE = 16
   ISTART = 1
   ICHARG = 1
   ISPIN = 1
   ISYM = 1
   EDIFF = 1E-6
   NELM = 150
   EDIFFG = -0.01
   NSW = 0
   ISIF = 2
   IBRION = -1
   PREC = Accurate
   ENCUT = 1200
   KSPACING = 0.23
   KGAMMA = .TRUE.
   METAGGA = SCAN
   LASPH = .TRUE.
   LDIAG = .FALSE.
   LMIXTAU = .TRUE.
   ADDGRID = .TRUE.
   ALGO = Normal
   ISMEAR = 0
   SIGMA = 0.1
   LORBIT = 11
   NEDOS = 2000
   LWAVE = .FALSE.
   LCHARG = .FALSE.

 POTCAR:    PAW_PBE H 15Jun2001                   
 POTCAR:    PAW_PBE Si 05Jan2001                  
 POTCAR:    PAW_PBE H 15Jun2001                   
   SHA256 =  030f79b5d3ab3cf0e668861823c8fb652ff669f3e15e46930bd03bfd63a607b6 H/POTCAR              
   COPYR  = (c) Copyright 15Jun2001 Georg Kresse                                                    
   COPYR  = This file is part of the software VASP. Any use, copying, and all other rights are regul
   COPYR  = If you do not have a valid VASP license, you may not use, copy or distribute this file. 
   VRHFIN =H: ultrasoft test                                                                        
   LEXCH  = PE                                                                                      
   EATOM  =    12.4884 eV,    0.9179 Ry                                                             
                                                                                                    
   TITEL  = PAW_PBE H 15Jun2001                                                                     
   LULTRA =        F    use ultrasoft PP ?                                                          
   IUNSCR =        0    unscreen: 0-lin 1-nonlin 2-no                                               
   RPACOR =    0.000    partial core radius                                                         
   POMASS =    1.000; ZVAL   =    1.000    mass and valenz                                          
   RCORE  =    1.100    outmost cutoff radius                                                       
   RWIGS  =    0.700; RWIGS  =    0.370    wigner-seitz radius (au A)                               
   ENMAX  =  250.000; ENMIN  =  200.000 eV                                                          
   RCLOC  =    0.701    cutoff for local pot                                                        
   LCOR   =        T    correct aug charges                                                         
   LPAW   =        T    paw PP                                                                      
   EAUG   =  400.000                                                                                
   RMAX   =    1.123    core radius for proj-oper                                                   
   RAUG   =    1.200    factor for augmentation sphere                                              
   RDEP   =    1.112    radius for radial grids                                                     
   RDEPT  =    0.926    core radius for aug-charge                                                  
                                                                                                    
   Atomic configuration                                                                             
    2 entries                                                                                       
     n  l   j            E        occ.                                                              
     1  0  0.50        -6.4927   1.0000                                                             
     2  1  0.50        -3.4015   0.0000                                                             
   Description                                                                                      
     l       E           TYP  RCUT    TYP  RCUT                                                     
     0     -6.4927494     23  1.100                                                                 
     0      6.8029130     23  1.100                                                                 
     1     -4.0817478     23  1.100                                                                 
  local pseudopotential read in
  atomic valenz-charges read in
  non local Contribution for L=           0  read in
    real space projection operators read in
  non local Contribution for L=           0  read in
    real space projection operators read in
  non local Contribution for L=           1  read in
    real space projection operators read in
    PAW grid and wavefunctions read in

   number of l-projection  operators is LMAX  =           3
   number of lm-projection operators is LMMAX =           5

 POTCAR:    PAW_PBE Si 05Jan2001                  
   SHA256 =  79d9987ad8750f624c4d6acb2a16d13abf6a777132adc04dc6c8399be72b42bb Si/POTCAR             
   COPYR  = (c) Copyright 05Jan2001 Georg Kresse                                                    
   COPYR  = This file is part of the software VASP. Any use, copying, and all other rights are regul
   COPYR  = If you do not have a valid VASP license, you may not use, copy or distribute this file. 
   VRHFIN =Si: s2p2                                                                                 
   LEXCH  = PE                                                                                      
   EATOM  =   103.0669 eV,    7.5752 Ry                                                             
                                                                                                    
   TITEL  = PAW_PBE Si 05Jan2001                                                                    
   LULTRA =        F    use ultrasoft PP ?                                                          
   IUNSCR =        1    unscreen: 0-lin 1-nonlin 2-no                                               
   RPACOR =    1.500    partial core radius                                                         
   POMASS =   28.085; ZVAL   =    4.000    mass and valenz                                          
   RCORE  =    1.900    outmost cutoff radius                                                       
   RWIGS  =    2.480; RWIGS  =    1.312    wigner-seitz radius (au A)                               
   ENMAX  =  245.345; ENMIN  =  184.009 eV                                                          
   ICORE  =        2    local potential                                                             
   LCOR   =        T    correct aug charges                                                         
   LPAW   =        T    paw PP                                                                      
   EAUG   =  322.069                                                                                
   DEXC   =    0.000                                                                                
   RMAX   =    1.950    core radius for proj-oper                                                   
   RAUG   =    1.300    factor for augmentation sphere                                              
   RDEP   =    1.993    radius for radial grids                                                     
   RDEPT  =    1.837    core radius for aug-charge                                                  
                                                                                                    
   Atomic configuration                                                                             
    6 entries                                                                                       
     n  l   j            E        occ.                                                              
     1  0  0.50     -1785.8828   2.0000                                                             
     2  0  0.50      -139.4969   2.0000                                                             
     2  1  1.50       -95.5546   6.0000                                                             
     3  0  0.50       -10.8127   2.0000                                                             
     3  1  0.50        -4.0811   2.0000                                                             
     3  2  1.50        -4.0817   0.0000                                                             
   Description                                                                                      
     l       E           TYP  RCUT    TYP  RCUT                                                     
     0    -10.8127223     23  1.900                                                                 
     0     -7.6451159     23  1.900                                                                 
     1     -4.0811372     23  1.900                                                                 
     1      2.4879257     23  1.900                                                                 
     2     -4.0817478      7  1.900                                                                 
  local pseudopotential read in
  partial core-charges read in
  partial kinetic energy density read in
  atomic valenz-charges read in
  non local Contribution for L=           0  read in
    real space projection operators read in
  non local Contribution for L=           0  read in
    real space projection operators read in
  non local Contribution for L=           1  read in
    real space projection operators read in
  non local Contribution for L=           1  read in
    real space projection operators read in
    PAW grid and wavefunctions read in

   number of l-projection  operators is LMAX  =           4
   number of lm-projection operators is LMMAX =           8

 -----------------------------------------------------------------------------
|                                                                             |
|               ----> ADVICE to this user running VASP <----                  |
|                                                                             |
|     You have a (more or less) 'large supercell' and for larger cells it     |
|     might be more efficient to use real-space projection operators.         |
|     Therefore, try LREAL= Auto in the INCAR file.                           |
|     Mind: For very accurate calculation, you might also keep the            |
|     reciprocal projection scheme (i.e. LREAL=.FALSE.).                      |
|                                                                             |
 -----------------------------------------------------------------------------

 -----------------------------------------------------------------------------
|                                                                             |
|               ----> ADVICE to this user running VASP <----                  |
|                                                                             |
|     You enforced a specific xc type in the INCAR file but a different       |
|     type was found in the POTCAR file.                                      |
|     I HOPE YOU KNOW WHAT YOU ARE DOING!                                     |
|                                                                             |
 -----------------------------------------------------------------------------

  PAW_PBE H 15Jun2001                   :
 energy of atom  1       EATOM=  -12.4884
 kinetic energy error for atom=    0.0000 (will be added to EATOM!!)
  PAW_PBE Si 05Jan2001                  :
 energy of atom  2       EATOM= -103.0669
 kinetic energy error for atom=    0.0001 (will be added to EATOM!!)


 POSCAR:  H Si
  positions in cartesian coordinates
  No initial velocities read in


 exchange-correlation table for SCAN
   RHO(1)=    0.500       N(1)  =     2000
   RHO(2)=  100.500       N(2)  =     4000



--------------------------------------------------------------------------------------------------------


 ion  position               nearest neighbor table
   1  0.104  0.765  0.264-  38 1.48
   2  0.929  0.431  0.781-   6 1.51
   3  0.346  0.682  0.644-  14 2.32  12 2.34  53 2.47  55 2.53
   4  0.291  0.495  0.335-  44 2.29  37 2.35  33 2.42  20 2.43  56 3.05
   5  0.600  0.352  0.033-  47 2.27  41 2.41  21 2.48
   6  0.018  0.400  0.857-   2 1.51   7 2.32  26 2.40  27 2.46
   7  0.147  0.397  0.695-  50 2.29  65 2.30   6 2.32  20 2.37
   8  0.591  0.782  0.323-  22 2.38  67 2.38  39 2.39  11 2.57
   9  0.892  0.151  0.673-  62 2.30  40 2.36  66 2.41  61 2.41
  10  0.033  0.943  0.619-  24 2.22  61 2.32  29 2.37  13 2.46
  11  0.612  0.874  0.063-  60 2.28  63 2.44  69 2.49   8 2.57
  12  0.454  0.577  0.741-  57 2.32   3 2.34  19 2.42  45 2.48
  13  0.128  0.803  0.618-  38 2.25  32 2.37  14 2.40  10 2.46
  14  0.191  0.656  0.689-   3 2.32  13 2.40  28 2.53  20 2.64
  15  0.401  0.217  0.164-  58 2.30  21 2.34  49 2.43  68 2.58
  16  0.368  0.975  0.407-  58 2.36  34 2.47  48 2.48  22 2.51  43 2.58
  17  0.197  0.126  0.966-  30 2.26  25 2.28  49 2.45  40 2.79
  18  0.636  0.088  0.924-  60 2.25  31 2.26  47 2.40  69 2.47
  19  0.539  0.546  0.499-  46 2.30  33 2.39  12 2.42  67 2.52
  20  0.156  0.515  0.501-  56 2.32   7 2.37   4 2.43  14 2.64
  21  0.497  0.332  0.264-  33 2.34  15 2.34  42 2.38   5 2.48
  22  0.439  0.836  0.280-   8 2.38  63 2.40  53 2.41  16 2.51
  23  0.747  0.239  0.287-  66 2.32  42 2.33  47 2.49
  24  0.023  0.003  0.861-  10 2.22  40 2.40  25 2.54  59 2.55  61 3.09
  25  0.176  0.971  0.000-  43 2.27  17 2.28  32 2.42  24 2.54
  26  0.078  0.497  0.065-  56 2.33  28 2.34   6 2.40  37 2.83  50 3.05
  27  0.990  0.250  0.983-  40 2.30  62 2.33   6 2.46  36 2.48
  28  0.203  0.579  0.958-  26 2.34  50 2.36  44 2.50  14 2.53
  29  0.139  0.026  0.461-  48 2.34  10 2.37  54 2.37  43 2.38
  30  0.289  0.172  0.765-  17 2.26  65 2.36  68 2.37  48 2.39
  31  0.523  0.083  0.739-  18 2.26  34 2.29  52 2.30  68 2.40
  32  0.234  0.889  0.772-  55 2.27  13 2.37  25 2.42  48 2.44
  33  0.428  0.428  0.452-  21 2.34  19 2.39   4 2.42  57 2.50  46 2.93
  34  0.480  0.947  0.622-  31 2.29  55 2.45  16 2.47  39 2.60
  35  0.846  0.041  0.324-  66 2.36  61 2.37  51 2.41  59 2.57
  36  0.014  0.266  0.273-  54 2.32  66 2.38  27 2.48  56 2.55
  37  0.233  0.390  0.149-  50 2.23   4 2.35  49 2.36  56 2.42  26 2.83
  38  0.179  0.800  0.365-   1 1.48  13 2.25  43 2.34  53 2.41
  39  0.639  0.893  0.515-  64 2.27   8 2.39  51 2.54  34 2.60
  40  0.043  0.159  0.778-  27 2.30   9 2.36  65 2.39  24 2.40  17 2.79
  41  0.515  0.335  0.789-  68 2.30  57 2.40   5 2.41  46 2.46
  42  0.616  0.277  0.433-  52 2.29  23 2.33  21 2.38  46 2.43
  43  0.217  0.943  0.256-  25 2.27  38 2.34  29 2.38  16 2.58
  44  0.324  0.612  0.161-   4 2.29  53 2.35  45 2.48  28 2.50
  45  0.468  0.643  0.012-  63 2.39  67 2.43  44 2.48  12 2.48
  46  0.612  0.416  0.593-  19 2.30  42 2.43  41 2.46  33 2.93
  47  0.699  0.233  0.003-   5 2.27  62 2.30  18 2.40  23 2.49
  48  0.268  0.030  0.627-  29 2.34  30 2.39  32 2.44  16 2.48
  49  0.234  0.229  0.187-  54 2.31  37 2.36  15 2.43  17 2.45
  50  0.250  0.428  0.894-  37 2.23   7 2.29  57 2.36  28 2.36  26 3.05
  51  0.681  0.033  0.349-  52 2.37  60 2.39  35 2.41  39 2.54
  52  0.580  0.128  0.496-  42 2.29  31 2.30  51 2.37  58 2.44
  53  0.326  0.724  0.362-  44 2.35  22 2.41  38 2.41   3 2.47
  54  0.134  0.183  0.385-  49 2.31  36 2.32  65 2.36  29 2.37
  55  0.381  0.838  0.764-  32 2.27  63 2.36  34 2.45   3 2.53
  56  0.096  0.419  0.305-  20 2.32  26 2.33  37 2.42  36 2.55   4 3.05
  57  0.385  0.433  0.739-  12 2.32  50 2.36  41 2.40  33 2.50
  58  0.460  0.093  0.302-  15 2.30  16 2.36  60 2.38  52 2.44
  59  0.879  0.035  0.023-  62 2.46  69 2.49  24 2.55  35 2.57
  60  0.572  0.019  0.138-  18 2.25  11 2.28  58 2.38  51 2.39
  61  0.883  0.993  0.586-  10 2.32  35 2.37  64 2.40   9 2.41  24 3.09
  62  0.845  0.191  0.924-   9 2.30  47 2.30  27 2.33  59 2.46
  63  0.462  0.807  0.002-  55 2.36  45 2.39  22 2.40  11 2.44
  64  0.764  0.890  0.675-  39 2.27  69 2.30  61 2.40
  65  0.161  0.242  0.643-   7 2.30  30 2.36  54 2.36  40 2.39
  66  0.886  0.192  0.396-  23 2.32  35 2.36  36 2.38   9 2.41
  67  0.570  0.627  0.239-   8 2.38  45 2.43  19 2.52
  68  0.438  0.205  0.865-  41 2.30  30 2.37  31 2.40  15 2.58
  69  0.740  0.954  0.922-  64 2.30  18 2.47  59 2.49  11 2.49

  LATTYP: Found a simple tetragonal cell.
 ALAT       =    14.5284224467
 C/A-ratio  =     0.5791571760
  
  Lattice vectors:
  
 A1 = (  14.5284224467,   0.0000000000,   0.0000000000)
 A2 = (   0.0000000000,  14.5284224467,   0.0000000000)
 A3 = (   0.0000000000,   0.0000000000,   8.4142401155)


Analysis of symmetry for initial positions (statically):
=====================================================================
 Subroutine PRICEL returns:
 Original cell was already a primitive cell.
 

 Routine SETGRP: Setting up the symmetry group for a 
 simple tetragonal supercell.


 Subroutine GETGRP returns: Found  1 space group operations
 (whereof  1 operations were pure point group operations)
 out of a pool of 16 trial point group operations.


The static configuration has the point symmetry C_1 .


Analysis of symmetry for dynamics (positions and initial velocities):
=====================================================================
 Subroutine PRICEL returns:
 Original cell was already a primitive cell.
 

 Routine SETGRP: Setting up the symmetry group for a 
 simple tetragonal supercell.


 Subroutine GETGRP returns: Found  1 space group operations
 (whereof  1 operations were pure point group operations)
 out of a pool of 16 trial point group operations.


The dynamic configuration has the point symmetry C_1 .


 Subroutine INISYM returns: Found  1 space group operations
 (whereof  1 operations are pure point group operations),
 and found     1 'primitive' translations


----------------------------------------------------------------------------------------

                                     Primitive cell                                     

  volume of cell :    1776.0362

  direct lattice vectors                    reciprocal lattice vectors
    14.528422447  0.000000000  0.000000000     0.068830598  0.000000000  0.000000000
     0.000000000 14.528422447  0.000000000     0.000000000  0.068830598  0.000000000
     0.000000000  0.000000000  8.414240115     0.000000000  0.000000000  0.118846145

  length of vectors
    14.528422447 14.528422447  8.414240115     0.068830598  0.068830598  0.118846145

  position of ions in fractional coordinates (direct lattice)
     0.103944527  0.764687291  0.263529442
     0.928999693  0.430555349  0.781071126
     0.346109154  0.682392740  0.644116394
     0.291065325  0.495150800  0.334859709
     0.600437524  0.352479426  0.032892572
     0.018071955  0.400281587  0.857293101
     0.146765418  0.397155990  0.694946890
     0.590875577  0.781702215  0.322575772
     0.892292336  0.151055630  0.673376315
     0.033135325  0.943288926  0.618969738
     0.611722300  0.873584179  0.063489037
     0.454136712  0.576775629  0.740977190
     0.127856965  0.802571652  0.617877542
     0.191108154  0.656014102  0.689151952
     0.400524559  0.216533489  0.163705811
     0.367835532  0.975109311  0.407422412
     0.197174883  0.125555958  0.966084862
     0.635682231  0.087763830  0.924318761
     0.539186552  0.546350440  0.498735470
     0.155962563  0.514998103  0.501022070
     0.496753177  0.331841948  0.264225880
     0.438658775  0.835961375  0.279863656
     0.747163021  0.239067938  0.286940944
     0.023432069  0.002524225  0.860966635
     0.175728646  0.971454406  0.000229538
     0.078098638  0.496898409  0.064904613
     0.990417236  0.249967952  0.982927738
     0.202514761  0.579075948  0.958362239
     0.139235351  0.026165470  0.460856827
     0.289164912  0.172106780  0.765288358
     0.523232307  0.083015207  0.738946110
     0.233676438  0.888878338  0.772112503
     0.428087772  0.428457393  0.451917220
     0.480178080  0.946895649  0.622390130
     0.845989993  0.040590987  0.323753537
     0.014090380  0.265710198  0.272986029
     0.233276532  0.389535066  0.148814389
     0.179101345  0.799976738  0.365138142
     0.638733492  0.892705319  0.515169515
     0.042604006  0.159243718  0.778186730
     0.515435866  0.335397048  0.788753341
     0.616200419  0.277418971  0.432762787
     0.216538307  0.942999837  0.256196635
     0.324449541  0.611767729  0.160760803
     0.468250426  0.643373362  0.011609545
     0.611697521  0.416334259  0.593044640
     0.699373937  0.233169156  0.002895437
     0.268446214  0.030153377  0.627426830
     0.234180966  0.228755738  0.186570621
     0.249998237  0.428233005  0.893955948
     0.681076699  0.032560177  0.348756389
     0.580261899  0.128298857  0.495829682
     0.326396759  0.723705553  0.361963761
     0.134442677  0.183300700  0.385180356
     0.380944319  0.837909281  0.764149812
     0.096408265  0.419385520  0.305050719
     0.385001883  0.432731773  0.738905702
     0.460394102  0.093292304  0.301737289
     0.878553748  0.035034705  0.023440025
     0.571562400  0.019356197  0.137539455
     0.882683584  0.993404484  0.585708267
     0.845239739  0.191174920  0.924437607
     0.461632364  0.807341612  0.001874190
     0.764384436  0.890151704  0.675163761
     0.160844717  0.242123328  0.642888713
     0.886145763  0.192426949  0.396174812
     0.569663364  0.626744578  0.239174301
     0.437880301  0.204574173  0.864930154
     0.739605421  0.953530918  0.922200923

  ion indices of the primitive-cell ions
   primitive index   ion index
                 1           1
                 2           2
                 3           3
                 4           4
                 5           5
                 6           6
                 7           7
                 8           8
                 9           9
                10          10
                11          11
                12          12
                13          13
                14          14
                15          15
                16          16
                17          17
                18          18
                19          19
                20          20
                21          21
                22          22
                23          23
                24          24
                25          25
                26          26
                27          27
                28          28
                29          29
                30          30
                31          31
                32          32
                33          33
                34          34
                35          35
                36          36
                37          37
                38          38
                39          39
                40          40
                41          41
                42          42
                43          43
                44          44
                45          45
                46          46
                47          47
                48          48
                49          49
                50          50
                51          51
                52          52
                53          53
                54          54
                55          55
                56          56
                57          57
                58          58
                59          59
                60          60
                61          61
                62          62
                63          63
                64          64
                65          65
                66          66
                67          67
                68          68
                69          69

----------------------------------------------------------------------------------------


 -----------------------------------------------------------------------------
|                                                                             |
|           W    W    AA    RRRRR   N    N  II  N    N   GGGG   !!!           |
|           W    W   A  A   R    R  NN   N  II  NN   N  G    G  !!!           |
|           W    W  A    A  R    R  N N  N  II  N N  N  G       !!!           |
|           W WW W  AAAAAA  RRRRR   N  N N  II  N  N N  G  GGG   !            |
|           WW  WW  A    A  R   R   N   NN  II  N   NN  G    G                |
|           W    W  A    A  R    R  N    N  II  N    N   GGGG   !!!           |
|                                                                             |
|     The requested file  could not be found or opened for reading            |
|     k-point information. Automatic k-point generation is used as a          |
|     fallback, which may lead to unwanted results.                           |
|                                                                             |
 -----------------------------------------------------------------------------



Automatic generation of k-mesh.
 Grid dimensions derived from KSPACING:
 generate k-points for:    2    2    4

 Generating k-lattice:

  Cartesian coordinates                     Fractional coordinates (reciprocal lattice)
     0.034415299  0.000000000  0.000000000     0.500000000  0.000000000  0.000000000
     0.000000000  0.034415299  0.000000000     0.000000000  0.500000000  0.000000000
     0.000000000  0.000000000  0.029711536     0.000000000  0.000000000  0.250000000

  Length of vectors
     0.034415299  0.034415299  0.029711536

  Shift w.r.t. Gamma in fractional coordinates (k-lattice)
     0.000000000  0.000000000  0.000000000

 
 Subroutine IBZKPT returns following result:
 ===========================================
 
 Found     12 irreducible k-points:
 
 Following reciprocal coordinates:
            Coordinates               Weight
  0.000000  0.000000  0.000000      1.000000
  0.500000  0.000000  0.000000      1.000000
  0.000000  0.500000  0.000000      1.000000
  0.500000  0.500000  0.000000      1.000000
  0.000000  0.000000  0.250000      2.000000
  0.500000  0.000000  0.250000      2.000000
  0.000000  0.500000  0.250000      2.000000
  0.500000  0.500000  0.250000      2.000000
  0.000000  0.000000  0.500000      1.000000
  0.500000  0.000000  0.500000      1.000000
  0.000000  0.500000  0.500000      1.000000
  0.500000  0.500000  0.500000      1.000000
 
 Following cartesian coordinates:
            Coordinates               Weight
  0.000000  0.000000  0.000000      1.000000
  0.034415  0.000000  0.000000      1.000000
  0.000000  0.034415  0.000000      1.000000
  0.034415  0.034415  0.000000      1.000000
  0.000000  0.000000  0.029712      2.000000
  0.034415  0.000000  0.029712      2.000000
  0.000000  0.034415  0.029712      2.000000
  0.034415  0.034415  0.029712      2.000000
  0.000000  0.000000  0.059423      1.000000
  0.034415  0.000000  0.059423      1.000000
  0.000000  0.034415  0.059423      1.000000
  0.034415  0.034415  0.059423      1.000000
 


--------------------------------------------------------------------------------------------------------




 Dimension of arrays:
   k-points           NKPTS =     12   k-points in BZ     NKDIM =     12   number of bands    NBANDS=    176
   number of dos      NEDOS =   2000   number of ions     NIONS =     69
   non local maximal  LDIM  =      4   non local SUM 2l+1 LMDIM =      8
   total plane-waves  NPLWV = ******
   max r-space proj   IRMAX =      1   max aug-charges    IRDMAX= 408216
   dimension x,y,z NGX =   168 NGY =  168 NGZ =   96
   dimension x,y,z NGXF=   336 NGYF=  336 NGZF=  192
   support grid    NGXF=   672 NGYF=  672 NGZF=  384
   ions per type =               2  67
   NGX,Y,Z   is equivalent  to a cutoff of  19.22, 19.22, 18.97 a.u.
   NGXF,Y,Z  is equivalent  to a cutoff of  38.45, 38.45, 37.93 a.u.

 SYSTEM =  a-Si SPC                                
 POSCAR =   H Si                                   

 Startparameter for this run:
   NWRITE =      2    write-flag & timer
   PREC   = accura    normal or accurate (medium, high low for compatibility)
   ISTART =      1    job   : 0-new  1-cont  2-samecut
   ICHARG =      1    charge: 1-file 2-atom 10-const
   ISPIN  =      1    spin polarized calculation?
   LNONCOLLINEAR =      F non collinear calculations
   LSORBIT =      F    spin-orbit coupling
   INIWAV =      1    electr: 0-lowe 1-rand  2-diag
   LASPH  =      T    aspherical Exc in radial PAW
 Electronic Relaxation 1
   ENCUT  = 1200.0 eV  88.20 Ry    9.39 a.u.  41.04 41.04 23.77*2*pi/ulx,y,z
   ENINI  = 1200.0     initial cutoff
   ENAUG  =  400.0 eV  augmentation charge cutoff
   NELM   =    150;   NELMIN=  2; NELMDL=  0     # of ELM steps 
   EDIFF  = 0.1E-05   stopping-criterion for ELM
   LREAL  =      F    real-space projection
   NLSPLINE    = F    spline interpolate recip. space projectors
   LCOMPAT=      F    compatible to vasp.4.4
   GGA_COMPAT  = T    GGA compatible to vasp.4.4-vasp.4.6
   LMAXPAW     = -100 max onsite density
   LMAXMIX     =    2 max onsite mixed and CHGCAR
   VOSKOWN=      0    Vosko Wilk Nusair interpolation
   ROPT   =    0.00000   0.00000
 Ionic relaxation
   EDIFFG = -.1E-01   stopping-criterion for IOM
   NSW    =      0    number of steps for IOM
   NBLOCK =      1;   KBLOCK =      1    inner block; outer block 
   IBRION =     -1    ionic relax: 0-MD 1-quasi-New 2-CG
   NFREE  =      0    steps in history (QN), initial steepest desc. (CG)
   ISIF   =      2    stress and relaxation
   IWAVPR =     10    prediction:  0-non 1-charg 2-wave 3-comb
   ISYM   =      1    0-nonsym 1-usesym 2-fastsym
   LCORR  =      T    Harris-Foulkes like correction to forces

   POTIM  = 0.5000    time-step for ionic-motion
   TEIN   =    0.0    initial temperature
   TEBEG  =    0.0;   TEEND  =   0.0 temperature during run
   SMASS  =  -3.00    Nose mass-parameter (am)
   estimated Nose-frequenzy (Omega)   =  0.10E-29 period in steps = 0.13E+47 mass=  -0.482E-26a.u.
   SCALEE = 1.0000    scale energy and forces
   NPACO  =    256;   APACO  = 10.0  distance and # of slots for P.C.
   PSTRESS=    0.0 pullay stress

  Mass of Ions in am
   POMASS =   1.00 28.09
  Ionic Valenz
   ZVAL   =   1.00  4.00
  Atomic Wigner-Seitz radii
   RWIGS  =  -1.00 -1.00
  virtual crystal weights 
   VCA    =   1.00  1.00
   NELECT =     270.0000    total number of electrons
   NUPDOWN=      -1.0000    fix difference up-down

 DOS related values:
   EMIN   =  10.00;   EMAX   =-10.00  energy-range for DOS
   EFERMI =   0.00;   METHOD = LEGACY      
   ISMEAR =     0;   SIGMA  =   0.10  broadening in eV -4-tet -1-fermi 0-gaus
   EFERMI_NEDOS =   21; number of points for ismear=-14 and -15

 Electronic relaxation 2 (details)
   IALGO  =     38    algorithm
   LDIAG  =      F    sub-space diagonalisation (order eigenvalues)
   LSUBROT=      F    optimize rotation matrix (better conditioning)
   TURBO    =      0    0=normal 1=particle mesh
   IRESTART =      0    0=no restart 2=restart with 2 vectors
   NREBOOT  =      0    no. of reboots
   NMIN     =      0    reboot dimension
   EREF     =   0.00    reference energy to select bands
   IMIX   =      4    mixing-type and parameters
     AMIX     =   0.40;   BMIX     =  1.00
     AMIX_MAG =   1.60;   BMIX_MAG =  1.00
     AMIN     =   0.10
     WC   =   100.;   INIMIX=   1;  MIXPRE=   1;  MAXMIX= -45

 Intra band minimization:
   WEIMIN = 0.0000     energy-eigenvalue tresh-hold
   EBREAK =  0.14E-08  absolut break condition
   DEPER  =   0.30     relativ break condition  

   TIME   =   0.40     timestep for ELM

  volume/ion in A,a.u.               =      25.74       173.70
  Fermi-wavevector in a.u.,A,eV,Ry     =   0.873733  1.651116 10.386818  0.763410
  Thomas-Fermi vector in A             =   1.993165

 Write flags
   LWAVE        =      F    write WAVECAR
   LDOWNSAMPLE  =      F    k-point downsampling of WAVECAR
   LCHARG       =      F    write CHGCAR
   LVTOT        =      F    write LOCPOT, total local potential
   LVHAR        =      F    write LOCPOT, Hartree potential only
   WRT_POTENTIAL= false  ! write potential to hdf5 file
   LELF         =      F    write electronic localiz. function (ELF)
   LORBIT       =     11    0 simple, 1 ext, 2 COOP (PROOUT), +10 PAW based schemes


 Python interface
   PLUGINS active      =      F    recompile with -DPLUGINS to activate

 Dipole corrections
   LMONO      =      F    monopole corrections only (constant potential shift)
   LDIPOL     =      F    correct potential (dipole corrections)
   IDIPOL     =      0    1-x, 2-y, 3-z, 4-all directions 
   EPSILON    =  1.0000000 bulk dielectric constant
   LVACPOTAV  =      F  vacuum potentials using an averaging scheme for the charge density
   VACPOTFLAT =  0.1000000 required flatness to determine vacuum potential

Coulomb truncation method
  LTRUNCATE          =      F  Coulomb kernel truncation to be used
  IDIMENSIONALITY    =      3  Dimensionality of cutoff (0 molecules / 2 surfaces)
  ISURFACE           =     -1  Direction of surface normal
  LCOARSEN           =      F  Coarsen the charge grid before padding, preferred


 Exchange correlation treatment:
   METAGGA = SCAN    functional components
   XC_C    = 1    coefficients multiplying the functional components
   LIBXC   =     F    Libxc                    
   VOSKOWN =     0    Vosko Wilk Nusair interpolation
   LHFCALC =     F    Hartree Fock is set to
   LHFONE  =     F    Hartree Fock one center treatment
   AEXX    =    0.0000 exact exchange contribution

 Parameters of functionals:
   SCAN:
     P1 =  0.000000E+00
     P2 =  0.000000E+00
     P3 =  0.000000E+00

 Accuracy and mixing parameters for tau-dependent meta-GGA functionals:
   LMAXTAU = 6
   LMIXTAU = T

 Van der Waals corrections
   IVDW    =     0    specifies the selected vdW correction

 Linear response parameters
   LEPSILON=     F    determine dielectric tensor
   LRPA    =     F    only Hartree local field effects (RPA)
   LNABLA  =     F    use nabla operator in PAW spheres
   LVEL    =     F    velocity operator in full k-point grid
   CSHIFT  =0.1000    complex shift for real part using Kramers Kronig
   OMEGAMAX=  -1.0    maximum frequency
   DEG_THRESHOLD= 0.2000000E-02 threshold for treating states as degnerate
   RTIME   =   -0.100 relaxation time in fs
  (WPLASMAI=    0.000 imaginary part of plasma frequency in eV, 0.658/RTIME)
   DFIELD  = 0.0000000 0.0000000 0.0000000 field for delta impulse in time

  Optional k-point grid parameters
   LKPOINTS_OPT  =     F    use optional k-point grid
   KPOINTS_OPT_MODE=     1    mode for optional k-point grid

 Orbital magnetization related:
   ORBITALMAG=     F  switch on orbital magnetization
   LCHIMAG   =     F  perturbation theory with respect to B field
   DQ        =  0.001000  dq finite difference perturbation B field
   LLRAUG    =     F  two centre corrections for induced B field
   LBONE     =     F  B-component reconstruction in AE one-centre
   LVGVCALC  =     T  calculate vGv susceptibility
   LVGVAPPL  =     F  apply vGv susceptibility instead of pGv for G=0

 Random number generation:
   RANDOM_GENERATOR = DEFAULT
   PCG_SEED         = not used


--------------------------------------------------------------------------------------------------------


 Static calculation
 charge density and potential will be updated during run
 non-spin polarized calculation
 Variant of blocked Davidson
 perform Loewdin sub-space diagonalisation
    ordering is kept fixed
    before iterative eigenvector-optimisation
 modified Broyden-mixing scheme, WC =      100.0
 initial mixing is a Kerker type mixing with AMIX =  0.4000 and BMIX =      1.0000
 Hartree-type preconditioning will be used
 using additional bands           41
 reciprocal scheme for non local part
 use partial core corrections
 calculate Harris-corrections to forces   (improved forces if not selfconsistent)
 use gradient corrections 
 use of overlap-Matrix (Vanderbilt PP)
 Gauss-broadening in eV      SIGMA  =   0.10


--------------------------------------------------------------------------------------------------------


  energy-cutoff  :     1200.00
  volume of cell :     1776.04
      direct lattice vectors                 reciprocal lattice vectors
    14.528422447  0.000000000  0.000000000     0.068830598  0.000000000  0.000000000
     0.000000000 14.528422447  0.000000000     0.000000000  0.068830598  0.000000000
     0.000000000  0.000000000  8.414240115     0.000000000  0.000000000  0.118846145

  length of vectors
    14.528422447 14.528422447  8.414240115     0.068830598  0.068830598  0.118846145



 old parameters found on file WAVECAR:
  energy-cutoff  :     1200.00
  volume of cell :     1776.04
      direct lattice vectors                 reciprocal lattice vectors
    14.528422447  0.000000000  0.000000000     0.068830598  0.000000000  0.000000000
     0.000000000 14.528422447  0.000000000     0.000000000  0.068830598  0.000000000
     0.000000000  0.000000000  8.414240115     0.000000000  0.000000000  0.118846145

  length of vectors


 k-points in units of 2pi/SCALE and weight: read from INCAR                         
   0.00000000  0.00000000  0.00000000       0.062
   0.03441530  0.00000000  0.00000000       0.062
   0.00000000  0.03441530  0.00000000       0.062
   0.03441530  0.03441530  0.00000000       0.062
   0.00000000  0.00000000  0.02971154       0.125
   0.03441530  0.00000000  0.02971154       0.125
   0.00000000  0.03441530  0.02971154       0.125
   0.03441530  0.03441530  0.02971154       0.125
   0.00000000  0.00000000  0.05942307       0.062
   0.03441530  0.00000000  0.05942307       0.062
   0.00000000  0.03441530  0.05942307       0.062
   0.03441530  0.03441530  0.05942307       0.062

 k-points in reciprocal lattice and weights: read from INCAR                         
   0.00000000  0.00000000  0.00000000       0.062
   0.50000000  0.00000000  0.00000000       0.062
   0.00000000  0.50000000  0.00000000       0.062
   0.50000000  0.50000000  0.00000000       0.062
   0.00000000  0.00000000  0.25000000       0.125
   0.50000000  0.00000000  0.25000000       0.125
   0.00000000  0.50000000  0.25000000       0.125
   0.50000000  0.50000000  0.25000000       0.125
   0.00000000  0.00000000  0.50000000       0.062
   0.50000000  0.00000000  0.50000000       0.062
   0.00000000  0.50000000  0.50000000       0.062
   0.50000000  0.50000000  0.50000000       0.062

 position of ions in fractional coordinates (direct lattice) 
   0.10394453  0.76468729  0.26352944
   0.92899969  0.43055535  0.78107113
   0.34610915  0.68239274  0.64411639
   0.29106532  0.49515080  0.33485971
   0.60043752  0.35247943  0.03289257
   0.01807196  0.40028159  0.85729310
   0.14676542  0.39715599  0.69494689
   0.59087558  0.78170221  0.32257577
   0.89229234  0.15105563  0.67337631
   0.03313533  0.94328893  0.61896974
   0.61172230  0.87358418  0.06348904
   0.45413671  0.57677563  0.74097719
   0.12785696  0.80257165  0.61787754
   0.19110815  0.65601410  0.68915195
   0.40052456  0.21653349  0.16370581
   0.36783553  0.97510931  0.40742241
   0.19717488  0.12555596  0.96608486
   0.63568223  0.08776383  0.92431876
   0.53918655  0.54635044  0.49873547
   0.15596256  0.51499810  0.50102207
   0.49675318  0.33184195  0.26422588
   0.43865878  0.83596137  0.27986366
   0.74716302  0.23906794  0.28694094
   0.02343207  0.00252422  0.86096664
   0.17572865  0.97145441  0.00022954
   0.07809864  0.49689841  0.06490461
   0.99041724  0.24996795  0.98292774
   0.20251476  0.57907595  0.95836224
   0.13923535  0.02616547  0.46085683
   0.28916491  0.17210678  0.76528836
   0.52323231  0.08301521  0.73894611
   0.23367644  0.88887834  0.77211250
   0.42808777  0.42845739  0.45191722
   0.48017808  0.94689565  0.62239013
   0.84598999  0.04059099  0.32375354
   0.01409038  0.26571020  0.27298603
   0.23327653  0.38953507  0.14881439
   0.17910134  0.79997674  0.36513814
   0.63873349  0.89270532  0.51516952
   0.04260401  0.15924372  0.77818673
   0.51543587  0.33539705  0.78875334
   0.61620042  0.27741897  0.43276279
   0.21653831  0.94299984  0.25619663
   0.32444954  0.61176773  0.16076080
   0.46825043  0.64337336  0.01160955
   0.61169752  0.41633426  0.59304464
   0.69937394  0.23316916  0.00289544
   0.26844621  0.03015338  0.62742683
   0.23418097  0.22875574  0.18657062
   0.24999824  0.42823300  0.89395595
   0.68107670  0.03256018  0.34875639
   0.58026190  0.12829886  0.49582968
   0.32639676  0.72370555  0.36196376
   0.13444268  0.18330070  0.38518036
   0.38094432  0.83790928  0.76414981
   0.09640826  0.41938552  0.30505072
   0.38500188  0.43273177  0.73890570
   0.46039410  0.09329230  0.30173729
   0.87855375  0.03503471  0.02344003
   0.57156240  0.01935620  0.13753946
   0.88268358  0.99340448  0.58570827
   0.84523974  0.19117492  0.92443761
   0.46163236  0.80734161  0.00187419
   0.76438444  0.89015170  0.67516376
   0.16084472  0.24212333  0.64288871
   0.88614576  0.19242695  0.39617481
   0.56966336  0.62674458  0.23917430
   0.43788030  0.20457417  0.86493015
   0.73960542  0.95353092  0.92220092

 position of ions in cartesian coordinates  (Angst):
   1.51015000 11.10970000  2.21740000
  13.49690000  6.25529000  6.57212000
   5.02842000  9.91409000  5.41975000
   4.22872000  7.19376000  2.81759000
   8.72341000  5.12097000  0.27676600
   0.26255700  5.81546000  7.21347000
   2.13227000  5.77005000  5.84745000
   8.58449000 11.35690000  2.71423000
  12.96360000  2.19460000  5.66595000
   0.48140400 13.70450000  5.20816000
   8.88736000 12.69180000  0.53421200
   6.59789000  8.37964000  6.23476000
   1.85756000 11.66010000  5.19897000
   2.77650000  9.53085000  5.79869000
   5.81899000  3.14589000  1.37746000
   5.34407000 14.16680000  3.42815000
   2.86464000  1.82413000  8.12887000
   9.23546000  1.27507000  7.77744000
   7.83353000  7.93761000  4.19648000
   2.26589000  7.48211000  4.21572000
   7.21704000  4.82114000  2.22326000
   6.37302000 12.14520000  2.35484000
  10.85510000  3.47328000  2.41439000
   0.34043100  0.03667300  7.24438000
   2.55306000 14.11370000  0.00193139
   1.13465000  7.21915000  0.54612300
  14.38920000  3.63164000  8.27059000
   2.94222000  8.41306000  8.06389000
   2.02287000  0.38014300  3.87776000
   4.20111000  2.50044000  6.43932000
   7.60174000  1.20608000  6.21767000
   3.39495000 12.91400000  6.49674000
   6.21944000  6.22481000  3.80254000
   6.97623000 13.75690000  5.23694000
  12.29090000  0.58972300  2.72414000
   0.20471100  3.86035000  2.29697000
   3.38914000  5.65933000  1.25216000
   2.60206000 11.62240000  3.07236000
   9.27979000 12.96960000  4.33476000
   0.61896900  2.31356000  6.54785000
   7.48847000  4.87279000  6.63676000
   8.95242000  4.03046000  3.64137000
   3.14596000 13.70030000  2.15570000
   4.71374000  8.88802000  1.35268000
   6.80294000  9.34720000  0.09768550
   8.88700000  6.04868000  4.99002000
  10.16080000  3.38758000  0.02436290
   3.90010000  0.43808100  5.27932000
   3.40228000  3.32346000  1.56985000
   3.63208000  6.22155000  7.52196000
   9.89497000  0.47304800  2.93452000
   8.43029000  1.86398000  4.17203000
   4.74203000 10.51430000  3.04565000
   1.95324000  2.66307000  3.24100000
   5.53452000 12.17350000  6.42974000
   1.40066000  6.09301000  2.56677000
   5.59347000  6.28691000  6.21733000
   6.68880000  1.35539000  2.53889000
  12.76400000  0.50899900  0.19723000
   8.30390000  0.28121500  1.15729000
  12.82400000 14.43260000  4.92829000
  12.28000000  2.77747000  7.77844000
   6.70679000 11.72940000  0.01576988
  11.10530000 12.93250000  5.68099000
   2.33682000  3.51767000  5.40942000
  12.87430000  2.79566000  3.33351000
   8.27631000  9.10561000  2.01247000
   6.36171000  2.97214000  7.27773000
  10.74530000 13.85330000  7.75962000



--------------------------------------------------------------------------------------------------------


 k-point     1 :   0.0000 0.0000 0.0000  plane waves:  167615
 k-point     2 :   0.5000 0.0000 0.0000  plane waves:  167750
 k-point     3 :   0.0000 0.5000 0.0000  plane waves:  167750
 k-point     4 :   0.5000 0.5000 0.0000  plane waves:  167604
 k-point     5 :   0.0000 0.0000 0.2500  plane waves:  167580
 k-point     6 :   0.5000 0.0000 0.2500  plane waves:  167594
 k-point     7 :   0.0000 0.5000 0.2500  plane waves:  167594
 k-point     8 :   0.5000 0.5000 0.2500  plane waves:  167660
 k-point     9 :   0.0000 0.0000 0.5000  plane waves:  167552
 k-point    10 :   0.5000 0.0000 0.5000  plane waves:  167672
 k-point    11 :   0.0000 0.5000 0.5000  plane waves:  167672
 k-point    12 :   0.5000 0.5000 0.5000  plane waves:  167672

 maximum and minimum number of plane-waves per node :     10611    10380

 maximum number of plane-waves:    167750
 maximum index in each direction: 
   IXMAX=   41   IYMAX=   41   IZMAX=   23
   IXMIN=  -41   IYMIN=  -41   IZMIN=  -24


 parallel 3D FFT for wavefunctions:
    minimum data exchange during FFTs selected (reduces bandwidth)
 parallel 3D FFT for charge:
    minimum data exchange during FFTs selected (reduces bandwidth)


 total amount of memory used by VASP MPI-rank0   160426. kBytes
=======================================================================

   base                                    :      30000. kBytes
   nonl-proj                               :      27751. kBytes
   fftplans                                :      32804. kBytes
   grid                                    :      25285. kBytes
   one-center                              :         15. kBytes
   wavefun                                 :      44571. kBytes

     INWAV:  cpu time      7.9886: real time      7.9915
 Broyden mixing: mesh for mixing (old mesh)
   NGX = 83   NGY = 83   NGZ = 47
  (NGX  =336   NGY  =336   NGZ  =192)
  gives a total of 323783 points

 initial charge density was supplied:
 number of electron     269.9999999 magnetization 
 keeping initial charge density in first step


--------------------------------------------------------------------------------------------------------


 Maximum index for augmentation-charges        10819 (set IRDMAX)


--------------------------------------------------------------------------------------------------------


 First call to EWALD:  gamma=   0.146
 Maximum number of real-space cells   2x   2x   4
 Maximum number of reciprocal cells   3x   3x   2

    FEWALD:  cpu time      0.0108: real time      0.0109


--------------------------------------- Ionic step        1  -------------------------------------------




--------------------------------------- Iteration      1(   1)  ---------------------------------------


    POTLOK:  cpu time      0.5793: real time      0.5799
    SETDIJ:  cpu time      0.9814: real time      0.9818
    EDDIAG:  cpu time     16.0859: real time     16.0978
     EDDAV:  cpu time     74.1606: real time     74.2227
       DOS:  cpu time      0.0122: real time      0.0125
    CHARGE:  cpu time      6.2270: real time      6.2319
    MIXING:  cpu time      0.0203: real time      0.0205
    --------------------------------------------
      LOOP:  cpu time     98.0666: real time     98.1470

 eigenvalue-minimisations  :  4240
 total energy-change (2. order) :-0.6923972E+03  (-0.7635216E+00)
 number of electron     269.9999999 magnetization 
 augmentation part      -15.0667219 magnetization 

 Broyden mixing:
  rms(total) = 0.10149E+01    rms(broyden)= 0.49371E+02
  rms(prec ) = 0.11325E+01
  weight for this iteration     100.00
  WARNING: grid for Broyden might be to small

 Free energy of the ion-electron system (eV)
  ---------------------------------------------------
  alpha Z        PSCENC =        86.46053338
  Ewald energy   TEWEN  =     -3348.31284441
  -Hartree energ DENC   =     -4150.44265951
  -exchange      EXHF   =         0.00000000
  -V(xc)+E(xc)   XCENC  =      -322.63258295
  PAW double counting   =     24713.69544386   -24045.49388967
  entropy T*S    EENTRO =        -0.08702883
  eigenvalues    EBANDS =      -556.03885258
  atomic energy  EATOM  =      6930.45472119
  Solvation  Ediel_sol  =         0.00000000
  ---------------------------------------------------
  free energy    TOTEN  =      -692.39715952 eV

  energy without entropy =     -692.31013068  energy(sigma->0) =     -692.35364510


--------------------------------------------------------------------------------------------------------




--------------------------------------- Iteration      1(   2)  ---------------------------------------


    POTLOK:  cpu time      0.5690: real time      0.5836
    SETDIJ:  cpu time      1.0283: real time      1.0290
    EDDIAG:  cpu time     16.3063: real time     16.3201
     EDDAV:  cpu time     74.1734: real time     74.2392
       DOS:  cpu time      0.0040: real time      0.0040
    CHARGE:  cpu time      6.3587: real time      6.3645
    MIXING:  cpu time      0.0138: real time      0.0140
    --------------------------------------------
      LOOP:  cpu time     98.4536: real time     98.5543

 eigenvalue-minimisations  :  4224
 total energy-change (2. order) : 0.4810457E+02  (-0.7157415E+00)
 number of electron     269.9999999 magnetization 
 augmentation part      -15.0025848 magnetization 

 Broyden mixing:
  rms(total) = 0.68072E+00    rms(broyden)= 0.28470E+02
  rms(prec ) = 0.74111E+00
  weight for this iteration     100.00
  WARNING: grid for Broyden might be to small

 eigenvalues of (default mixing * dielectric matrix)
  average eigenvalue GAMMA=   0.6343
  0.6343

 Free energy of the ion-electron system (eV)
  ---------------------------------------------------
  alpha Z        PSCENC =        86.46053338
  Ewald energy   TEWEN  =     -3348.31284441
  -Hartree energ DENC   =     -4143.19730032
  -exchange      EXHF   =         0.00000000
  -V(xc)+E(xc)   XCENC  =      -315.23146089
  PAW double counting   =     29606.98729566   -28938.61808785
  entropy T*S    EENTRO =        -0.08389601
  eigenvalues    EBANDS =      -522.75155088
  atomic energy  EATOM  =      6930.45472119
  Solvation  Ediel_sol  =         0.00000000
  ---------------------------------------------------
  free energy    TOTEN  =      -644.29259012 eV

  energy without entropy =     -644.20869411  energy(sigma->0) =     -644.25064212


--------------------------------------------------------------------------------------------------------




--------------------------------------- Iteration      1(   3)  ---------------------------------------


    POTLOK:  cpu time      0.5679: real time      0.5862
    SETDIJ:  cpu time      0.9717: real time      0.9728
    EDDIAG:  cpu time     16.3706: real time     16.3851
     EDDAV:  cpu time     74.2245: real time     74.2893
       DOS:  cpu time      0.0039: real time      0.0039
    CHARGE:  cpu time      6.1800: real time      6.1849
    MIXING:  cpu time      0.0111: real time      0.0111
    --------------------------------------------
      LOOP:  cpu time     98.3297: real time     98.4333

 eigenvalue-minimisations  :  4224
 total energy-change (2. order) :-0.2337834E+01  (-0.5906538E+00)
 number of electron     269.9999999 magnetization 
 augmentation part      -14.9540725 magnetization 

 Broyden mixing:
  rms(total) = 0.42879E+00    rms(broyden)= 0.16256E+02
  rms(prec ) = 0.46173E+00
  weight for this iteration     100.00
  WARNING: grid for Broyden might be to small

 eigenvalues of (default mixing * dielectric matrix)
  average eigenvalue GAMMA=   0.6731
  0.7260  0.6202

 Free energy of the ion-electron system (eV)
  ---------------------------------------------------
  alpha Z        PSCENC =        86.46053338
  Ewald energy   TEWEN  =     -3348.31284441
  -Hartree energ DENC   =     -4145.13890539
  -exchange      EXHF   =         0.00000000
  -V(xc)+E(xc)   XCENC  =      -318.80967412
  PAW double counting   =     33193.32922224   -32525.02012220
  entropy T*S    EENTRO =        -0.08546349
  eigenvalues    EBANDS =      -519.50789099
  atomic energy  EATOM  =      6930.45472119
  Solvation  Ediel_sol  =         0.00000000
  ---------------------------------------------------
  free energy    TOTEN  =      -646.63042378 eV

  energy without entropy =     -646.54496029  energy(sigma->0) =     -646.58769203


--------------------------------------------------------------------------------------------------------




--------------------------------------- Iteration      1(   4)  ---------------------------------------


    POTLOK:  cpu time      0.5666: real time      0.5872
    SETDIJ:  cpu time      0.9734: real time      0.9740
    EDDIAG:  cpu time     16.4193: real time     16.4333
     EDDAV:  cpu time     76.6738: real time     76.7424
       DOS:  cpu time      0.0038: real time      0.0038
    CHARGE:  cpu time      6.2227: real time      6.2280
    MIXING:  cpu time      0.0114: real time      0.0114
    --------------------------------------------
      LOOP:  cpu time    100.8710: real time    100.9800

 eigenvalue-minimisations  :  4480
 total energy-change (2. order) :-0.3206000E+00  (-0.6595637E-01)
 number of electron     269.9999999 magnetization 
 augmentation part      -14.9438014 magnetization 

 Broyden mixing:
  rms(total) = 0.35310E-01    rms(broyden)= 0.16519E+01
  rms(prec ) = 0.52152E-01
  weight for this iteration     100.00
  WARNING: grid for Broyden might be to small

 eigenvalues of (default mixing * dielectric matrix)
  average eigenvalue GAMMA=   0.9416
  1.5034  0.6957  0.6256

 Free energy of the ion-electron system (eV)
  ---------------------------------------------------
  alpha Z        PSCENC =        86.46053338
  Ewald energy   TEWEN  =     -3348.31284441
  -Hartree energ DENC   =     -4149.13382163
  -exchange      EXHF   =         0.00000000
  -V(xc)+E(xc)   XCENC  =      -319.24765967
  PAW double counting   =     39614.53610198   -38946.27388762
  entropy T*S    EENTRO =        -0.08528633
  eigenvalues    EBANDS =      -515.34888064
  atomic energy  EATOM  =      6930.45472119
  Solvation  Ediel_sol  =         0.00000000
  ---------------------------------------------------
  free energy    TOTEN  =      -646.95102374 eV

  energy without entropy =     -646.86573741  energy(sigma->0) =     -646.90838058


--------------------------------------------------------------------------------------------------------




--------------------------------------- Iteration      1(   5)  ---------------------------------------


    POTLOK:  cpu time      0.5638: real time      0.5830
    SETDIJ:  cpu time      0.9739: real time      0.9745
    EDDIAG:  cpu time     16.4138: real time     16.4281
     EDDAV:  cpu time     85.0034: real time     85.0829
       DOS:  cpu time      0.0037: real time      0.0037
    CHARGE:  cpu time      6.2900: real time      6.2960
    MIXING:  cpu time      0.0115: real time      0.0115
    --------------------------------------------
      LOOP:  cpu time    109.2601: real time    109.3797

 eigenvalue-minimisations  :  5328
 total energy-change (2. order) :-0.2827397E-01  (-0.4702705E-02)
 number of electron     269.9999999 magnetization 
 augmentation part      -14.9445475 magnetization 

 Broyden mixing:
  rms(total) = 0.25184E-01    rms(broyden)= 0.54372E+00
  rms(prec ) = 0.36758E-01
  weight for this iteration     100.00
  WARNING: grid for Broyden might be to small

 eigenvalues of (default mixing * dielectric matrix)
  average eigenvalue GAMMA=   1.1143
  2.3454  0.8537  0.6291  0.6291

 Free energy of the ion-electron system (eV)
  ---------------------------------------------------
  alpha Z        PSCENC =        86.46053338
  Ewald energy   TEWEN  =     -3348.31284441
  -Hartree energ DENC   =     -4149.29722606
  -exchange      EXHF   =         0.00000000
  -V(xc)+E(xc)   XCENC  =      -320.13424377
  PAW double counting   =     39315.08220751   -38646.79755627
  entropy T*S    EENTRO =        -0.08621327
  eigenvalues    EBANDS =      -514.34867602
  atomic energy  EATOM  =      6930.45472119
  Solvation  Ediel_sol  =         0.00000000
  ---------------------------------------------------
  free energy    TOTEN  =      -646.97929772 eV

  energy without entropy =     -646.89308445  energy(sigma->0) =     -646.93619108


--------------------------------------------------------------------------------------------------------




--------------------------------------- Iteration      1(   6)  ---------------------------------------


    POTLOK:  cpu time      0.5650: real time      0.5833
    SETDIJ:  cpu time      0.9738: real time      0.9744
    EDDIAG:  cpu time     16.4307: real time     16.4441
     EDDAV:  cpu time     81.3501: real time     81.4196
       DOS:  cpu time      0.0043: real time      0.0043
    CHARGE:  cpu time      6.1693: real time      6.1739
    MIXING:  cpu time      0.0115: real time      0.0115
    --------------------------------------------
      LOOP:  cpu time    105.5046: real time    105.6110

 eigenvalue-minimisations  :  4936
 total energy-change (2. order) :-0.3137656E-02  (-0.8410166E-03)
 number of electron     269.9999999 magnetization 
 augmentation part      -14.9451436 magnetization 

 Broyden mixing:
  rms(total) = 0.17770E-01    rms(broyden)= 0.15767E+00
  rms(prec ) = 0.20305E-01
  weight for this iteration     100.00
  WARNING: grid for Broyden might be to small

 eigenvalues of (default mixing * dielectric matrix)
  average eigenvalue GAMMA=   1.0886
  2.5771  0.9408  0.7057  0.6237  0.5958

 Free energy of the ion-electron system (eV)
  ---------------------------------------------------
  alpha Z        PSCENC =        86.46053338
  Ewald energy   TEWEN  =     -3348.31284441
  -Hartree energ DENC   =     -4149.25070488
  -exchange      EXHF   =         0.00000000
  -V(xc)+E(xc)   XCENC  =      -320.37095297
  PAW double counting   =     39273.62269272   -38605.32930106
  entropy T*S    EENTRO =        -0.08569646
  eigenvalues    EBANDS =      -514.17088288
  atomic energy  EATOM  =      6930.45472119
  Solvation  Ediel_sol  =         0.00000000
  ---------------------------------------------------
  free energy    TOTEN  =      -646.98243537 eV

  energy without entropy =     -646.89673891  energy(sigma->0) =     -646.93958714


--------------------------------------------------------------------------------------------------------




--------------------------------------- Iteration      1(   7)  ---------------------------------------


    POTLOK:  cpu time      0.5646: real time      0.5828
    SETDIJ:  cpu time      0.9886: real time      0.9892
    EDDIAG:  cpu time     16.3093: real time     16.3218
     EDDAV:  cpu time     78.2463: real time     78.3163
       DOS:  cpu time      0.0039: real time      0.0039
    CHARGE:  cpu time      6.0884: real time      6.0944
    MIXING:  cpu time      0.0118: real time      0.0118
    --------------------------------------------
      LOOP:  cpu time    102.2130: real time    102.3203

 eigenvalue-minimisations  :  4624
 total energy-change (2. order) :-0.1288391E-02  (-0.3505553E-03)
 number of electron     269.9999999 magnetization 
 augmentation part      -14.9442791 magnetization 

 Broyden mixing:
  rms(total) = 0.76650E-02    rms(broyden)= 0.77689E-01
  rms(prec ) = 0.91941E-02
  weight for this iteration     100.00
  WARNING: grid for Broyden might be to small

 eigenvalues of (default mixing * dielectric matrix)
  average eigenvalue GAMMA=   1.0735
  2.5675  1.1632  0.8593  0.6656  0.6330  0.5526

 Free energy of the ion-electron system (eV)
  ---------------------------------------------------
  alpha Z        PSCENC =        86.46053338
  Ewald energy   TEWEN  =     -3348.31284441
  -Hartree energ DENC   =     -4149.49988915
  -exchange      EXHF   =         0.00000000
  -V(xc)+E(xc)   XCENC  =      -320.32680642
  PAW double counting   =     39260.89075363   -38592.58585395
  entropy T*S    EENTRO =        -0.08582467
  eigenvalues    EBANDS =      -513.97851338
  atomic energy  EATOM  =      6930.45472119
  Solvation  Ediel_sol  =         0.00000000
  ---------------------------------------------------
  free energy    TOTEN  =      -646.98372377 eV

  energy without entropy =     -646.89789910  energy(sigma->0) =     -646.94081143


--------------------------------------------------------------------------------------------------------




--------------------------------------- Iteration      1(   8)  ---------------------------------------


    POTLOK:  cpu time      0.5657: real time      0.5857
    SETDIJ:  cpu time      0.9716: real time      0.9728
    EDDIAG:  cpu time     16.3869: real time     16.4013
     EDDAV:  cpu time     79.8272: real time     79.8997
       DOS:  cpu time      0.0043: real time      0.0043
    CHARGE:  cpu time      6.1070: real time      6.1128
    MIXING:  cpu time      0.0120: real time      0.0120
    --------------------------------------------
      LOOP:  cpu time    103.8746: real time    103.9886

 eigenvalue-minimisations  :  4768
 total energy-change (2. order) :-0.4959466E-03  (-0.1063123E-03)
 number of electron     269.9999999 magnetization 
 augmentation part      -14.9436731 magnetization 

 Broyden mixing:
  rms(total) = 0.20975E-02    rms(broyden)= 0.51333E-01
  rms(prec ) = 0.31613E-02
  weight for this iteration     100.00
  WARNING: grid for Broyden might be to small

 eigenvalues of (default mixing * dielectric matrix)
  average eigenvalue GAMMA=   1.1160
  2.5615  1.6638  0.9786  0.7598  0.6514  0.6250  0.5718

 Free energy of the ion-electron system (eV)
  ---------------------------------------------------
  alpha Z        PSCENC =        86.46053338
  Ewald energy   TEWEN  =     -3348.31284441
  -Hartree energ DENC   =     -4149.60704289
  -exchange      EXHF   =         0.00000000
  -V(xc)+E(xc)   XCENC  =      -320.29851077
  PAW double counting   =     39269.03422959   -38600.72184709
  entropy T*S    EENTRO =        -0.08570199
  eigenvalues    EBANDS =      -513.90775672
  atomic energy  EATOM  =      6930.45472119
  Solvation  Ediel_sol  =         0.00000000
  ---------------------------------------------------
  free energy    TOTEN  =      -646.98421971 eV

  energy without entropy =     -646.89851772  energy(sigma->0) =     -646.94136872


--------------------------------------------------------------------------------------------------------




--------------------------------------- Iteration      1(   9)  ---------------------------------------


    POTLOK:  cpu time      0.5653: real time      0.5821
    SETDIJ:  cpu time      0.9737: real time      0.9748
    EDDIAG:  cpu time     16.4288: real time     16.4429
     EDDAV:  cpu time     76.6811: real time     76.7480
       DOS:  cpu time      0.0058: real time      0.0058
    CHARGE:  cpu time      6.2243: real time      6.2289
    MIXING:  cpu time      0.0112: real time      0.0121
    --------------------------------------------
      LOOP:  cpu time    100.8903: real time    100.9947

 eigenvalue-minimisations  :  4456
 total energy-change (2. order) :-0.4441967E-04  (-0.2903504E-04)
 number of electron     269.9999999 magnetization 
 augmentation part      -14.9438704 magnetization 

 Broyden mixing:
  rms(total) = 0.12261E-02    rms(broyden)= 0.18010E-01
  rms(prec ) = 0.17024E-02
  weight for this iteration     100.00
  WARNING: grid for Broyden might be to small

 eigenvalues of (default mixing * dielectric matrix)
  average eigenvalue GAMMA=   1.1723
  2.5520  2.5025  1.0171  0.8602  0.6785  0.6332  0.5928  0.5422

 Free energy of the ion-electron system (eV)
  ---------------------------------------------------
  alpha Z        PSCENC =        86.46053338
  Ewald energy   TEWEN  =     -3348.31284441
  -Hartree energ DENC   =     -4149.55486531
  -exchange      EXHF   =         0.00000000
  -V(xc)+E(xc)   XCENC  =      -320.32067767
  PAW double counting   =     39281.87406465   -38613.56079304
  entropy T*S    EENTRO =        -0.08575336
  eigenvalues    EBANDS =      -513.93864957
  atomic energy  EATOM  =      6930.45472119
  Solvation  Ediel_sol  =         0.00000000
  ---------------------------------------------------
  free energy    TOTEN  =      -646.98426413 eV

  energy without entropy =     -646.89851077  energy(sigma->0) =     -646.94138745


--------------------------------------------------------------------------------------------------------




--------------------------------------- Iteration      1(  10)  ---------------------------------------


    POTLOK:  cpu time      0.5679: real time      0.5841
    SETDIJ:  cpu time      0.9735: real time      0.9743
    EDDIAG:  cpu time     16.4869: real time     16.5009
     EDDAV:  cpu time     77.3007: real time     77.3715
       DOS:  cpu time      0.0038: real time      0.0038
    CHARGE:  cpu time      6.2113: real time      6.2160
    MIXING:  cpu time      0.0122: real time      0.0122
    --------------------------------------------
      LOOP:  cpu time    101.5561: real time    101.6628

 eigenvalue-minimisations  :  4536
 total energy-change (2. order) :-0.8176616E-04  (-0.9598645E-05)
 number of electron     269.9999999 magnetization 
 augmentation part      -14.9439050 magnetization 

 Broyden mixing:
  rms(total) = 0.64421E-03    rms(broyden)= 0.13583E-01
  rms(prec ) = 0.10535E-02
  weight for this iteration     100.00
  WARNING: grid for Broyden might be to small

 eigenvalues of (default mixing * dielectric matrix)
  average eigenvalue GAMMA=   1.2233
  2.9826  2.5689  1.1305  1.0954  0.7850  0.6834  0.6242  0.6039  0.5355

 Free energy of the ion-electron system (eV)
  ---------------------------------------------------
  alpha Z        PSCENC =        86.46053338
  Ewald energy   TEWEN  =     -3348.31284441
  -Hartree energ DENC   =     -4149.48881366
  -exchange      EXHF   =         0.00000000
  -V(xc)+E(xc)   XCENC  =      -320.33380091
  PAW double counting   =     39278.16072232   -38609.84672760
  entropy T*S    EENTRO =        -0.08576698
  eigenvalues    EBANDS =      -513.99236923
  atomic energy  EATOM  =      6930.45472119
  Solvation  Ediel_sol  =         0.00000000
  ---------------------------------------------------
  free energy    TOTEN  =      -646.98434590 eV

  energy without entropy =     -646.89857892  energy(sigma->0) =     -646.94146241


--------------------------------------------------------------------------------------------------------




--------------------------------------- Iteration      1(  11)  ---------------------------------------


    POTLOK:  cpu time      0.5682: real time      0.5827
    SETDIJ:  cpu time      0.9736: real time      0.9742
    EDDIAG:  cpu time     16.3908: real time     16.4042
     EDDAV:  cpu time     75.8446: real time     75.9124
       DOS:  cpu time      0.0036: real time      0.0036
    CHARGE:  cpu time      6.3529: real time      6.3578
    MIXING:  cpu time      0.0126: real time      0.0126
    --------------------------------------------
      LOOP:  cpu time    100.1462: real time    100.2475

 eigenvalue-minimisations  :  4416
 total energy-change (2. order) :-0.4963347E-04  (-0.7326109E-05)
 number of electron     269.9999999 magnetization 
 augmentation part      -14.9439256 magnetization 

 Broyden mixing:
  rms(total) = 0.35246E-03    rms(broyden)= 0.19647E-01
  rms(prec ) = 0.69525E-03
  weight for this iteration     100.00
  WARNING: grid for Broyden might be to small

 eigenvalues of (default mixing * dielectric matrix)
  average eigenvalue GAMMA=   1.2289
  3.3110  2.5822  1.4707  1.0102  0.8293  0.7067  0.6397  0.5925  0.5925  0.5539

 Free energy of the ion-electron system (eV)
  ---------------------------------------------------
  alpha Z        PSCENC =        86.46053338
  Ewald energy   TEWEN  =     -3348.31284441
  -Hartree energ DENC   =     -4149.42309180
  -exchange      EXHF   =         0.00000000
  -V(xc)+E(xc)   XCENC  =      -320.33847961
  PAW double counting   =     39276.09019190   -38607.77576090
  entropy T*S    EENTRO =        -0.08575498
  eigenvalues    EBANDS =      -514.05391031
  atomic energy  EATOM  =      6930.45472119
  Solvation  Ediel_sol  =         0.00000000
  ---------------------------------------------------
  free energy    TOTEN  =      -646.98439553 eV

  energy without entropy =     -646.89864055  energy(sigma->0) =     -646.94151804


--------------------------------------------------------------------------------------------------------




--------------------------------------- Iteration      1(  12)  ---------------------------------------


    POTLOK:  cpu time      0.6189: real time      0.6342
    SETDIJ:  cpu time      0.9755: real time      0.9760
    EDDIAG:  cpu time     16.3578: real time     16.3712
     EDDAV:  cpu time     76.6053: real time     76.6705
       DOS:  cpu time      0.0037: real time      0.0037
    CHARGE:  cpu time      6.2181: real time      6.2241
    MIXING:  cpu time      0.0125: real time      0.0125
    --------------------------------------------
      LOOP:  cpu time    100.7918: real time    100.8922

 eigenvalue-minimisations  :  4448
 total energy-change (2. order) :-0.3365392E-04  (-0.4812275E-05)
 number of electron     269.9999999 magnetization 
 augmentation part      -14.9439805 magnetization 

 Broyden mixing:
  rms(total) = 0.24094E-03    rms(broyden)= 0.12709E-01
  rms(prec ) = 0.46143E-03
  weight for this iteration     100.00
  WARNING: grid for Broyden might be to small

 eigenvalues of (default mixing * dielectric matrix)
  average eigenvalue GAMMA=   1.2358
  3.3961  2.6171  1.6331  1.0460  1.0460  0.8134  0.6873  0.6245  0.6245  0.5643
  0.5418

 Free energy of the ion-electron system (eV)
  ---------------------------------------------------
  alpha Z        PSCENC =        86.46053338
  Ewald energy   TEWEN  =     -3348.31284441
  -Hartree energ DENC   =     -4149.36061441
  -exchange      EXHF   =         0.00000000
  -V(xc)+E(xc)   XCENC  =      -320.34580267
  PAW double counting   =     39275.85305311   -38607.53872360
  entropy T*S    EENTRO =        -0.08575779
  eigenvalues    EBANDS =      -514.10899399
  atomic energy  EATOM  =      6930.45472119
  Solvation  Ediel_sol  =         0.00000000
  ---------------------------------------------------
  free energy    TOTEN  =      -646.98442919 eV

  energy without entropy =     -646.89867139  energy(sigma->0) =     -646.94155029


--------------------------------------------------------------------------------------------------------




--------------------------------------- Iteration      1(  13)  ---------------------------------------


    POTLOK:  cpu time      0.5687: real time      0.5836
    SETDIJ:  cpu time      0.9766: real time      0.9771
    EDDIAG:  cpu time     16.4023: real time     16.4157
     EDDAV:  cpu time     78.4298: real time     78.5021
       DOS:  cpu time      0.0045: real time      0.0045
    CHARGE:  cpu time      6.3786: real time      6.3833
    MIXING:  cpu time      0.0125: real time      0.0125
    --------------------------------------------
      LOOP:  cpu time    102.7729: real time    102.8787

 eigenvalue-minimisations  :  4648
 total energy-change (2. order) :-0.1773505E-04  (-0.2219780E-05)
 number of electron     269.9999999 magnetization 
 augmentation part      -14.9440088 magnetization 

 Broyden mixing:
  rms(total) = 0.14405E-03    rms(broyden)= 0.80366E-02
  rms(prec ) = 0.30206E-03
  weight for this iteration     100.00
  WARNING: grid for Broyden might be to small

 eigenvalues of (default mixing * dielectric matrix)
  average eigenvalue GAMMA=   1.2840
  3.6031  2.5995  2.1393  1.3527  1.0300  0.8413  0.8413  0.6640  0.6279  0.6279
  0.5551  0.5259

 Free energy of the ion-electron system (eV)
  ---------------------------------------------------
  alpha Z        PSCENC =        86.46053338
  Ewald energy   TEWEN  =     -3348.31284441
  -Hartree energ DENC   =     -4149.31788885
  -exchange      EXHF   =         0.00000000
  -V(xc)+E(xc)   XCENC  =      -320.34954075
  PAW double counting   =     39276.12454516   -38607.81053139
  entropy T*S    EENTRO =        -0.08575937
  eigenvalues    EBANDS =      -514.14768188
  atomic energy  EATOM  =      6930.45472119
  Solvation  Ediel_sol  =         0.00000000
  ---------------------------------------------------
  free energy    TOTEN  =      -646.98444692 eV

  energy without entropy =     -646.89868755  energy(sigma->0) =     -646.94156723


--------------------------------------------------------------------------------------------------------




--------------------------------------- Iteration      1(  14)  ---------------------------------------


    POTLOK:  cpu time      0.5827: real time      0.5835
    SETDIJ:  cpu time      0.9739: real time      0.9745
    EDDIAG:  cpu time     16.3622: real time     16.3764
     EDDAV:  cpu time     75.9789: real time     76.0498
       DOS:  cpu time      0.0052: real time      0.0052
    CHARGE:  cpu time      6.3051: real time      6.3112
    MIXING:  cpu time      0.0128: real time      0.0128
    --------------------------------------------
      LOOP:  cpu time    100.2208: real time    100.3135

 eigenvalue-minimisations  :  4400
 total energy-change (2. order) :-0.1251278E-04  (-0.1764390E-05)
 number of electron     269.9999999 magnetization 
 augmentation part      -14.9440277 magnetization 

 Broyden mixing:
  rms(total) = 0.10536E-03    rms(broyden)= 0.46159E-02
  rms(prec ) = 0.18021E-03
  weight for this iteration     100.00
  WARNING: grid for Broyden might be to small

 eigenvalues of (default mixing * dielectric matrix)
  average eigenvalue GAMMA=   1.2919
  3.8249  2.5738  2.5738  1.3820  1.0004  0.9896  0.8460  0.6532  0.6532  0.6094
  0.6094  0.5576  0.5217

 Free energy of the ion-electron system (eV)
  ---------------------------------------------------
  alpha Z        PSCENC =        86.46053338
  Ewald energy   TEWEN  =     -3348.31284441
  -Hartree energ DENC   =     -4149.27879325
  -exchange      EXHF   =         0.00000000
  -V(xc)+E(xc)   XCENC  =      -320.35152268
  PAW double counting   =     39276.40445481   -38608.09070537
  entropy T*S    EENTRO =        -0.08575965
  eigenvalues    EBANDS =      -514.18454345
  atomic energy  EATOM  =      6930.45472119
  Solvation  Ediel_sol  =         0.00000000
  ---------------------------------------------------
  free energy    TOTEN  =      -646.98445943 eV

  energy without entropy =     -646.89869978  energy(sigma->0) =     -646.94157961


--------------------------------------------------------------------------------------------------------




--------------------------------------- Iteration      1(  15)  ---------------------------------------


    POTLOK:  cpu time      0.5675: real time      0.5837
    SETDIJ:  cpu time      0.9740: real time      0.9750
    EDDIAG:  cpu time     16.3286: real time     16.3421
     EDDAV:  cpu time     78.7391: real time     78.8094
       DOS:  cpu time      0.0038: real time      0.0038
    CHARGE:  cpu time      6.1910: real time      6.1962
    MIXING:  cpu time      0.0132: real time      0.0132
    --------------------------------------------
      LOOP:  cpu time    102.8172: real time    102.9233

 eigenvalue-minimisations  :  4664
 total energy-change (2. order) :-0.4484518E-05  (-0.5923792E-06)
 number of electron     269.9999999 magnetization 
 augmentation part      -14.9440235 magnetization 

 Broyden mixing:
  rms(total) = 0.55432E-04    rms(broyden)= 0.29037E-02
  rms(prec ) = 0.88053E-04
  weight for this iteration     100.00
  WARNING: grid for Broyden might be to small

 eigenvalues of (default mixing * dielectric matrix)
  average eigenvalue GAMMA=   1.2940
  3.8883  2.6465  2.6465  1.3152  1.3152  1.0288  0.8428  0.8428  0.6723  0.6446
  0.6247  0.5697  0.5585  0.5203

 Free energy of the ion-electron system (eV)
  ---------------------------------------------------
  alpha Z        PSCENC =        86.46053338
  Ewald energy   TEWEN  =     -3348.31284441
  -Hartree energ DENC   =     -4149.25904067
  -exchange      EXHF   =         0.00000000
  -V(xc)+E(xc)   XCENC  =      -320.35072248
  PAW double counting   =     39276.27763000   -38607.96392590
  entropy T*S    EENTRO =        -0.08575741
  eigenvalues    EBANDS =      -514.20505762
  atomic energy  EATOM  =      6930.45472119
  Solvation  Ediel_sol  =         0.00000000
  ---------------------------------------------------
  free energy    TOTEN  =      -646.98446392 eV

  energy without entropy =     -646.89870651  energy(sigma->0) =     -646.94158521


--------------------------------------------------------------------------------------------------------




--------------------------------------- Iteration      1(  16)  ---------------------------------------


    POTLOK:  cpu time      0.5831: real time      0.5842
    SETDIJ:  cpu time      0.9771: real time      0.9776
    EDDIAG:  cpu time     16.4436: real time     16.4564
     EDDAV:  cpu time     64.5130: real time     64.5705
       DOS:  cpu time      0.0039: real time      0.0039
    CHARGE:  cpu time      6.2147: real time      6.2202
    MIXING:  cpu time      0.0132: real time      0.0132
    --------------------------------------------
      LOOP:  cpu time     88.7487: real time     88.8261

 eigenvalue-minimisations  :  3232
 total energy-change (2. order) :-0.1015142E-05  (-0.1368916E-06)
 number of electron     269.9999999 magnetization 
 augmentation part      -14.9440251 magnetization 

 Broyden mixing:
  rms(total) = 0.33659E-04    rms(broyden)= 0.19831E-02
  rms(prec ) = 0.53194E-04
  weight for this iteration     100.00
  WARNING: grid for Broyden might be to small

 eigenvalues of (default mixing * dielectric matrix)
  average eigenvalue GAMMA=   1.3285
  3.9981  2.7461  2.7461  1.8359  1.4164  0.9894  0.9894  0.8977  0.7171  0.6728
  0.6363  0.6294  0.5646  0.5646  0.5233

 Free energy of the ion-electron system (eV)
  ---------------------------------------------------
  alpha Z        PSCENC =        86.46053338
  Ewald energy   TEWEN  =     -3348.31284441
  -Hartree energ DENC   =     -4149.25174269
  -exchange      EXHF   =         0.00000000
  -V(xc)+E(xc)   XCENC  =      -320.35053456
  PAW double counting   =     39276.30214659   -38607.98844025
  entropy T*S    EENTRO =        -0.08575772
  eigenvalues    EBANDS =      -514.21254647
  atomic energy  EATOM  =      6930.45472119
  Solvation  Ediel_sol  =         0.00000000
  ---------------------------------------------------
  free energy    TOTEN  =      -646.98446493 eV

  energy without entropy =     -646.89870721  energy(sigma->0) =     -646.94158607


--------------------------------------------------------------------------------------------------------




--------------------------------------- Iteration      1(  17)  ---------------------------------------


    POTLOK:  cpu time      0.5655: real time      0.5847
    SETDIJ:  cpu time      0.9735: real time      0.9740
    EDDIAG:  cpu time     16.3763: real time     16.3906
     EDDAV:  cpu time     63.1427: real time     63.1989
       DOS:  cpu time      0.0036: real time      0.0036
    --------------------------------------------
      LOOP:  cpu time     81.0623: real time     81.1792

 eigenvalue-minimisations  :  3088
 total energy-change (2. order) :-0.3829555E-06  (-0.6339948E-07)
 number of electron     269.9999999 magnetization 
 augmentation part      -14.9440251 magnetization 

 Free energy of the ion-electron system (eV)
  ---------------------------------------------------
  alpha Z        PSCENC =        86.46053338
  Ewald energy   TEWEN  =     -3348.31284441
[...]
   -.836E+02 -.113E+03 -.140E+01   0.835E+02 0.114E+03 -.833E+00   -.684E+00 0.194E+00 0.184E+01   0.441E-04 0.666E-04 -.266E-04
   0.114E+03 -.906E+02 0.883E+01   -.113E+03 0.907E+02 -.982E+01   -.830E+00 -.307E+00 0.167E+01   0.145E-04 -.864E-04 -.142E-04
   0.694E+02 -.528E+02 0.268E+02   -.695E+02 0.526E+02 -.247E+02   -.682E-01 0.289E+00 -.209E+01   0.145E-04 -.628E-05 -.262E-04
   -.121E+03 0.816E+02 -.190E+02   0.119E+03 -.809E+02 0.179E+02   0.203E+01 0.465E-01 0.165E+00   -.173E-04 -.459E-04 0.333E-04
   0.462E+02 -.463E+02 0.186E+02   -.449E+02 0.454E+02 -.174E+02   -.118E+01 0.708E+00 -.238E+01   0.136E-05 0.122E-04 -.475E-04
   0.681E+02 0.110E+03 0.216E+02   -.692E+02 -.107E+03 -.202E+02   0.947E+00 -.415E+01 -.251E+01   -.138E-04 -.829E-06 -.214E-04
   -.938E+02 0.103E+03 0.267E+02   0.915E+02 -.100E+03 -.248E+02   0.190E+01 -.316E+01 -.122E+01   0.287E-05 -.407E-04 -.376E-04
   -.946E+02 -.297E+02 -.234E+02   0.916E+02 0.277E+02 0.219E+02   0.285E+01 0.232E+01 0.163E+01   0.366E-04 0.136E-04 -.911E-05
   0.128E+03 0.770E+02 -.191E+02   -.125E+03 -.759E+02 0.163E+02   -.349E+01 -.470E+00 0.363E+01   0.464E-04 0.298E-05 0.176E-04
   0.112E+03 0.399E+01 -.151E+02   -.109E+03 -.330E+01 0.151E+02   -.393E+01 -.170E+01 0.677E+00   0.722E-04 0.132E-04 -.902E-05
   -.324E+01 -.168E+02 0.399E+01   0.451E+01 0.169E+02 -.127E+01   -.139E+01 -.244E+00 -.357E+01   -.200E-04 0.827E-05 0.170E-05
   0.730E+01 0.228E+02 0.173E+02   -.550E+01 -.205E+02 -.170E+02   -.133E+01 -.190E+01 -.681E+00   -.320E-04 -.179E-04 -.358E-05
   0.257E+02 0.746E+01 -.283E+02   -.218E+02 -.861E+01 0.273E+02   -.355E+01 0.187E+01 0.177E+01   -.688E-05 -.171E-04 0.457E-04
   -.452E+02 -.410E+01 0.199E+02   0.438E+02 0.252E+01 -.187E+02   0.252E+01 0.128E+01 -.103E+01   -.266E-05 0.274E-04 -.207E-04
   -.126E+03 -.589E+02 0.493E+01   0.124E+03 0.567E+02 -.470E+01   0.164E+01 0.264E+01 -.873E+00   0.281E-04 -.115E-04 0.219E-04
   0.109E+03 -.705E+02 -.333E+01   -.109E+03 0.684E+02 0.267E+01   0.428E+00 0.235E+01 0.130E+01   0.673E-04 -.243E-05 0.220E-04
   -.405E+02 -.611E+02 0.143E+02   0.410E+02 0.590E+02 -.131E+02   0.195E+00 0.169E+01 -.155E+01   0.500E-05 0.614E-04 0.122E-04
   -.166E+02 0.282E+02 0.396E+01   0.175E+02 -.298E+02 -.339E+01   -.149E+01 0.120E+01 -.363E+00   -.373E-04 -.225E-04 0.787E-05
   -.412E+02 -.930E+02 -.484E+01   0.407E+02 0.943E+02 0.543E+01   -.523E-01 -.147E+01 -.115E+01   0.473E-04 0.177E-04 0.545E-05
   0.512E+02 0.934E+02 -.517E+02   -.494E+02 -.933E+02 0.484E+02   -.114E+01 0.626E+00 0.560E+01   -.929E-05 -.707E-05 0.316E-04
   0.474E+02 0.755E+02 -.238E+02   -.468E+02 -.739E+02 0.242E+02   -.130E+01 -.207E+01 -.124E+01   -.837E-05 -.930E-05 0.499E-04
   0.144E+03 -.101E+03 -.102E+02   -.144E+03 0.101E+03 0.109E+02   -.172E+00 -.832E-01 -.766E+00   0.518E-04 -.579E-04 0.125E-04
   0.474E+02 -.670E+02 -.263E+02   -.491E+02 0.661E+02 0.231E+02   0.152E+01 0.226E+01 0.374E+01   0.838E-06 -.955E-05 0.405E-04
   0.805E+02 -.780E+02 -.321E+01   -.793E+02 0.752E+02 0.347E+01   -.750E+00 0.351E+01 -.488E+00   0.833E-04 0.367E-04 -.390E-04
   0.656E+02 0.315E+02 0.331E+02   -.621E+02 -.316E+02 -.326E+02   -.318E+01 0.574E+00 -.112E+01   -.176E-04 -.673E-05 -.491E-04
   -.246E+02 -.235E+02 0.141E+02   0.228E+02 0.222E+02 -.120E+02   0.188E+01 0.942E+00 -.282E+01   0.163E-04 0.161E-04 0.322E-05
   -.164E+02 0.712E+01 -.106E+02   0.185E+02 -.733E+01 0.101E+02   -.235E+01 0.746E+00 0.914E+00   -.172E-04 0.434E-05 0.469E-05
   0.423E+02 0.581E+02 -.394E+02   -.403E+02 -.574E+02 0.382E+02   -.192E+01 0.802E+00 0.146E+01   0.525E-05 -.406E-04 0.790E-05
   -.247E+02 -.139E+02 0.923E+01   0.246E+02 0.161E+02 -.103E+02   -.743E+00 -.123E+01 0.114E+01   0.261E-04 0.416E-04 0.707E-05
   -.411E+02 0.564E+02 -.207E+02   0.399E+02 -.550E+02 0.194E+02   0.129E+01 -.272E+01 0.934E+00   -.219E-04 -.171E-04 0.123E-04
   -.258E+02 0.787E+02 0.254E+02   0.253E+02 -.779E+02 -.223E+02   0.579E+00 -.590E+00 -.390E+01   0.588E-04 0.198E-04 0.737E-05
   0.731E+02 -.689E+02 -.598E+01   -.718E+02 0.670E+02 0.650E+01   -.125E+01 0.213E+01 -.900E+00   -.114E-04 -.391E-04 0.138E-04
   0.111E+02 -.198E+02 -.526E+01   -.995E+01 0.201E+02 0.582E+01   -.167E+01 -.132E+01 0.394E+00   0.298E-04 -.254E-04 0.157E-04
   0.900E+02 0.557E+02 0.350E+02   -.909E+02 -.548E+02 -.354E+02   0.192E+01 -.941E+00 -.594E+00   0.602E-04 0.227E-04 0.204E-04
   -.657E+02 0.984E+02 -.144E+02   0.676E+02 -.970E+02 0.152E+02   -.273E+01 -.699E+00 -.103E+01   -.817E-05 -.395E-04 0.113E-04
   0.303E+02 -.153E+02 0.935E+01   -.321E+02 0.166E+02 -.845E+01   0.247E+01 -.141E+01 -.622E+00   -.988E-05 0.657E-05 0.432E-06
   -.680E+02 -.460E+02 0.710E+00   0.668E+02 0.470E+02 0.134E+01   0.128E+01 0.584E+00 -.152E+01   0.449E-04 0.436E-04 -.182E-04
   -.720E+02 -.708E+02 -.194E+02   0.711E+02 0.699E+02 0.183E+02   0.102E+01 0.194E+01 0.106E+01   0.155E-04 0.893E-04 0.364E-04
   0.388E+02 0.412E+02 0.350E+02   -.399E+02 -.417E+02 -.333E+02   0.102E+01 0.526E+00 -.231E+00   -.195E-05 0.155E-04 -.227E-04
   0.924E+01 -.181E+02 0.201E+02   -.884E+01 0.183E+02 -.176E+02   -.407E+00 0.323E+00 -.340E+01   0.345E-04 0.336E-05 0.974E-05
   -.871E+02 0.300E+02 0.179E+02   0.854E+02 -.264E+02 -.171E+02   0.962E+00 -.357E+01 -.288E+00   0.141E-04 -.259E-04 -.109E-04
   -.139E+03 -.737E+02 -.175E+02   0.141E+03 0.742E+02 0.181E+02   -.102E+01 -.216E+01 -.791E-01   0.417E-04 0.484E-04 0.314E-04
   -.422E+02 -.800E+02 0.192E+02   0.414E+02 0.798E+02 -.186E+02   0.119E+01 -.710E+00 0.506E+00   0.320E-04 0.579E-04 -.359E-04
   -.681E+01 0.927E+01 -.681E+01   0.484E+01 -.982E+01 0.556E+01   0.189E+01 -.775E-01 0.746E+00   0.158E-04 -.269E-04 -.232E-04
   0.761E+01 -.679E+01 -.873E+01   -.811E+01 0.691E+01 0.920E+01   0.110E+01 -.704E+00 -.103E+01   -.216E-04 0.240E-05 0.679E-05
   0.286E+01 -.219E+02 0.490E+01   -.440E+01 0.234E+02 -.606E+01   0.186E+01 -.585E+00 -.108E+00   0.328E-04 0.696E-05 -.229E-04
   -.622E+02 0.410E+02 -.417E+01   0.592E+02 -.418E+02 0.265E+01   0.263E+01 0.171E+00 0.152E+01   0.460E-04 -.158E-04 0.162E-04
   -.428E+02 -.211E+02 -.206E+02   0.421E+02 0.216E+02 0.202E+02   0.229E+00 -.358E+00 -.557E-01   -.247E-04 0.107E-04 0.290E-04
   0.124E+02 0.212E+02 0.616E+01   -.122E+02 -.199E+02 -.771E+01   -.146E+00 -.882E+00 0.156E+01   -.744E-05 -.262E-04 0.180E-04
   0.346E+02 -.367E+01 0.821E+01   -.349E+02 0.492E+01 -.772E+01   0.466E+00 -.131E+01 0.115E+00   -.387E-04 0.499E-05 -.348E-04
   -.279E+02 0.378E+02 -.144E+02   0.267E+02 -.372E+02 0.155E+02   0.213E+01 -.144E+01 -.105E+01   -.162E-04 -.373E-04 0.352E-05
   0.124E+03 -.629E+02 -.262E+02   -.122E+03 0.638E+02 0.255E+02   -.326E+01 -.101E+01 0.346E-01   0.172E-04 -.714E-04 0.301E-04
   -.126E+02 -.157E+02 -.779E+01   0.154E+02 0.164E+02 0.889E+01   -.155E+01 -.135E+01 -.104E+01   0.245E-04 0.328E-04 -.126E-04
   0.457E+01 -.512E+01 0.550E+01   -.428E+01 0.454E+01 -.551E+01   0.775E-01 -.115E+00 0.171E+00   -.444E-04 -.785E-05 -.142E-05
   -.136E+02 0.835E+02 -.280E+02   0.113E+02 -.824E+02 0.269E+02   0.141E+01 -.145E+01 0.107E+01   0.343E-04 0.585E-05 0.315E-04
   -.108E+02 0.283E+02 0.912E+01   0.132E+02 -.286E+02 -.102E+02   -.230E+01 0.571E+00 0.224E+01   -.240E-04 -.885E-06 -.127E-04
   0.151E+02 0.927E+02 0.119E+02   -.159E+02 -.927E+02 -.126E+02   -.957E-02 -.681E+00 0.320E+00   0.269E-04 0.148E-04 -.298E-04
   0.271E+02 -.666E+02 0.187E+01   -.253E+02 0.670E+02 -.202E+01   -.166E+01 -.343E+00 0.509E+00   -.103E-04 0.241E-04 0.163E-04
   -.356E+02 0.291E+02 0.241E+02   0.355E+02 -.294E+02 -.235E+02   0.385E+00 0.256E+00 -.656E+00   -.189E-04 -.455E-04 -.325E-04
   -.512E+02 0.142E+03 -.284E+01   0.514E+02 -.143E+03 0.377E+01   0.809E+00 0.989E+00 -.566E+00   0.270E-04 -.792E-04 -.789E-05
   0.235E+02 -.416E+02 0.170E+02   -.237E+02 0.418E+02 -.177E+02   0.246E+00 -.559E+00 0.717E-01   -.112E-04 0.204E-04 -.198E-04
   0.863E+01 -.693E+02 -.832E+01   -.966E+01 0.674E+02 0.706E+01   0.789E+00 0.252E+01 0.140E+01   0.437E-04 -.312E-05 -.977E-05
   -.131E+03 0.348E+02 0.121E+02   0.135E+03 -.343E+02 -.139E+02   -.311E+01 -.628E+00 0.258E+01   0.889E-05 -.606E-04 -.893E-05
   -.166E+02 -.135E+02 -.524E+01   0.170E+02 0.144E+02 0.345E+01   -.983E+00 -.151E+01 0.186E+01   0.604E-05 0.515E-05 -.943E-05
   -.550E+02 0.105E+03 -.118E+02   0.543E+02 -.104E+03 0.854E+01   0.332E+00 -.422E+00 0.312E+01   0.138E-04 -.106E-05 -.128E-05
 -----------------------------------------------------------------------------------------------
   0.308E+01 0.923E+01 -.834E+01   0.327E-12 -.853E-13 -.586E-13   -.308E+01 -.924E+01 0.833E+01   0.790E-03 -.168E-03 0.499E-04


 POSITION                                       TOTAL-FORCE (eV/Angst)
 -----------------------------------------------------------------------------------
      1.51015     11.10970      2.21740        -0.083474     -0.405086     -0.091800
     13.49690      6.25529      6.57212         0.286857      0.058867      0.215948
      5.02842      9.91409      5.41975         0.390234      1.256354     -0.727919
      4.22872      7.19376      2.81759         0.519334     -0.842749      0.338903
      8.72341      5.12097      0.27677        -0.892089      1.138585     -0.338635
      0.26256      5.81546      7.21347        -0.598414     -0.138121      0.768443
      2.13227      5.77005      5.84745        -0.122780      0.040747     -0.017612
      8.58449     11.35690      2.71423        -0.019772      0.890215     -1.027977
     12.96360      2.19460      5.66595         0.055911     -0.236712     -1.241913
      0.48140     13.70450      5.20816        -0.038881     -1.101976     -1.157576
      8.88736     12.69180      0.53421        -0.320808     -0.847890      0.617277
      6.59789      8.37964      6.23476        -0.033374      0.396758      0.147843
      1.85756     11.66010      5.19897        -0.229712      0.644621      0.979459
      2.77650      9.53085      5.79869        -0.847348     -1.085184      0.749266
      5.81899      3.14589      1.37746        -0.174905     -0.172733     -1.045037
      5.34407     14.16680      3.42815         0.455157      0.350679     -0.348640
      2.86464      1.82413      8.12887         0.219337      0.828888      0.798539
      9.23546      1.27507      7.77744         1.160680     -0.270071      0.182568
      7.83353      7.93761      4.19648        -0.564819      0.370922     -0.648249
      2.26589      7.48211      4.21572         0.816496      0.229576      0.698256
      7.21704      4.82114      2.22326         0.779904     -0.401577     -0.409400
      6.37302     12.14520      2.35484        -0.685112     -0.426148      0.151434
     10.85510      3.47328      2.41439        -0.693261     -0.259655     -0.584367
      0.34043      0.03667      7.24438         0.627628      0.849695      2.503638
      2.55306     14.11370      0.00193        -0.793670     -0.531456     -1.000853
      1.13465      7.21915      0.54612        -0.226396     -0.546101     -0.167448
     14.38920      3.63164      8.27059        -0.154614      1.470131      0.735610
      2.94222      8.41306      8.06389         0.340363      0.789423     -0.271724
      2.02287      0.38014      3.87776         0.238158      0.513150     -0.663395
      4.20111      2.50044      6.43932         0.101101     -0.377979     -0.850464
      7.60174      1.20608      6.21767        -0.350359      0.595708      0.474157
      3.39495     12.91400      6.49674        -0.006558      1.529913      0.270474
      6.21944      6.22481      3.80254        -0.824736      0.941935      0.103791
      6.97623     13.75690      5.23694         0.181578     -1.467094     -0.329594
     12.29090      0.58972      2.72414        -0.010267      0.312646     -0.968971
      0.20471      3.86035      2.29697        -0.008088      0.267571     -0.412809
      3.38914      5.65933      1.25216        -0.726536     -1.074050      0.967634
      2.60206     11.62240      3.07236         1.130700     -0.102530     -0.955761
      9.27979     12.96960      4.33476        -1.059560      0.643388     -0.345030
      0.61897      2.31356      6.54785         0.780920     -0.150763      0.325480
      7.48847      4.87279      6.63676         0.053825      1.685005      0.486526
      8.95242      4.03046      3.64137         0.176505      1.069827     -0.043962
      3.14596     13.70030      2.15570        -0.030886      0.019372      1.557142
      4.71374      8.88802      1.35268        -0.057086      0.517204     -1.090721
      6.80294      9.34720      0.09769        -0.647449     -0.175937      0.593111
      8.88700      6.04868      4.99002         0.312584     -1.867680      0.507421
     10.16080      3.38758      0.02436         0.423500     -1.007825      1.129762
      3.90010      0.43808      5.27932        -0.029029     -0.674198     -0.507880
      3.40228      3.32346      1.56985         0.656289     -0.615811     -0.638425
      3.63208      6.22155      7.52196         0.394016      0.933413     -1.260323
      9.89497      0.47305      2.93452        -0.273743     -0.585977      0.101175
      8.43029      1.86398      4.17203        -0.525437      0.138997     -0.449492
      4.74203     10.51430      3.04565         0.061897      0.316453      0.082543
      1.95324      2.66307      3.24100         0.196831     -0.102786      0.608974
      5.53452     12.17350      6.42974         1.068843     -0.911883     -0.019766
      1.40066      6.09301      2.56677        -1.263910     -0.094964     -0.838927
      5.59347      6.28691      6.21733         1.252222     -0.661986      0.000573
      6.68880      1.35539      2.53889         0.414027     -0.724476      0.151394
     12.76400      0.50900      0.19723        -0.766488     -0.402008     -0.003375
      8.30390      0.28122      1.15729        -0.009169      0.291880      1.263375
     12.82400     14.43260      4.92829        -0.799508     -0.683397     -0.340955
     12.28000      2.77747      7.77844         0.116486     -0.051220      0.363844
      6.70679     11.72940      0.01577         0.405033     -0.110272     -0.108157
     11.10530     12.93250      5.68099         0.968710      0.125933      0.335574
      2.33682      3.51767      5.40942         0.077631     -0.438768     -0.621870
     12.87430      2.79566      3.33351        -0.252241      0.701269      0.218031
      8.27631      9.10561      2.01247         0.449089     -0.081416      0.955992
      6.36171      2.97214      7.27773        -0.665716     -0.664837      0.126450
     10.74530     13.85330      7.75962        -0.325651      0.374186      0.018421
 -----------------------------------------------------------------------------------
    total drift:                                0.007703     -0.013170     -0.003285


--------------------------------------------------------------------------------------------------------



  FREE ENERGIE OF THE ION-ELECTRON SYSTEM (eV)
  ---------------------------------------------------
  free  energy   TOTEN  =      -646.98446532 eV

  energy  without entropy=     -646.89870773  energy(sigma->0) =     -646.94158652



--------------------------------------------------------------------------------------------------------


    POTLOK:  cpu time      1.5280: real time      1.5454


--------------------------------------------------------------------------------------------------------


     LOOP+:  cpu time   1834.7928: real time   1836.7089
    4ORBIT:  cpu time      0.0000: real time      0.0000



 total charge

# of ion       s       p       d       tot
------------------------------------------
    1        0.570   0.016   0.000   0.585
    2        0.555   0.014   0.000   0.570
    3        0.756   0.906   0.000   1.662
    4        0.767   0.916   0.000   1.682
    5        0.795   0.835   0.000   1.630
    6        0.742   0.943   0.000   1.685
    7        0.752   0.978   0.000   1.730
    8        0.761   0.878   0.000   1.639
    9        0.767   0.916   0.000   1.683
   10        0.759   0.933   0.000   1.692
   11        0.769   0.860   0.000   1.629
   12        0.759   0.896   0.000   1.654
   13        0.752   0.933   0.000   1.684
   14        0.771   0.836   0.000   1.608
   15        0.760   0.899   0.000   1.659
   16        0.741   0.876   0.000   1.616
   17        0.791   0.875   0.000   1.666
   18        0.771   0.949   0.000   1.720
   19        0.767   0.874   0.000   1.641
   20        0.763   0.869   0.000   1.632
   21        0.765   0.903   0.000   1.667
   22        0.779   0.866   0.000   1.645
   23        0.798   0.834   0.000   1.631
   24        0.775   0.876   0.000   1.651
   25        0.753   0.928   0.000   1.681
   26        0.793   0.858   0.000   1.650
   27        0.755   0.918   0.000   1.673
   28        0.762   0.877   0.000   1.639
   29        0.755   0.933   0.000   1.687
   30        0.761   0.950   0.000   1.712
   31        0.755   0.973   0.000   1.728
   32        0.754   0.935   0.000   1.689
   33        0.757   0.876   0.000   1.633
   34        0.779   0.852   0.000   1.630
   35        0.770   0.868   0.000   1.638
   36        0.760   0.878   0.000   1.638
   37        0.762   0.940   0.000   1.702
   38        0.742   0.998   0.000   1.740
   39        0.761   0.862   0.000   1.623
   40        0.754   0.945   0.000   1.699
   41        0.755   0.900   0.000   1.655
   42        0.755   0.935   0.000   1.691
   43        0.768   0.918   0.000   1.686
   44        0.757   0.894   0.000   1.651
   45        0.761   0.856   0.000   1.616
   46        0.807   0.816   0.000   1.623
   47        0.756   0.919   0.000   1.674
   48        0.771   0.894   0.000   1.665
   49        0.756   0.913   0.000   1.669
   50        0.757   0.978   0.000   1.735
   51        0.766   0.878   0.000   1.644
   52        0.765   0.930   0.000   1.695
   53        0.752   0.910   0.000   1.662
   54        0.752   0.953   0.000   1.705
   55        0.752   0.915   0.000   1.668
   56        0.784   0.852   0.000   1.637
   57        0.772   0.894   0.000   1.666
   58        0.757   0.931   0.000   1.688
   59        0.770   0.807   0.000   1.577
   60        0.766   0.962   0.000   1.728
   61        0.768   0.904   0.000   1.672
   62        0.761   0.925   0.000   1.685
   63        0.760   0.893   0.000   1.653
   64        0.786   0.894   0.000   1.680
   65        0.760   0.926   0.000   1.686
   66        0.755   0.919   0.000   1.673
   67        0.800   0.788   0.000   1.588
   68        0.762   0.882   0.000   1.644
   69        0.757   0.871   0.000   1.628
--------------------------------------------------
tot         52.345  60.324   0.000 112.669


 total amount of memory used by VASP MPI-rank0   160426. kBytes
=======================================================================

   base                                    :      30000. kBytes
   nonl-proj                               :      27751. kBytes
   fftplans                                :      32804. kBytes
   grid                                    :      25285. kBytes
   one-center                              :         15. kBytes
   wavefun                                 :      44571. kBytes

  
  
 General timing and accounting informations for this job:
 ========================================================
  
                  Total CPU time used (sec):     1888.551
                            User time (sec):     1881.637
                          System time (sec):        6.914
                         Elapsed time (sec):     1890.441
  
                   Maximum memory used (kb):      344668.
                   Average memory used (kb):          N/A
  
                          Minor page faults:       226402
                          Major page faults:         1140
                 Voluntary context switches:         2908
