 vasp.6.5.0 16Dec24 (build Jan 20 2025 08:32:48) complex                         
 executed on        HPECrayEX_GCC date 2025.07.28  22:36:30
 running  128 mpi-ranks, with    1 threads/rank, on    1 nodes
 distrk:  each k-point on  128 cores,    1 groups
 distr:  one band on NCORE=  16 cores,    8 groups


--------------------------------------------------------------------------------------------------------


 INCAR:
   SYSTEM = a-Si SPC
   NCORE = 16
   ISTART = 1
   ICHARG = 1
   ISPIN = 1
   ISYM = 1
   EDIFF = 1E-6
   NELM = 150
   EDIFFG = -0.01
   NSW = 0
   ISIF = 2
   IBRION = -1
   PREC = Accurate
   ENCUT = 1200
   KSPACING = 0.23
   KGAMMA = .TRUE.
   METAGGA = SCAN
   LASPH = .TRUE.
   LDIAG = .FALSE.
   LMIXTAU = .TRUE.
   ADDGRID = .TRUE.
   ALGO = Normal
   ISMEAR = 0
   SIGMA = 0.1
   LORBIT = 11
   NEDOS = 2000
   LWAVE = .FALSE.
   LCHARG = .FALSE.

 POTCAR:    PAW_PBE H 15Jun2001                   
 POTCAR:    PAW_PBE Si 05Jan2001                  
 POTCAR:    PAW_PBE H 15Jun2001                   
   SHA256 =  030f79b5d3ab3cf0e668861823c8fb652ff669f3e15e46930bd03bfd63a607b6 H/POTCAR              
   COPYR  = (c) Copyright 15Jun2001 Georg Kresse                                                    
   COPYR  = This file is part of the software VASP. Any use, copying, and all other rights are regul
   COPYR  = If you do not have a valid VASP license, you may not use, copy or distribute this file. 
   VRHFIN =H: ultrasoft test                                                                        
   LEXCH  = PE                                                                                      
   EATOM  =    12.4884 eV,    0.9179 Ry                                                             
                                                                                                    
   TITEL  = PAW_PBE H 15Jun2001                                                                     
   LULTRA =        F    use ultrasoft PP ?                                                          
   IUNSCR =        0    unscreen: 0-lin 1-nonlin 2-no                                               
   RPACOR =    0.000    partial core radius                                                         
   POMASS =    1.000; ZVAL   =    1.000    mass and valenz                                          
   RCORE  =    1.100    outmost cutoff radius                                                       
   RWIGS  =    0.700; RWIGS  =    0.370    wigner-seitz radius (au A)                               
   ENMAX  =  250.000; ENMIN  =  200.000 eV                                                          
   RCLOC  =    0.701    cutoff for local pot                                                        
   LCOR   =        T    correct aug charges                                                         
   LPAW   =        T    paw PP                                                                      
   EAUG   =  400.000                                                                                
   RMAX   =    1.123    core radius for proj-oper                                                   
   RAUG   =    1.200    factor for augmentation sphere                                              
   RDEP   =    1.112    radius for radial grids                                                     
   RDEPT  =    0.926    core radius for aug-charge                                                  
                                                                                                    
   Atomic configuration                                                                             
    2 entries                                                                                       
     n  l   j            E        occ.                                                              
     1  0  0.50        -6.4927   1.0000                                                             
     2  1  0.50        -3.4015   0.0000                                                             
   Description                                                                                      
     l       E           TYP  RCUT    TYP  RCUT                                                     
     0     -6.4927494     23  1.100                                                                 
     0      6.8029130     23  1.100                                                                 
     1     -4.0817478     23  1.100                                                                 
  local pseudopotential read in
  atomic valenz-charges read in
  non local Contribution for L=           0  read in
    real space projection operators read in
  non local Contribution for L=           0  read in
    real space projection operators read in
  non local Contribution for L=           1  read in
    real space projection operators read in
    PAW grid and wavefunctions read in

   number of l-projection  operators is LMAX  =           3
   number of lm-projection operators is LMMAX =           5

 POTCAR:    PAW_PBE Si 05Jan2001                  
   SHA256 =  79d9987ad8750f624c4d6acb2a16d13abf6a777132adc04dc6c8399be72b42bb Si/POTCAR             
   COPYR  = (c) Copyright 05Jan2001 Georg Kresse                                                    
   COPYR  = This file is part of the software VASP. Any use, copying, and all other rights are regul
   COPYR  = If you do not have a valid VASP license, you may not use, copy or distribute this file. 
   VRHFIN =Si: s2p2                                                                                 
   LEXCH  = PE                                                                                      
   EATOM  =   103.0669 eV,    7.5752 Ry                                                             
                                                                                                    
   TITEL  = PAW_PBE Si 05Jan2001                                                                    
   LULTRA =        F    use ultrasoft PP ?                                                          
   IUNSCR =        1    unscreen: 0-lin 1-nonlin 2-no                                               
   RPACOR =    1.500    partial core radius                                                         
   POMASS =   28.085; ZVAL   =    4.000    mass and valenz                                          
   RCORE  =    1.900    outmost cutoff radius                                                       
   RWIGS  =    2.480; RWIGS  =    1.312    wigner-seitz radius (au A)                               
   ENMAX  =  245.345; ENMIN  =  184.009 eV                                                          
   ICORE  =        2    local potential                                                             
   LCOR   =        T    correct aug charges                                                         
   LPAW   =        T    paw PP                                                                      
   EAUG   =  322.069                                                                                
   DEXC   =    0.000                                                                                
   RMAX   =    1.950    core radius for proj-oper                                                   
   RAUG   =    1.300    factor for augmentation sphere                                              
   RDEP   =    1.993    radius for radial grids                                                     
   RDEPT  =    1.837    core radius for aug-charge                                                  
                                                                                                    
   Atomic configuration                                                                             
    6 entries                                                                                       
     n  l   j            E        occ.                                                              
     1  0  0.50     -1785.8828   2.0000                                                             
     2  0  0.50      -139.4969   2.0000                                                             
     2  1  1.50       -95.5546   6.0000                                                             
     3  0  0.50       -10.8127   2.0000                                                             
     3  1  0.50        -4.0811   2.0000                                                             
     3  2  1.50        -4.0817   0.0000                                                             
   Description                                                                                      
     l       E           TYP  RCUT    TYP  RCUT                                                     
     0    -10.8127223     23  1.900                                                                 
     0     -7.6451159     23  1.900                                                                 
     1     -4.0811372     23  1.900                                                                 
     1      2.4879257     23  1.900                                                                 
     2     -4.0817478      7  1.900                                                                 
  local pseudopotential read in
  partial core-charges read in
  partial kinetic energy density read in
  atomic valenz-charges read in
  non local Contribution for L=           0  read in
    real space projection operators read in
  non local Contribution for L=           0  read in
    real space projection operators read in
  non local Contribution for L=           1  read in
    real space projection operators read in
  non local Contribution for L=           1  read in
    real space projection operators read in
    PAW grid and wavefunctions read in

   number of l-projection  operators is LMAX  =           4
   number of lm-projection operators is LMMAX =           8

 -----------------------------------------------------------------------------
|                                                                             |
|               ----> ADVICE to this user running VASP <----                  |
|                                                                             |
|     You have a (more or less) 'large supercell' and for larger cells it     |
|     might be more efficient to use real-space projection operators.         |
|     Therefore, try LREAL= Auto in the INCAR file.                           |
|     Mind: For very accurate calculation, you might also keep the            |
|     reciprocal projection scheme (i.e. LREAL=.FALSE.).                      |
|                                                                             |
 -----------------------------------------------------------------------------

 -----------------------------------------------------------------------------
|                                                                             |
|               ----> ADVICE to this user running VASP <----                  |
|                                                                             |
|     You enforced a specific xc type in the INCAR file but a different       |
|     type was found in the POTCAR file.                                      |
|     I HOPE YOU KNOW WHAT YOU ARE DOING!                                     |
|                                                                             |
 -----------------------------------------------------------------------------

  PAW_PBE H 15Jun2001                   :
 energy of atom  1       EATOM=  -12.4884
 kinetic energy error for atom=    0.0000 (will be added to EATOM!!)
  PAW_PBE Si 05Jan2001                  :
 energy of atom  2       EATOM= -103.0669
 kinetic energy error for atom=    0.0001 (will be added to EATOM!!)


 POSCAR:  H Si
  positions in cartesian coordinates
  No initial velocities read in


 exchange-correlation table for SCAN
   RHO(1)=    0.500       N(1)  =     2000
   RHO(2)=  100.500       N(2)  =     4000



--------------------------------------------------------------------------------------------------------


 ion  position               nearest neighbor table
   1  0.886  0.762  0.407-  83 1.68  14 1.76
   2  0.286  0.831  0.674-  64 1.49
   3  0.746  0.709  0.489-  95 1.51
   4  0.905  0.777  0.486-  72 1.49
   5  0.953  0.549  0.477-  60 1.50
   6  0.756  0.430  0.599-  42 1.63  36 1.76
   7  0.107  0.821  0.456-  24 1.63  90 1.72
   8  0.178  0.013  0.422-  50 1.50
   9  0.860  0.591  0.408-  40 1.49
  10  0.946  0.393  0.554-  42 2.29  52 2.32  74 2.33  82 2.36
  11  0.500  0.175  0.397-  80 2.32  73 2.33  48 2.38  70 2.45
  12  0.065  0.690  0.533-  24 2.27  72 2.29  60 2.31 100 2.32  69 2.97
  13  0.347  0.266  0.486-  28 2.31  56 2.32  55 2.36  73 2.41
  14  0.817  0.856  0.421-   1 1.76  95 2.39  85 2.48  77 2.63
  15  0.146  0.342  0.614-  88 2.31  74 2.39  17 2.40
  16  0.219  0.207  0.372-  55 2.32  70 2.35  92 2.49
  17  0.191  0.478  0.572-  94 2.33  23 2.37 100 2.37  15 2.40
  18  0.588  0.941  0.373-  48 2.27  85 2.31  75 2.34
  19  0.898  0.039  0.549-  57 2.29  98 2.36  22 2.37  99 2.37
  20  0.392  0.060  0.623-  96 2.30  84 2.31  32 2.33  62 2.51
  21  0.071  0.613  0.395-  38 2.29  60 2.32  83 2.33  89 2.33
  22  0.882  0.888  0.579-  72 2.34  19 2.37  63 2.45  67 2.46
  23  0.149  0.461  0.493-  82 2.31  60 2.34  17 2.37 101 2.40
  24  0.151  0.811  0.508-   7 1.63  12 2.27  65 2.28  30 2.32
  25  0.147  0.960  0.618-  30 2.33  32 2.36  64 2.36  67 2.40
  26  0.502  0.336  0.576-  62 2.31  56 2.33  93 2.34  61 2.37
  27  0.595  0.685  0.388-  91 2.30  53 2.35  29 2.41  85 2.45
  28  0.233  0.190  0.528-  41 2.30  13 2.31  87 2.37  88 2.37
  29  0.462  0.592  0.370-  34 2.35  43 2.35  27 2.41  91 3.03
  30  0.136  0.960  0.537-  41 2.31  24 2.32  25 2.33  57 2.34
  31  0.535  0.421  0.476-  97 2.32  56 2.33  43 2.34  93 2.38
  32  0.239  0.083  0.645-  20 2.33  88 2.34  25 2.36
  33  0.008  0.358  0.406-  37 2.31  89 2.34  82 2.35  92 2.38
  34  0.328  0.585  0.415-  38 2.28  76 2.34  29 2.35 101 2.36
  35  0.365  0.825  0.572-  84 2.34  65 2.35  71 2.36  64 2.38
  36  0.693  0.496  0.640-   6 1.76  39 2.30  61 2.32
  37  0.851  0.376  0.397-  47 2.25  33 2.31  40 2.33
  38  0.213  0.680  0.390-  54 2.26  34 2.28  21 2.29
  39  0.719  0.642  0.611-  51 2.27  78 2.30  36 2.30
  40  0.798  0.517  0.426-   9 1.49  91 2.30  37 2.33  66 2.38
  41  0.269  0.037  0.516-  28 2.30  50 2.31  30 2.31  84 2.33
  42  0.789  0.398  0.547-   6 1.63  10 2.29  81 2.33  66 2.33
  43  0.531  0.455  0.396-  91 2.31  80 2.33  31 2.34  29 2.35
  44  0.936  0.098  0.391-  77 2.30  79 2.43  92 2.50
  45  0.333  0.868  0.431-  50 2.32  65 2.36  75 2.37  54 2.39
  46  0.511  0.669  0.510-  53 2.31  71 2.33  97 2.34  76 2.35
  47  0.793  0.264  0.443-  37 2.25  79 2.28  81 2.32  99 3.14
  48  0.637  0.088  0.383-  18 2.27  11 2.38  79 2.41
  49  0.511  0.015  0.499-  84 2.32  59 2.35  73 2.41  75 2.42
  50  0.277  0.016  0.436-   8 1.50  70 2.30  41 2.31  45 2.32
  51  0.632  0.772  0.611-  39 2.27  71 2.33  63 2.35
  52  0.952  0.529  0.597- 100 2.31  10 2.32  78 2.34
  53  0.572  0.773  0.457-  46 2.31  95 2.33  75 2.34  27 2.35
  54  0.229  0.829  0.370-  38 2.26  45 2.39  90 2.41
  55  0.312  0.314  0.409-  16 2.32 101 2.33  13 2.36  80 2.37  70 3.10
  56  0.403  0.399  0.521-  13 2.32  31 2.33  26 2.33  94 2.35  93 3.13
  57  0.019  0.039  0.497-  19 2.29  30 2.34  77 2.44  87 2.45
  58  0.437  0.581  0.617-  61 2.32  94 2.35  71 2.37
  59  0.647  0.012  0.543-  99 2.34  68 2.35  49 2.35  63 2.38
  60  0.050  0.582  0.474-   5 1.50  12 2.31  21 2.32  23 2.34
  61  0.558  0.484  0.597-  36 2.32  58 2.32  26 2.37  97 2.41
  62  0.414  0.231  0.617-  26 2.31  96 2.34  88 2.35  20 2.51
  63  0.717  0.868  0.562-  51 2.35  59 2.38  95 2.40  22 2.45
  64  0.243  0.830  0.627-   2 1.49  69 2.33  25 2.36  35 2.38
  65  0.304  0.780  0.499-  24 2.28  76 2.32  35 2.35  45 2.36
  66  0.761  0.535  0.506-  42 2.33  97 2.35  78 2.37  40 2.38
  67  0.009  0.875  0.635-  69 2.37  25 2.40  22 2.46
  68  0.629  0.124  0.602-  86 2.32  59 2.35  96 2.36
  69  0.107  0.745  0.631-  64 2.33 100 2.33  67 2.37  12 2.97
  70  0.347  0.110  0.382-  50 2.30  16 2.35  11 2.45  55 3.10
  71  0.488  0.723  0.586-  46 2.33  51 2.33  35 2.36  58 2.37
  72  0.923  0.757  0.536-   4 1.49  12 2.29  22 2.34  78 2.36
  73  0.484  0.173  0.478-  93 2.33  11 2.33  49 2.41  13 2.41
  74  0.021  0.260  0.578-  10 2.33  98 2.39  15 2.39  87 2.57  82 2.95
  75  0.492  0.905  0.436-  18 2.34  53 2.34  45 2.37  49 2.42
  76  0.359  0.630  0.492-  65 2.32  34 2.34  46 2.35  94 2.37
  77  0.965  0.960  0.427-  44 2.30  90 2.37  57 2.44  14 2.63
  78  0.843  0.625  0.562-  39 2.30  52 2.34  72 2.36  66 2.37
  79  0.781  0.113  0.422-  47 2.28  99 2.41  48 2.41  44 2.43
  80  0.458  0.321  0.372-  11 2.32  43 2.33  55 2.37
  81  0.738  0.257  0.519-  93 2.30  47 2.32  42 2.33  86 2.41  99 2.54
  82  0.032  0.354  0.487-  23 2.31  33 2.35  10 2.36  87 2.41  74 2.95  92 3.12
  83  0.980  0.738  0.374-   1 1.68  90 2.32  21 2.33
  84  0.399  0.978  0.554-  20 2.31  49 2.32  41 2.33  35 2.34
  85  0.688  0.819  0.367-  18 2.31  27 2.45  14 2.48
  86  0.773  0.193  0.595-  68 2.32  98 2.35  81 2.41  99 3.01
  87  0.080  0.197  0.500-  28 2.37  82 2.41  57 2.45  74 2.57  92 2.58
  88  0.254  0.226  0.608-  15 2.31  32 2.34  62 2.35  28 2.37
  89  0.106  0.465  0.370-  21 2.33  33 2.34 101 2.37
  90  0.076  0.854  0.400-   7 1.72  83 2.32  77 2.37  54 2.41
  91  0.662  0.542  0.386-  27 2.30  40 2.30  43 2.31  29 3.03
  92  0.065  0.205  0.410-  33 2.38  16 2.49  44 2.50  87 2.58  82 3.12
  93  0.582  0.281  0.511-  81 2.30  73 2.33  26 2.34  31 2.38  56 3.13
  94  0.340  0.529  0.557-  17 2.33  56 2.35  58 2.35  76 2.37
  95  0.720  0.808  0.484-   3 1.51  53 2.33  14 2.39  63 2.40
  96  0.513  0.133  0.659-  20 2.30  62 2.34  68 2.36
  97  0.602  0.537  0.520-  31 2.32  46 2.34  66 2.35  61 2.41
  98  0.924  0.144  0.611-  86 2.35  19 2.36  74 2.39
  99  0.768  0.087  0.505-  59 2.34  19 2.37  79 2.41  81 2.54  86 3.01  47 3.14
 100  0.094  0.599  0.598-  52 2.31  12 2.32  69 2.33  17 2.37
 101  0.234  0.452  0.421-  55 2.33  34 2.36  89 2.37  23 2.40

  LATTYP: Found a simple tetragonal cell.
 ALAT       =    14.5353600448
 C/A-ratio  =     1.9663565204
  
  Lattice vectors:
  
 A1 = (  14.5353600448,   0.0000000000,   0.0000000000)
 A2 = (   0.0000000000,  14.5353600448,   0.0000000000)
 A3 = (   0.0000000000,   0.0000000000,  28.5817000000)


Analysis of symmetry for initial positions (statically):
=====================================================================
 Subroutine PRICEL returns:
 Original cell was already a primitive cell.
 

 Routine SETGRP: Setting up the symmetry group for a 
 simple tetragonal supercell.


 Subroutine GETGRP returns: Found  1 space group operations
 (whereof  1 operations were pure point group operations)
 out of a pool of 16 trial point group operations.


The static configuration has the point symmetry C_1 .


Analysis of symmetry for dynamics (positions and initial velocities):
=====================================================================
 Subroutine PRICEL returns:
 Original cell was already a primitive cell.
 

 Routine SETGRP: Setting up the symmetry group for a 
 simple tetragonal supercell.


 Subroutine GETGRP returns: Found  1 space group operations
 (whereof  1 operations were pure point group operations)
 out of a pool of 16 trial point group operations.


The dynamic configuration has the point symmetry C_1 .


 Subroutine INISYM returns: Found  1 space group operations
 (whereof  1 operations are pure point group operations),
 and found     1 'primitive' translations


----------------------------------------------------------------------------------------

                                     Primitive cell                                     

  volume of cell :    6038.6470

  direct lattice vectors                    reciprocal lattice vectors
    14.535360045  0.000000000  0.000000000     0.068797745  0.000000000  0.000000000
     0.000000000 14.535360045  0.000000000     0.000000000  0.068797745  0.000000000
     0.000000000  0.000000000 28.581700000     0.000000000  0.000000000  0.034987422

  length of vectors
    14.535360045 14.535360045 28.581700000     0.068797745  0.068797745  0.034987422

  position of ions in fractional coordinates (direct lattice)
     0.886361645  0.761554527  0.406999638
     0.285927633  0.830998540  0.674273722
     0.746265376  0.708522017  0.489241731
     0.904905522  0.776763469  0.485515615
     0.952834740  0.548575903  0.477276029
     0.756216117  0.430424686  0.599009082
     0.107111847  0.821463018  0.455710543
     0.177967432  0.013044082  0.421920411
     0.860395756  0.591027049  0.408493974
     0.946032669  0.393070644  0.554117194
     0.500424776  0.174801590  0.396740900
     0.065237067  0.690216621  0.532954080
     0.346631805  0.265604648  0.485838422
     0.816537514  0.856365876  0.420690427
     0.145970240  0.341642106  0.613886613
     0.218796346  0.206607576  0.371748942
     0.191084067  0.477889670  0.572054825
     0.587652453  0.941292562  0.372741634
     0.898398684  0.039466374  0.548704847
     0.391858366  0.059611732  0.623074071
     0.070601551  0.612731533  0.395079078
     0.881743570  0.888401722  0.578526828
     0.149066277  0.460583647  0.492541268
     0.151117172  0.810726763  0.508067629
     0.146846267  0.959805967  0.618085523
     0.501942706  0.336322659  0.576388108
     0.594545201  0.685257402  0.388376489
     0.233282349  0.189884699  0.527693569
     0.462268816  0.591519131  0.370186107
     0.135617340  0.959596897  0.536631841
     0.535060446  0.421443309  0.476212926
     0.239259160  0.082704913  0.644612409
     0.007796700  0.358230098  0.405749867
     0.327571042  0.584879355  0.415360325
     0.364601582  0.825135764  0.571713675
     0.692653436  0.495862860  0.639689554
     0.850549998  0.375836349  0.397341681
     0.212774477  0.680382643  0.390479170
     0.718821746  0.641730705  0.611035696
     0.798119829  0.516703150  0.425614021
     0.268753032  0.037037374  0.516172267
     0.789406065  0.398350051  0.546864131
     0.531228331  0.454699440  0.396279954
     0.936010613  0.098380391  0.390764832
     0.333219829  0.867656551  0.431334116
     0.511485243  0.669288064  0.509920495
     0.792752759  0.263674780  0.443175304
     0.636573049  0.088260817  0.382907159
     0.510670274  0.014607691  0.498697983
     0.276896998  0.016357113  0.436277474
     0.632405887  0.771631096  0.611410080
     0.951777042  0.528817049  0.596753023
     0.572251756  0.772505998  0.456616277
     0.228936083  0.829141661  0.369610662
     0.311613585  0.313931048  0.408963511
     0.402615485  0.398644720  0.520727117
     0.019105512  0.039496528  0.497174059
     0.437430410  0.581158213  0.616937990
     0.647134503  0.011517662  0.543069443
     0.049977729  0.582238212  0.473938774
     0.557991147  0.484037363  0.596753597
     0.414254116  0.230776817  0.617444649
     0.717428777  0.868382824  0.561629605
     0.242668184  0.829521105  0.627125941
     0.304008980  0.779612895  0.499202823
     0.761179201  0.534820099  0.506247849
     0.009069605  0.875115569  0.634601634
     0.628998967  0.124008852  0.601568493
     0.106888346  0.744838063  0.630789229
     0.347155096  0.110287052  0.382091596
     0.487867719  0.723388809  0.585656019
     0.922571580  0.756644727  0.535985195
     0.483677242  0.173154612  0.477845201
     0.021091762  0.260021353  0.578414882
     0.491685814  0.905434259  0.435668831
     0.358635581  0.630490382  0.492356213
     0.964516720  0.959853110  0.427128419
     0.842571014  0.624990647  0.561682422
     0.781279053  0.113009168  0.422069601
     0.457512160  0.320823636  0.372125393
     0.738124921  0.256502939  0.519429221
     0.032052429  0.353593313  0.486962884
     0.979534992  0.737792861  0.374225936
     0.398896321  0.978446075  0.553655224
     0.688423751  0.818945564  0.366617760
     0.772502987  0.193374891  0.595356749
     0.079504953  0.196539745  0.500122459
     0.254029364  0.225682569  0.608043686
     0.106115214  0.464549717  0.369802287
     0.076342046  0.854269784  0.399912200
     0.662278548  0.542459322  0.386369180
     0.065322008  0.204896132  0.410205767
     0.582262969  0.280781565  0.511282532
     0.339614352  0.529339574  0.556803768
     0.719645760  0.807985337  0.483579573
     0.512945970  0.133218995  0.659180483
     0.602070649  0.537347483  0.520240077
     0.923711569  0.143996001  0.610605466
     0.768298403  0.086876145  0.504973294
     0.094206257  0.598873737  0.597830651
     0.234419332  0.452387900  0.420582634

  ion indices of the primitive-cell ions
   primitive index   ion index
                 1           1
                 2           2
                 3           3
                 4           4
                 5           5
                 6           6
                 7           7
                 8           8
                 9           9
                10          10
                11          11
                12          12
                13          13
                14          14
                15          15
                16          16
                17          17
                18          18
                19          19
                20          20
                21          21
                22          22
                23          23
                24          24
                25          25
                26          26
                27          27
                28          28
                29          29
                30          30
                31          31
                32          32
                33          33
                34          34
                35          35
                36          36
                37          37
                38          38
                39          39
                40          40
                41          41
                42          42
                43          43
                44          44
                45          45
                46          46
                47          47
                48          48
                49          49
                50          50
                51          51
                52          52
                53          53
                54          54
                55          55
                56          56
                57          57
                58          58
                59          59
                60          60
                61          61
                62          62
                63          63
                64          64
                65          65
                66          66
                67          67
                68          68
                69          69
                70          70
                71          71
                72          72
                73          73
                74          74
                75          75
                76          76
                77          77
                78          78
                79          79
                80          80
                81          81
                82          82
                83          83
                84          84
                85          85
                86          86
                87          87
                88          88
                89          89
                90          90
                91          91
                92          92
                93          93
                94          94
                95          95
                96          96
                97          97
                98          98
                99          99
               100         100
               101         101

----------------------------------------------------------------------------------------


 -----------------------------------------------------------------------------
|                                                                             |
|           W    W    AA    RRRRR   N    N  II  N    N   GGGG   !!!           |
|           W    W   A  A   R    R  NN   N  II  NN   N  G    G  !!!           |
|           W    W  A    A  R    R  N N  N  II  N N  N  G       !!!           |
|           W WW W  AAAAAA  RRRRR   N  N N  II  N  N N  G  GGG   !            |
|           WW  WW  A    A  R   R   N   NN  II  N   NN  G    G                |
|           W    W  A    A  R    R  N    N  II  N    N   GGGG   !!!           |
|                                                                             |
|     The requested file  could not be found or opened for reading            |
|     k-point information. Automatic k-point generation is used as a          |
|     fallback, which may lead to unwanted results.                           |
|                                                                             |
 -----------------------------------------------------------------------------



Automatic generation of k-mesh.
 Grid dimensions derived from KSPACING:
 generate k-points for:    2    2    1

 Generating k-lattice:

  Cartesian coordinates                     Fractional coordinates (reciprocal lattice)
     0.034398873  0.000000000  0.000000000     0.500000000  0.000000000  0.000000000
     0.000000000  0.034398873  0.000000000     0.000000000  0.500000000  0.000000000
     0.000000000  0.000000000  0.034987422     0.000000000  0.000000000  1.000000000

  Length of vectors
     0.034398873  0.034398873  0.034987422

  Shift w.r.t. Gamma in fractional coordinates (k-lattice)
     0.000000000  0.000000000  0.000000000

 
 Subroutine IBZKPT returns following result:
 ===========================================
 
 Found      4 irreducible k-points:
 
 Following reciprocal coordinates:
            Coordinates               Weight
  0.000000  0.000000  0.000000      1.000000
  0.500000  0.000000  0.000000      1.000000
  0.000000  0.500000  0.000000      1.000000
  0.500000  0.500000  0.000000      1.000000
 
 Following cartesian coordinates:
            Coordinates               Weight
  0.000000  0.000000  0.000000      1.000000
  0.034399  0.000000  0.000000      1.000000
  0.000000  0.034399  0.000000      1.000000
  0.034399  0.034399  0.000000      1.000000
 


--------------------------------------------------------------------------------------------------------




 Dimension of arrays:
   k-points           NKPTS =      4   k-points in BZ     NKDIM =      4   number of bands    NBANDS=    240
   number of dos      NEDOS =   2000   number of ions     NIONS =    101
   non local maximal  LDIM  =      4   non local SUM 2l+1 LMDIM =      8
   total plane-waves  NPLWV = ******
   max r-space proj   IRMAX =      1   max aug-charges    IRDMAX= 405207
   dimension x,y,z NGX =   168 NGY =  168 NGZ =  324
   dimension x,y,z NGXF=   336 NGYF=  336 NGZF=  648
   support grid    NGXF=   672 NGYF=  672 NGZF= 1296
   ions per type =               9  92
   NGX,Y,Z   is equivalent  to a cutoff of  19.21, 19.21, 18.85 a.u.
   NGXF,Y,Z  is equivalent  to a cutoff of  38.43, 38.43, 37.69 a.u.

 SYSTEM =  a-Si SPC                                
 POSCAR =   H Si                                   

 Startparameter for this run:
   NWRITE =      2    write-flag & timer
   PREC   = accura    normal or accurate (medium, high low for compatibility)
   ISTART =      1    job   : 0-new  1-cont  2-samecut
   ICHARG =      1    charge: 1-file 2-atom 10-const
   ISPIN  =      1    spin polarized calculation?
   LNONCOLLINEAR =      F non collinear calculations
   LSORBIT =      F    spin-orbit coupling
   INIWAV =      1    electr: 0-lowe 1-rand  2-diag
   LASPH  =      T    aspherical Exc in radial PAW
 Electronic Relaxation 1
   ENCUT  = 1200.0 eV  88.20 Ry    9.39 a.u.  41.06 41.06 80.73*2*pi/ulx,y,z
   ENINI  = 1200.0     initial cutoff
   ENAUG  =  400.0 eV  augmentation charge cutoff
   NELM   =    150;   NELMIN=  2; NELMDL=  0     # of ELM steps 
   EDIFF  = 0.1E-05   stopping-criterion for ELM
   LREAL  =      F    real-space projection
   NLSPLINE    = F    spline interpolate recip. space projectors
   LCOMPAT=      F    compatible to vasp.4.4
   GGA_COMPAT  = T    GGA compatible to vasp.4.4-vasp.4.6
   LMAXPAW     = -100 max onsite density
   LMAXMIX     =    2 max onsite mixed and CHGCAR
   VOSKOWN=      0    Vosko Wilk Nusair interpolation
   ROPT   =    0.00000   0.00000
 Ionic relaxation
   EDIFFG = -.1E-01   stopping-criterion for IOM
   NSW    =      0    number of steps for IOM
   NBLOCK =      1;   KBLOCK =      1    inner block; outer block 
   IBRION =     -1    ionic relax: 0-MD 1-quasi-New 2-CG
   NFREE  =      0    steps in history (QN), initial steepest desc. (CG)
   ISIF   =      2    stress and relaxation
   IWAVPR =     10    prediction:  0-non 1-charg 2-wave 3-comb
   ISYM   =      1    0-nonsym 1-usesym 2-fastsym
   LCORR  =      T    Harris-Foulkes like correction to forces

   POTIM  = 0.5000    time-step for ionic-motion
   TEIN   =    0.0    initial temperature
   TEBEG  =    0.0;   TEEND  =   0.0 temperature during run
   SMASS  =  -3.00    Nose mass-parameter (am)
   estimated Nose-frequenzy (Omega)   =  0.10E-29 period in steps = 0.13E+47 mass=  -0.483E-26a.u.
   SCALEE = 1.0000    scale energy and forces
   NPACO  =    256;   APACO  = 10.0  distance and # of slots for P.C.
   PSTRESS=    0.0 pullay stress

  Mass of Ions in am
   POMASS =   1.00 28.09
  Ionic Valenz
   ZVAL   =   1.00  4.00
  Atomic Wigner-Seitz radii
   RWIGS  =  -1.00 -1.00
  virtual crystal weights 
   VCA    =   1.00  1.00
   NELECT =     377.0000    total number of electrons
   NUPDOWN=      -1.0000    fix difference up-down

 DOS related values:
   EMIN   =  10.00;   EMAX   =-10.00  energy-range for DOS
   EFERMI =   0.00;   METHOD = LEGACY      
   ISMEAR =     0;   SIGMA  =   0.10  broadening in eV -4-tet -1-fermi 0-gaus
   EFERMI_NEDOS =   21; number of points for ismear=-14 and -15

 Electronic relaxation 2 (details)
   IALGO  =     38    algorithm
   LDIAG  =      F    sub-space diagonalisation (order eigenvalues)
   LSUBROT=      F    optimize rotation matrix (better conditioning)
   TURBO    =      0    0=normal 1=particle mesh
   IRESTART =      0    0=no restart 2=restart with 2 vectors
   NREBOOT  =      0    no. of reboots
   NMIN     =      0    reboot dimension
   EREF     =   0.00    reference energy to select bands
   IMIX   =      4    mixing-type and parameters
     AMIX     =   0.40;   BMIX     =  1.00
     AMIX_MAG =   1.60;   BMIX_MAG =  1.00
     AMIN     =   0.10
     WC   =   100.;   INIMIX=   1;  MIXPRE=   1;  MAXMIX= -45

 Intra band minimization:
   WEIMIN = 0.0000     energy-eigenvalue tresh-hold
   EBREAK =  0.10E-08  absolut break condition
   DEPER  =   0.30     relativ break condition  

   TIME   =   0.40     timestep for ELM

  volume/ion in A,a.u.               =      59.79       403.47
  Fermi-wavevector in a.u.,A,eV,Ry     =   0.649445  1.227272  5.738641  0.421778
  Thomas-Fermi vector in A             =   1.718403

 Write flags
   LWAVE        =      F    write WAVECAR
   LDOWNSAMPLE  =      F    k-point downsampling of WAVECAR
   LCHARG       =      F    write CHGCAR
   LVTOT        =      F    write LOCPOT, total local potential
   LVHAR        =      F    write LOCPOT, Hartree potential only
   WRT_POTENTIAL= false  ! write potential to hdf5 file
   LELF         =      F    write electronic localiz. function (ELF)
   LORBIT       =     11    0 simple, 1 ext, 2 COOP (PROOUT), +10 PAW based schemes


 Python interface
   PLUGINS active      =      F    recompile with -DPLUGINS to activate

 Dipole corrections
   LMONO      =      F    monopole corrections only (constant potential shift)
   LDIPOL     =      F    correct potential (dipole corrections)
   IDIPOL     =      0    1-x, 2-y, 3-z, 4-all directions 
   EPSILON    =  1.0000000 bulk dielectric constant
   LVACPOTAV  =      F  vacuum potentials using an averaging scheme for the charge density
   VACPOTFLAT =  0.1000000 required flatness to determine vacuum potential

Coulomb truncation method
  LTRUNCATE          =      F  Coulomb kernel truncation to be used
  IDIMENSIONALITY    =      3  Dimensionality of cutoff (0 molecules / 2 surfaces)
  ISURFACE           =     -1  Direction of surface normal
  LCOARSEN           =      F  Coarsen the charge grid before padding, preferred


 Exchange correlation treatment:
   METAGGA = SCAN    functional components
   XC_C    = 1    coefficients multiplying the functional components
   LIBXC   =     F    Libxc                    
   VOSKOWN =     0    Vosko Wilk Nusair interpolation
   LHFCALC =     F    Hartree Fock is set to
   LHFONE  =     F    Hartree Fock one center treatment
   AEXX    =    0.0000 exact exchange contribution

 Parameters of functionals:
   SCAN:
     P1 =  0.000000E+00
     P2 =  0.000000E+00
     P3 =  0.000000E+00

 Accuracy and mixing parameters for tau-dependent meta-GGA functionals:
   LMAXTAU = 6
   LMIXTAU = T

 Van der Waals corrections
   IVDW    =     0    specifies the selected vdW correction

 Linear response parameters
   LEPSILON=     F    determine dielectric tensor
   LRPA    =     F    only Hartree local field effects (RPA)
   LNABLA  =     F    use nabla operator in PAW spheres
   LVEL    =     F    velocity operator in full k-point grid
   CSHIFT  =0.1000    complex shift for real part using Kramers Kronig
   OMEGAMAX=  -1.0    maximum frequency
   DEG_THRESHOLD= 0.2000000E-02 threshold for treating states as degnerate
   RTIME   =   -0.100 relaxation time in fs
  (WPLASMAI=    0.000 imaginary part of plasma frequency in eV, 0.658/RTIME)
   DFIELD  = 0.0000000 0.0000000 0.0000000 field for delta impulse in time

  Optional k-point grid parameters
   LKPOINTS_OPT  =     F    use optional k-point grid
   KPOINTS_OPT_MODE=     1    mode for optional k-point grid

 Orbital magnetization related:
   ORBITALMAG=     F  switch on orbital magnetization
   LCHIMAG   =     F  perturbation theory with respect to B field
   DQ        =  0.001000  dq finite difference perturbation B field
   LLRAUG    =     F  two centre corrections for induced B field
   LBONE     =     F  B-component reconstruction in AE one-centre
   LVGVCALC  =     T  calculate vGv susceptibility
   LVGVAPPL  =     F  apply vGv susceptibility instead of pGv for G=0

 Random number generation:
   RANDOM_GENERATOR = DEFAULT
   PCG_SEED         = not used


--------------------------------------------------------------------------------------------------------


 Static calculation
 charge density and potential will be updated during run
 non-spin polarized calculation
 Variant of blocked Davidson
 perform Loewdin sub-space diagonalisation
    ordering is kept fixed
    before iterative eigenvector-optimisation
 modified Broyden-mixing scheme, WC =      100.0
 initial mixing is a Kerker type mixing with AMIX =  0.4000 and BMIX =      1.0000
 Hartree-type preconditioning will be used
 using additional bands           51
 reciprocal scheme for non local part
 use partial core corrections
 calculate Harris-corrections to forces   (improved forces if not selfconsistent)
 use gradient corrections 
 use of overlap-Matrix (Vanderbilt PP)
 Gauss-broadening in eV      SIGMA  =   0.10


--------------------------------------------------------------------------------------------------------


  energy-cutoff  :     1200.00
  volume of cell :     6038.65
      direct lattice vectors                 reciprocal lattice vectors
    14.535360045  0.000000000  0.000000000     0.068797745  0.000000000  0.000000000
     0.000000000 14.535360045  0.000000000     0.000000000  0.068797745  0.000000000
     0.000000000  0.000000000 28.581700000     0.000000000  0.000000000  0.034987422

  length of vectors
    14.535360045 14.535360045 28.581700000     0.068797745  0.068797745  0.034987422



 old parameters found on file WAVECAR:
  energy-cutoff  :     1200.00
  volume of cell :     6038.65
      direct lattice vectors                 reciprocal lattice vectors
    14.535360045  0.000000000  0.000000000     0.068797745  0.000000000  0.000000000
     0.000000000 14.535360045  0.000000000     0.000000000  0.068797745  0.000000000
     0.000000000  0.000000000 28.581700000     0.000000000  0.000000000  0.034987422

  length of vectors


 k-points in units of 2pi/SCALE and weight: read from INCAR                         
   0.00000000  0.00000000  0.00000000       0.250
   0.03439887  0.00000000  0.00000000       0.250
   0.00000000  0.03439887  0.00000000       0.250
   0.03439887  0.03439887  0.00000000       0.250

 k-points in reciprocal lattice and weights: read from INCAR                         
   0.00000000  0.00000000  0.00000000       0.250
   0.50000000  0.00000000  0.00000000       0.250
   0.00000000  0.50000000  0.00000000       0.250
   0.50000000  0.50000000  0.00000000       0.250

 position of ions in fractional coordinates (direct lattice) 
   0.88636165  0.76155453  0.40699964
   0.28592763  0.83099854  0.67427372
   0.74626538  0.70852202  0.48924173
   0.90490552  0.77676347  0.48551561
   0.95283474  0.54857590  0.47727603
   0.75621612  0.43042469  0.59900908
   0.10711185  0.82146302  0.45571054
   0.17796743  0.01304408  0.42192041
   0.86039576  0.59102705  0.40849397
   0.94603267  0.39307064  0.55411719
   0.50042478  0.17480159  0.39674090
   0.06523707  0.69021662  0.53295408
   0.34663181  0.26560465  0.48583842
   0.81653751  0.85636588  0.42069043
   0.14597024  0.34164211  0.61388661
   0.21879635  0.20660758  0.37174894
   0.19108407  0.47788967  0.57205482
   0.58765245  0.94129256  0.37274163
   0.89839868  0.03946637  0.54870485
   0.39185837  0.05961173  0.62307407
   0.07060155  0.61273153  0.39507908
   0.88174357  0.88840172  0.57852683
   0.14906628  0.46058365  0.49254127
   0.15111717  0.81072676  0.50806763
   0.14684627  0.95980597  0.61808552
   0.50194271  0.33632266  0.57638811
   0.59454520  0.68525740  0.38837649
   0.23328235  0.18988470  0.52769357
   0.46226882  0.59151913  0.37018611
   0.13561734  0.95959690  0.53663184
   0.53506045  0.42144331  0.47621293
   0.23925916  0.08270491  0.64461241
   0.00779670  0.35823010  0.40574987
   0.32757104  0.58487936  0.41536033
   0.36460158  0.82513576  0.57171368
   0.69265344  0.49586286  0.63968955
   0.85055000  0.37583635  0.39734168
   0.21277448  0.68038264  0.39047917
   0.71882175  0.64173071  0.61103570
   0.79811983  0.51670315  0.42561402
   0.26875303  0.03703737  0.51617227
   0.78940607  0.39835005  0.54686413
   0.53122833  0.45469944  0.39627995
   0.93601061  0.09838039  0.39076483
   0.33321983  0.86765655  0.43133412
   0.51148524  0.66928806  0.50992049
   0.79275276  0.26367478  0.44317530
   0.63657305  0.08826082  0.38290716
   0.51067027  0.01460769  0.49869798
   0.27689700  0.01635711  0.43627747
   0.63240589  0.77163110  0.61141008
   0.95177704  0.52881705  0.59675302
   0.57225176  0.77250600  0.45661628
   0.22893608  0.82914166  0.36961066
   0.31161359  0.31393105  0.40896351
   0.40261549  0.39864472  0.52072712
   0.01910551  0.03949653  0.49717406
   0.43743041  0.58115821  0.61693799
   0.64713450  0.01151766  0.54306944
   0.04997773  0.58223821  0.47393877
   0.55799115  0.48403736  0.59675360
   0.41425412  0.23077682  0.61744465
   0.71742878  0.86838282  0.56162961
   0.24266818  0.82952111  0.62712594
   0.30400898  0.77961290  0.49920282
   0.76117920  0.53482010  0.50624785
   0.00906961  0.87511557  0.63460163
   0.62899897  0.12400885  0.60156849
   0.10688835  0.74483806  0.63078923
   0.34715510  0.11028705  0.38209160
   0.48786772  0.72338881  0.58565602
   0.92257158  0.75664473  0.53598520
   0.48367724  0.17315461  0.47784520
   0.02109176  0.26002135  0.57841488
   0.49168581  0.90543426  0.43566883
   0.35863558  0.63049038  0.49235621
   0.96451672  0.95985311  0.42712842
   0.84257101  0.62499065  0.56168242
   0.78127905  0.11300917  0.42206960
   0.45751216  0.32082364  0.37212539
   0.73812492  0.25650294  0.51942922
   0.03205243  0.35359331  0.48696288
   0.97953499  0.73779286  0.37422594
   0.39889632  0.97844607  0.55365522
   0.68842375  0.81894556  0.36661776
   0.77250299  0.19337489  0.59535675
   0.07950495  0.19653975  0.50012246
   0.25402936  0.22568257  0.60804369
   0.10611521  0.46454972  0.36980229
   0.07634205  0.85426978  0.39991220
   0.66227855  0.54245932  0.38636918
   0.06532201  0.20489613  0.41020577
   0.58226297  0.28078156  0.51128253
   0.33961435  0.52933957  0.55680377
   0.71964576  0.80798534  0.48357957
   0.51294597  0.13321899  0.65918048
   0.60207065  0.53734748  0.52024008
   0.92371157  0.14399600  0.61060547
   0.76829840  0.08687615  0.50497329
   0.09420626  0.59887374  0.59783065
   0.23441933  0.45238790  0.42058263

 position of ions in cartesian coordinates  (Angst):
  12.88358564 11.06946924 11.63274155
   4.15606109 12.07886298 19.27188925
  10.84723593 10.29862262 13.98336038
  13.15312757 11.29053669 13.87686164
  13.84979601  7.97374826 13.64136027
  10.99187353  6.25637778 17.12069787
   1.55690926 11.94026073 13.02498202
   2.58682070  0.18960043 12.05920261
  12.50616210  8.59079096 11.67545223
  13.75092546  5.71342333 15.83761140
   7.27385429  2.54080405 11.33952939
   0.94824426 10.03254709 15.23273363
   5.03841809  3.86065919 13.88608803
  11.86866675 12.44758634 12.02404757
   2.12173000  4.96589102 17.54592301
   3.18028367  3.00311550 10.62521673
   2.77747571  6.94629842 16.35029939
   8.54173999 13.68202629 10.65358956
  13.05854834  0.57365796 15.68291733
   5.69580244  0.86647799 17.80851618
   1.02621897  8.90627344 11.29203167
  12.81646025 12.91323890 16.53528023
   2.16673201  6.69474914 14.07766677
   2.19654250 11.78420540 14.52143655
   2.13446336 13.95112530 17.66593500
   7.29591795  4.88857094 16.47415199
   8.64192856  9.96046306 11.10046030
   3.39084294  2.76004247 15.08237927
   6.71924368  8.59794354 10.58054826
   1.97124687 13.94808639 15.33785029
   7.77729623  6.12583024 13.61097499
   3.47771804  1.20214569 18.42411848
   0.11332784  5.20700345 11.59702097
   4.76136303  8.50143201 11.87170421
   5.29961527 11.99364541 16.34054875
  10.06796708  7.20754521 18.28341492
  12.36305046  5.46291665 11.35670073
   3.09275363  9.88960669 11.16055849
  10.44833289  9.32778685 17.46443894
  11.60095908  7.51046632 12.16477226
   3.90642208  0.53835157 14.75308088
  11.47430138  5.79016141 15.63030653
   7.72159506  6.60922007 11.32635475
  13.60525126  1.42999440 11.16872321
   4.84347019 12.61170036 12.32826231
   7.43462216  9.72834298 14.57439461
  11.52294678  3.83260786 12.66670359
   9.25281846  1.28290276 10.94413755
   7.42277630  0.21232805 14.25363615
   4.02479756  0.23775653 12.46955187
   9.19224726 11.21593580 17.47513948
  13.83442199  7.68654620 17.05621589
   8.31788531 11.22865282 13.05086945
   3.32766839 12.05187257 10.56410105
   4.52941566  4.56310081 11.68887238
   5.85216104  5.79444454 14.88326625
   0.27770550  0.57409626 14.21007981
   6.35820850  8.44734387 17.63313655
   9.40633300  0.16741337 15.52184789
   0.72644428  8.46304204 13.54597585
   8.11060222  7.03565734 17.05623227
   6.02133272  3.35442413 17.64761772
  10.42808558 12.62225701 16.05232889
   3.52726943 12.05738793 17.92432550
   4.41887998 11.33195413 14.26806532
  11.06401374  7.77380270 14.46942416
   0.13182998 12.72011987 18.13799353
   9.14272645  1.80251331 17.19385021
   1.55366060 10.82648942 18.02902850
   5.04602431  1.60306201 10.92082737
   7.09133295 10.51471679 16.73904464
  13.40991008 10.99810354 15.31936806
   7.03042286  2.51686463 13.65762817
   0.30657636  3.77950399 16.53208063
   7.14683034 13.16081295 12.45215584
   5.21289730  9.16440470 14.07237756
  14.01959780 13.95181055 12.20805634
  12.24707305  9.08446408 16.05383847
  11.35617233  1.64262894 12.06346672
   6.65010397  4.66328706 10.63597634
  10.72891148  3.72836257 14.84617016
   0.46589360  5.13960611 13.91822707
  14.23789379 10.72408487 10.69601343
   5.79810165 14.22206598 15.82440753
  10.00648709 11.90366863 10.47855883
  11.22860905  2.81077367 17.01630798
   1.15563311  2.85677596 14.29435010
   3.69240827  3.28037739 17.37892222
   1.54242284  6.75239739 10.56957802
   1.10965912 12.41711889 11.43017052
   9.62645714  7.88484156 11.04308799
   0.94947891  2.97823905 11.72437817
   8.46340189  4.08126114 14.61332394
   4.93641688  7.69414129 15.91439826
  10.46031023 11.74435778 13.82152628
   7.45585436  1.93638605 18.84049882
   8.75131366  7.81053913 14.86934580
  13.42648024  2.09303372 17.45214226
  11.16749391  1.26277605 14.43299520
   1.36932186  8.70484539 17.08701633
   3.40736939  6.57562100 12.02096668



--------------------------------------------------------------------------------------------------------


 k-point     1 :   0.0000 0.0000 0.0000  plane waves:  569857
 k-point     2 :   0.5000 0.0000 0.0000  plane waves:  570026
 k-point     3 :   0.0000 0.5000 0.0000  plane waves:  570026
 k-point     4 :   0.5000 0.5000 0.0000  plane waves:  569924

 maximum and minimum number of plane-waves per node :     35686    35553

 maximum number of plane-waves:    570026
 maximum index in each direction: 
   IXMAX=   41   IYMAX=   41   IZMAX=   80
   IXMIN=  -41   IYMIN=  -41   IZMIN=  -80


 parallel 3D FFT for wavefunctions:
    minimum data exchange during FFTs selected (reduces bandwidth)
 parallel 3D FFT for charge:
    minimum data exchange during FFTs selected (reduces bandwidth)


 total amount of memory used by VASP MPI-rank0   369758. kBytes
=======================================================================

   base                                    :      30000. kBytes
   nonl-proj                               :      75892. kBytes
   fftplans                                :     110224. kBytes
   grid                                    :      85039. kBytes
   one-center                              :         21. kBytes
   wavefun                                 :      68582. kBytes

     INWAV:  cpu time     19.6889: real time     19.6999
 Broyden mixing: mesh for mixing (old mesh)
   NGX = 83   NGY = 83   NGZ =161
  (NGX  =336   NGY  =336   NGZ  =648)
  gives a total of ****** points

 initial charge density was supplied:
 number of electron     376.9999999 magnetization 
 keeping initial charge density in first step


--------------------------------------------------------------------------------------------------------


 Maximum index for augmentation-charges        11273 (set IRDMAX)


--------------------------------------------------------------------------------------------------------


 First call to EWALD:  gamma=   0.097
 Maximum number of real-space cells   3x   3x   2
 Maximum number of reciprocal cells   2x   2x   4

    FEWALD:  cpu time      0.0173: real time      0.0174


--------------------------------------- Ionic step        1  -------------------------------------------




--------------------------------------- Iteration      1(   1)  ---------------------------------------


    POTLOK:  cpu time      2.1679: real time      2.1707
    SETDIJ:  cpu time      1.6592: real time      1.6605
    EDDIAG:  cpu time     38.8071: real time     38.8300
     EDDAV:  cpu time    182.1482: real time    182.2392
       DOS:  cpu time      0.0075: real time      0.0078
    CHARGE:  cpu time     22.6772: real time     22.6962
    MIXING:  cpu time      0.0499: real time      0.0503
    --------------------------------------------
      LOOP:  cpu time    247.5171: real time    247.6547

 eigenvalue-minimisations  :  1920
 total energy-change (2. order) :-0.9622956E+03  (-0.1065671E+01)
 number of electron     376.9999999 magnetization 
 augmentation part      -20.6958931 magnetization 

 Broyden mixing:
  rms(total) = 0.11949E+01    rms(broyden)= 0.28364E+02
  rms(prec ) = 0.12293E+01
  weight for this iteration     100.00
  WARNING: grid for Broyden might be to small

 Free energy of the ion-electron system (eV)
  ---------------------------------------------------
  alpha Z        PSCENC =        49.70632041
  Ewald energy   TEWEN  =     60787.79937313
  -Hartree energ DENC   =    -69284.46126062
  -exchange      EXHF   =         0.00000000
  -V(xc)+E(xc)   XCENC  =      -425.14599553
  PAW double counting   =     35007.77295665   -34090.81781522
  entropy T*S    EENTRO =        -0.17600742
  eigenvalues    EBANDS =     -2601.51730088
  atomic energy  EATOM  =      9594.54415021
  Solvation  Ediel_sol  =         0.00000000
  ---------------------------------------------------
  free energy    TOTEN  =      -962.29557926 eV

  energy without entropy =     -962.11957184  energy(sigma->0) =     -962.20757555


--------------------------------------------------------------------------------------------------------




--------------------------------------- Iteration      1(   2)  ---------------------------------------


    POTLOK:  cpu time      2.1370: real time      2.1578
    SETDIJ:  cpu time      1.6523: real time      1.6535
    EDDIAG:  cpu time     38.7366: real time     38.7564
     EDDAV:  cpu time    184.1535: real time    184.2557
       DOS:  cpu time      0.0030: real time      0.0030
    CHARGE:  cpu time     22.5674: real time     22.5877
    MIXING:  cpu time      0.0421: real time      0.0422
    --------------------------------------------
      LOOP:  cpu time    249.2919: real time    249.4562

 eigenvalue-minimisations  :  1952
 total energy-change (2. order) : 0.6681745E+02  (-0.1025244E+01)
 number of electron     376.9999999 magnetization 
 augmentation part      -20.6160887 magnetization 

 Broyden mixing:
  rms(total) = 0.80828E+00    rms(broyden)= 0.16341E+02
  rms(prec ) = 0.82591E+00
  weight for this iteration     100.00
  WARNING: grid for Broyden might be to small

 eigenvalues of (default mixing * dielectric matrix)
  average eigenvalue GAMMA=   0.6346
  0.6346

 Free energy of the ion-electron system (eV)
  ---------------------------------------------------
  alpha Z        PSCENC =        49.70632041
  Ewald energy   TEWEN  =     60787.79937313
  -Hartree energ DENC   =    -69271.26936252
  -exchange      EXHF   =         0.00000000
  -V(xc)+E(xc)   XCENC  =      -415.84269887
  PAW double counting   =     41818.42134403   -40901.23008369
  entropy T*S    EENTRO =        -0.15678179
  eigenvalues    EBANDS =     -2557.45039035
  atomic energy  EATOM  =      9594.54415021
  Solvation  Ediel_sol  =         0.00000000
  ---------------------------------------------------
  free energy    TOTEN  =      -895.47812944 eV

  energy without entropy =     -895.32134765  energy(sigma->0) =     -895.39973854


--------------------------------------------------------------------------------------------------------




--------------------------------------- Iteration      1(   3)  ---------------------------------------


    POTLOK:  cpu time      2.1269: real time      2.1537
    SETDIJ:  cpu time      1.6517: real time      1.6524
    EDDIAG:  cpu time     38.7348: real time     38.7555
     EDDAV:  cpu time    183.2179: real time    183.3336
       DOS:  cpu time      0.0020: real time      0.0020
    CHARGE:  cpu time     22.5639: real time     22.5843
    MIXING:  cpu time      0.0412: real time      0.0412
    --------------------------------------------
      LOOP:  cpu time    248.3385: real time    248.5227

 eigenvalue-minimisations  :  1936
 total energy-change (2. order) :-0.3703401E+01  (-0.8254903E+00)
 number of electron     376.9999999 magnetization 
 augmentation part      -20.5507273 magnetization 

 Broyden mixing:
  rms(total) = 0.32773E+00    rms(broyden)= 0.24694E+02
  rms(prec ) = 0.41301E+00
  weight for this iteration     100.00
  WARNING: grid for Broyden might be to small

 eigenvalues of (default mixing * dielectric matrix)
  average eigenvalue GAMMA=   0.7794
  0.9325  0.6263

 Free energy of the ion-electron system (eV)
  ---------------------------------------------------
  alpha Z        PSCENC =        49.70632041
  Ewald energy   TEWEN  =     60787.79937313
  -Hartree energ DENC   =    -69269.19437768
  -exchange      EXHF   =         0.00000000
  -V(xc)+E(xc)   XCENC  =      -419.57866750
  PAW double counting   =     49972.89148464   -49055.84688048
  entropy T*S    EENTRO =        -0.17388377
  eigenvalues    EBANDS =     -2559.32904970
  atomic energy  EATOM  =      9594.54415021
  Solvation  Ediel_sol  =         0.00000000
  ---------------------------------------------------
  free energy    TOTEN  =      -899.18153073 eV

  energy without entropy =     -899.00764696  energy(sigma->0) =     -899.09458885


--------------------------------------------------------------------------------------------------------




--------------------------------------- Iteration      1(   4)  ---------------------------------------


    POTLOK:  cpu time      2.1318: real time      2.1525
    SETDIJ:  cpu time      1.6580: real time      1.6590
    EDDIAG:  cpu time     38.7435: real time     38.7633
     EDDAV:  cpu time    185.8470: real time    185.9554
       DOS:  cpu time      0.0026: real time      0.0026
    CHARGE:  cpu time     22.5616: real time     22.5803
    MIXING:  cpu time      0.0407: real time      0.0407
    --------------------------------------------
      LOOP:  cpu time    250.9851: real time    251.1538

 eigenvalue-minimisations  :  1992
 total energy-change (2. order) : 0.4455373E+00  (-0.8577817E-01)
 number of electron     376.9999999 magnetization 
 augmentation part      -20.5401216 magnetization 

 Broyden mixing:
  rms(total) = 0.62215E-01    rms(broyden)= 0.23644E+01
  rms(prec ) = 0.79862E-01
  weight for this iteration     100.00
  WARNING: grid for Broyden might be to small

 eigenvalues of (default mixing * dielectric matrix)
  average eigenvalue GAMMA=   1.1427
  2.1014  0.7093  0.6174

 Free energy of the ion-electron system (eV)
  ---------------------------------------------------
  alpha Z        PSCENC =        49.70632041
  Ewald energy   TEWEN  =     60787.79937313
  -Hartree energ DENC   =    -69269.92687383
  -exchange      EXHF   =         0.00000000
  -V(xc)+E(xc)   XCENC  =      -420.26065550
  PAW double counting   =     56063.06326434   -55146.06651070
  entropy T*S    EENTRO =        -0.15909616
  eigenvalues    EBANDS =     -2557.43596537
  atomic energy  EATOM  =      9594.54415021
  Solvation  Ediel_sol  =         0.00000000
  ---------------------------------------------------
  free energy    TOTEN  =      -898.73599347 eV

  energy without entropy =     -898.57689731  energy(sigma->0) =     -898.65644539


--------------------------------------------------------------------------------------------------------




--------------------------------------- Iteration      1(   5)  ---------------------------------------


    POTLOK:  cpu time      2.1319: real time      2.1577
    SETDIJ:  cpu time      1.6529: real time      1.6543
    EDDIAG:  cpu time     38.7873: real time     38.8082
     EDDAV:  cpu time    207.1440: real time    207.2554
       DOS:  cpu time      0.0023: real time      0.0023
    CHARGE:  cpu time     22.5654: real time     22.5863
    MIXING:  cpu time      0.0412: real time      0.0412
    --------------------------------------------
      LOOP:  cpu time    272.3250: real time    272.5054

 eigenvalue-minimisations  :  2376
 total energy-change (2. order) :-0.3991986E-01  (-0.1188117E-01)
 number of electron     376.9999999 magnetization 
 augmentation part      -20.5423361 magnetization 

 Broyden mixing:
  rms(total) = 0.53957E-01    rms(broyden)= 0.43862E+00
  rms(prec ) = 0.79163E-01
  weight for this iteration     100.00
  WARNING: grid for Broyden might be to small

 eigenvalues of (default mixing * dielectric matrix)
  average eigenvalue GAMMA=   1.0786
  2.4564  0.7498  0.6156  0.4929

 Free energy of the ion-electron system (eV)
  ---------------------------------------------------
  alpha Z        PSCENC =        49.70632041
  Ewald energy   TEWEN  =     60787.79937313
  -Hartree energ DENC   =    -69271.32550211
  -exchange      EXHF   =         0.00000000
  -V(xc)+E(xc)   XCENC  =      -421.36756163
  PAW double counting   =     55553.24246506   -54636.21504862
  entropy T*S    EENTRO =        -0.16419643
  eigenvalues    EBANDS =     -2554.99591336
  atomic energy  EATOM  =      9594.54415021
  Solvation  Ediel_sol  =         0.00000000
  ---------------------------------------------------
  free energy    TOTEN  =      -898.77591333 eV

  energy without entropy =     -898.61171690  energy(sigma->0) =     -898.69381512


--------------------------------------------------------------------------------------------------------




--------------------------------------- Iteration      1(   6)  ---------------------------------------


    POTLOK:  cpu time      2.1277: real time      2.1537
    SETDIJ:  cpu time      1.6800: real time      1.6812
    EDDIAG:  cpu time     38.7762: real time     38.7952
     EDDAV:  cpu time    198.3330: real time    198.4428
       DOS:  cpu time      0.0051: real time      0.0051
    CHARGE:  cpu time     22.5534: real time     22.5722
    MIXING:  cpu time      0.0432: real time      0.0432
    --------------------------------------------
      LOOP:  cpu time    263.5185: real time    263.6934

 eigenvalue-minimisations  :  2216
 total energy-change (2. order) : 0.4840201E-02  (-0.4858327E-02)
 number of electron     376.9999999 magnetization 
 augmentation part      -20.5420007 magnetization 

 Broyden mixing:
  rms(total) = 0.29611E-01    rms(broyden)= 0.22275E+00
  rms(prec ) = 0.33696E-01
  weight for this iteration     100.00
  WARNING: grid for Broyden might be to small

 eigenvalues of (default mixing * dielectric matrix)
  average eigenvalue GAMMA=   1.0141
  2.5812  0.8508  0.6286  0.6286  0.3814

 Free energy of the ion-electron system (eV)
  ---------------------------------------------------
  alpha Z        PSCENC =        49.70632041
  Ewald energy   TEWEN  =     60787.79937313
  -Hartree energ DENC   =    -69271.30923711
  -exchange      EXHF   =         0.00000000
  -V(xc)+E(xc)   XCENC  =      -421.62868647
  PAW double counting   =     55416.27195337   -54499.23093973
  entropy T*S    EENTRO =        -0.16277497
  eigenvalues    EBANDS =     -2554.76123197
  atomic energy  EATOM  =      9594.54415021
  Solvation  Ediel_sol  =         0.00000000
  ---------------------------------------------------
  free energy    TOTEN  =      -898.77107313 eV

  energy without entropy =     -898.60829816  energy(sigma->0) =     -898.68968565


--------------------------------------------------------------------------------------------------------




--------------------------------------- Iteration      1(   7)  ---------------------------------------


    POTLOK:  cpu time      2.1485: real time      2.1578
    SETDIJ:  cpu time      1.6451: real time      1.6458
    EDDIAG:  cpu time     38.7373: real time     38.7605
     EDDAV:  cpu time    186.7668: real time    186.8708
       DOS:  cpu time      0.0020: real time      0.0020
    CHARGE:  cpu time     22.5595: real time     22.5805
    MIXING:  cpu time      0.0422: real time      0.0423
    --------------------------------------------
      LOOP:  cpu time    251.9017: real time    252.0599

 eigenvalue-minimisations  :  2008
 total energy-change (2. order) :-0.7277495E-03  (-0.2177093E-02)
 number of electron     376.9999999 magnetization 
 augmentation part      -20.5396954 magnetization 

 Broyden mixing:
  rms(total) = 0.16510E-01    rms(broyden)= 0.12775E+00
  rms(prec ) = 0.18470E-01
  weight for this iteration     100.00
  WARNING: grid for Broyden might be to small

 eigenvalues of (default mixing * dielectric matrix)
  average eigenvalue GAMMA=   1.0123
  2.5632  1.1782  0.7487  0.6290  0.5935  0.3611

 Free energy of the ion-electron system (eV)
  ---------------------------------------------------
  alpha Z        PSCENC =        49.70632041
  Ewald energy   TEWEN  =     60787.79937313
  -Hartree energ DENC   =    -69271.19926435
  -exchange      EXHF   =         0.00000000
  -V(xc)+E(xc)   XCENC  =      -421.45426181
  PAW double counting   =     55358.90225205   -54441.84323967
  entropy T*S    EENTRO =        -0.16265214
  eigenvalues    EBANDS =     -2555.06447872
  atomic energy  EATOM  =      9594.54415021
  Solvation  Ediel_sol  =         0.00000000
  ---------------------------------------------------
  free energy    TOTEN  =      -898.77180088 eV

  energy without entropy =     -898.60914875  energy(sigma->0) =     -898.69047482


--------------------------------------------------------------------------------------------------------




--------------------------------------- Iteration      1(   8)  ---------------------------------------


    POTLOK:  cpu time      2.1299: real time      2.1573
    SETDIJ:  cpu time      1.6481: real time      1.6488
    EDDIAG:  cpu time     38.7334: real time     38.7563
     EDDAV:  cpu time    189.7769: real time    189.8830
       DOS:  cpu time      0.0019: real time      0.0020
    CHARGE:  cpu time     22.5394: real time     22.5599
    MIXING:  cpu time      0.0436: real time      0.0436
    --------------------------------------------
      LOOP:  cpu time    254.8732: real time    255.0508

 eigenvalue-minimisations  :  2064
 total energy-change (2. order) :-0.5205675E-03  (-0.4566668E-03)
 number of electron     376.9999999 magnetization 
 augmentation part      -20.5385615 magnetization 

 Broyden mixing:
  rms(total) = 0.60768E-02    rms(broyden)= 0.39333E-01
  rms(prec ) = 0.71333E-02
  weight for this iteration     100.00
  WARNING: grid for Broyden might be to small

 eigenvalues of (default mixing * dielectric matrix)
  average eigenvalue GAMMA=   0.9922
  2.5581  1.3613  0.8585  0.3513  0.6379  0.6379  0.5406

 Free energy of the ion-electron system (eV)
  ---------------------------------------------------
  alpha Z        PSCENC =        49.70632041
  Ewald energy   TEWEN  =     60787.79937313
  -Hartree energ DENC   =    -69270.61322603
  -exchange      EXHF   =         0.00000000
  -V(xc)+E(xc)   XCENC  =      -421.30663169
  PAW double counting   =     55390.24323856   -54473.17121077
  entropy T*S    EENTRO =        -0.16293851
  eigenvalues    EBANDS =     -2555.81139677
  atomic energy  EATOM  =      9594.54415021
  Solvation  Ediel_sol  =         0.00000000
  ---------------------------------------------------
  free energy    TOTEN  =      -898.77232145 eV

  energy without entropy =     -898.60938294  energy(sigma->0) =     -898.69085220


--------------------------------------------------------------------------------------------------------




--------------------------------------- Iteration      1(   9)  ---------------------------------------


    POTLOK:  cpu time      2.1444: real time      2.1743
    SETDIJ:  cpu time      1.6512: real time      1.6518
    EDDIAG:  cpu time     38.7536: real time     38.7743
     EDDAV:  cpu time    191.9044: real time    192.0123
       DOS:  cpu time      0.0029: real time      0.0030
    CHARGE:  cpu time     22.5743: real time     22.5950
    MIXING:  cpu time      0.0446: real time      0.0446
    --------------------------------------------
      LOOP:  cpu time    257.0756: real time    257.2553

 eigenvalue-minimisations  :  2104
 total energy-change (2. order) :-0.8338012E-04  (-0.1488420E-03)
 number of electron     376.9999999 magnetization 
 augmentation part      -20.5386228 magnetization 

 Broyden mixing:
  rms(total) = 0.26801E-02    rms(broyden)= 0.34471E-01
  rms(prec ) = 0.31428E-02
  weight for this iteration     100.00
  WARNING: grid for Broyden might be to small

 eigenvalues of (default mixing * dielectric matrix)
  average eigenvalue GAMMA=   1.0893
  2.4970  2.2797  0.9983  0.8186  0.3501  0.6513  0.6250  0.4946

 Free energy of the ion-electron system (eV)
  ---------------------------------------------------
  alpha Z        PSCENC =        49.70632041
  Ewald energy   TEWEN  =     60787.79937313
  -Hartree energ DENC   =    -69270.13353561
  -exchange      EXHF   =         0.00000000
  -V(xc)+E(xc)   XCENC  =      -421.30393172
  PAW double counting   =     55424.00259276   -54506.92587606
  entropy T*S    EENTRO =        -0.16314900
  eigenvalues    EBANDS =     -2556.29834895
  atomic energy  EATOM  =      9594.54415021
  Solvation  Ediel_sol  =         0.00000000
  ---------------------------------------------------
  free energy    TOTEN  =      -898.77240483 eV

  energy without entropy =     -898.60925583  energy(sigma->0) =     -898.69083033


--------------------------------------------------------------------------------------------------------




--------------------------------------- Iteration      1(  10)  ---------------------------------------


    POTLOK:  cpu time      2.1315: real time      2.1610
    SETDIJ:  cpu time      1.6475: real time      1.6483
    EDDIAG:  cpu time     38.7580: real time     38.7795
     EDDAV:  cpu time    195.8487: real time    195.9595
       DOS:  cpu time      0.0042: real time      0.0042
    CHARGE:  cpu time     22.5442: real time     22.5650
    MIXING:  cpu time      0.0456: real time      0.0456
    --------------------------------------------
      LOOP:  cpu time    260.9797: real time    261.1631

 eigenvalue-minimisations  :  2176
 total energy-change (2. order) :-0.1702471E-04  (-0.3826077E-04)
 number of electron     376.9999999 magnetization 
 augmentation part      -20.5387496 magnetization 

 Broyden mixing:
  rms(total) = 0.15843E-02    rms(broyden)= 0.10360E-01
  rms(prec ) = 0.18536E-02
  weight for this iteration     100.00
  WARNING: grid for Broyden might be to small

 eigenvalues of (default mixing * dielectric matrix)
  average eigenvalue GAMMA=   1.1192
  2.6129  2.6129  0.9903  0.9903  0.3502  0.7333  0.5175  0.6405  0.6245

 Free energy of the ion-electron system (eV)
  ---------------------------------------------------
  alpha Z        PSCENC =        49.70632041
  Ewald energy   TEWEN  =     60787.79937313
  -Hartree energ DENC   =    -69269.79194720
  -exchange      EXHF   =         0.00000000
  -V(xc)+E(xc)   XCENC  =      -421.31943280
  PAW double counting   =     55421.57734267   -54504.49880279
  entropy T*S    EENTRO =        -0.16291997
  eigenvalues    EBANDS =     -2556.62650551
  atomic energy  EATOM  =      9594.54415021
  Solvation  Ediel_sol  =         0.00000000
  ---------------------------------------------------
  free energy    TOTEN  =      -898.77242186 eV

  energy without entropy =     -898.60950188  energy(sigma->0) =     -898.69096187


--------------------------------------------------------------------------------------------------------




--------------------------------------- Iteration      1(  11)  ---------------------------------------


    POTLOK:  cpu time      2.1288: real time      2.1534
    SETDIJ:  cpu time      1.6459: real time      1.6469
    EDDIAG:  cpu time     38.7367: real time     38.7583
     EDDAV:  cpu time    189.7714: real time    189.8776
       DOS:  cpu time      0.0084: real time      0.0087
    CHARGE:  cpu time     22.5582: real time     22.5783
    MIXING:  cpu time      0.0613: real time      0.0616
    --------------------------------------------
      LOOP:  cpu time    254.9108: real time    255.0848

 eigenvalue-minimisations  :  2064
 total energy-change (2. order) :-0.4841296E-04  (-0.3286673E-04)
 number of electron     376.9999999 magnetization 
 augmentation part      -20.5388238 magnetization 

 Broyden mixing:
  rms(total) = 0.78772E-03    rms(broyden)= 0.88423E-02
  rms(prec ) = 0.10342E-02
  weight for this iteration     100.00
  WARNING: grid for Broyden might be to small

 eigenvalues of (default mixing * dielectric matrix)
  average eigenvalue GAMMA=   1.1134
  2.6952  2.6952  1.0815  1.0815  0.8076  0.3501  0.6774  0.6331  0.5732  0.5393

 Free energy of the ion-electron system (eV)
  ---------------------------------------------------
  alpha Z        PSCENC =        49.70632041
  Ewald energy   TEWEN  =     60787.79937313
  -Hartree energ DENC   =    -69269.39474681
  -exchange      EXHF   =         0.00000000
  -V(xc)+E(xc)   XCENC  =      -421.32498287
  PAW double counting   =     55415.65648396   -54498.57617958
  entropy T*S    EENTRO =        -0.16307258
  eigenvalues    EBANDS =     -2557.01981613
  atomic energy  EATOM  =      9594.54415021
  Solvation  Ediel_sol  =         0.00000000
  ---------------------------------------------------
  free energy    TOTEN  =      -898.77247027 eV

  energy without entropy =     -898.60939769  energy(sigma->0) =     -898.69093398


--------------------------------------------------------------------------------------------------------




--------------------------------------- Iteration      1(  12)  ---------------------------------------


    POTLOK:  cpu time      2.1798: real time      2.1812
    SETDIJ:  cpu time      1.6642: real time      1.6658
    EDDIAG:  cpu time     38.7374: real time     38.7584
     EDDAV:  cpu time    185.4738: real time    185.5768
       DOS:  cpu time      0.0019: real time      0.0019
    CHARGE:  cpu time     22.5696: real time     22.5903
    MIXING:  cpu time      0.0470: real time      0.0470
    --------------------------------------------
      LOOP:  cpu time    250.6736: real time    250.8214

 eigenvalue-minimisations  :  1984
 total energy-change (2. order) :-0.1139237E-03  (-0.2205565E-04)
 number of electron     376.9999999 magnetization 
 augmentation part      -20.5389568 magnetization 

 Broyden mixing:
  rms(total) = 0.42083E-03    rms(broyden)= 0.43788E-02
  rms(prec ) = 0.63259E-03
  weight for this iteration     100.00
  WARNING: grid for Broyden might be to small

 eigenvalues of (default mixing * dielectric matrix)
  average eigenvalue GAMMA=   1.1401
  2.7553  2.7553  1.4025  1.1297  0.9620  0.3500  0.7858  0.6539  0.5330  0.6225
  0.5917

 Free energy of the ion-electron system (eV)
  ---------------------------------------------------
  alpha Z        PSCENC =        49.70632041
  Ewald energy   TEWEN  =     60787.79937313
  -Hartree energ DENC   =    -69269.06686119
  -exchange      EXHF   =         0.00000000
  -V(xc)+E(xc)   XCENC  =      -421.33875553
  PAW double counting   =     55414.49471708   -54497.41410953
  entropy T*S    EENTRO =        -0.16299280
  eigenvalues    EBANDS =     -2557.33442598
  atomic energy  EATOM  =      9594.54415021
  Solvation  Ediel_sol  =         0.00000000
  ---------------------------------------------------
  free energy    TOTEN  =      -898.77258419 eV

  energy without entropy =     -898.60959140  energy(sigma->0) =     -898.69108779


--------------------------------------------------------------------------------------------------------




--------------------------------------- Iteration      1(  13)  ---------------------------------------


    POTLOK:  cpu time      2.1275: real time      2.1540
    SETDIJ:  cpu time      1.6426: real time      1.6437
    EDDIAG:  cpu time     38.7801: real time     38.7986
     EDDAV:  cpu time    185.5953: real time    185.7006
       DOS:  cpu time      0.0061: real time      0.0061
    CHARGE:  cpu time     22.5637: real time     22.5836
    MIXING:  cpu time      0.0477: real time      0.0478
    --------------------------------------------
      LOOP:  cpu time    250.7630: real time    250.9343

 eigenvalue-minimisations  :  1984
 total energy-change (2. order) :-0.1362787E-03  (-0.2046488E-04)
 number of electron     376.9999999 magnetization 
 augmentation part      -20.5390121 magnetization 

 Broyden mixing:
  rms(total) = 0.28570E-03    rms(broyden)= 0.26468E-02
  rms(prec ) = 0.46196E-03
  weight for this iteration     100.00
  WARNING: grid for Broyden might be to small

 eigenvalues of (default mixing * dielectric matrix)
  average eigenvalue GAMMA=   1.1680
  2.8327  2.8327  1.9517  1.1191  0.9632  0.8798  0.3500  0.6913  0.5359  0.6315
  0.6315  0.5965

 Free energy of the ion-electron system (eV)
  ---------------------------------------------------
  alpha Z        PSCENC =        49.70632041
  Ewald energy   TEWEN  =     60787.79937313
  -Hartree energ DENC   =    -69268.80518407
  -exchange      EXHF   =         0.00000000
  -V(xc)+E(xc)   XCENC  =      -421.34494210
  PAW double counting   =     55415.39052916   -54498.31015488
  entropy T*S    EENTRO =        -0.16303530
  eigenvalues    EBANDS =     -2557.58977703
  atomic energy  EATOM  =      9594.54415021
  Solvation  Ediel_sol  =         0.00000000
  ---------------------------------------------------
  free energy    TOTEN  =      -898.77272047 eV

  energy without entropy =     -898.60968517  energy(sigma->0) =     -898.69120282


--------------------------------------------------------------------------------------------------------




--------------------------------------- Iteration      1(  14)  ---------------------------------------


    POTLOK:  cpu time      2.1509: real time      2.1522
    SETDIJ:  cpu time      1.6451: real time      1.6460
    EDDIAG:  cpu time     38.7367: real time     38.7565
     EDDAV:  cpu time    185.2276: real time    185.3309
       DOS:  cpu time      0.0040: real time      0.0040
    CHARGE:  cpu time     22.5743: real time     22.5943
    MIXING:  cpu time      0.0480: real time      0.0480
    --------------------------------------------
      LOOP:  cpu time    250.3866: real time    250.5320

 eigenvalue-minimisations  :  1984
 total energy-change (2. order) :-0.1495392E-03  (-0.2451002E-04)
 number of electron     376.9999999 magnetization 
 augmentation part      -20.5390675 magnetization 

 Broyden mixing:
  rms(total) = 0.19582E-03    rms(broyden)= 0.18775E-02
  rms(prec ) = 0.31920E-03
  weight for this iteration     100.00
  WARNING: grid for Broyden might be to small

 eigenvalues of (default mixing * dielectric matrix)
  average eigenvalue GAMMA=   1.1959
  3.1033  2.7432  2.2975  1.0812  1.0812  1.0344  0.8474  0.3500  0.6501  0.6501
  0.5378  0.5849  0.5849

 Free energy of the ion-electron system (eV)
  ---------------------------------------------------
  alpha Z        PSCENC =        49.70632041
  Ewald energy   TEWEN  =     60787.79937313
  -Hartree energ DENC   =    -69268.53166488
  -exchange      EXHF   =         0.00000000
  -V(xc)+E(xc)   XCENC  =      -421.34983608
  PAW double counting   =     55415.12983299   -54498.04979273
  entropy T*S    EENTRO =        -0.16303040
  eigenvalues    EBANDS =     -2557.85822267
  atomic energy  EATOM  =      9594.54415021
  Solvation  Ediel_sol  =         0.00000000
  ---------------------------------------------------
  free energy    TOTEN  =      -898.77287001 eV

  energy without entropy =     -898.60983961  energy(sigma->0) =     -898.69135481


--------------------------------------------------------------------------------------------------------




--------------------------------------- Iteration      1(  15)  ---------------------------------------


    POTLOK:  cpu time      2.1278: real time      2.1552
    SETDIJ:  cpu time      1.6545: real time      1.6554
    EDDIAG:  cpu time     38.7582: real time     38.7785
     EDDAV:  cpu time    187.5664: real time    187.6711
       DOS:  cpu time      0.0026: real time      0.0026
    CHARGE:  cpu time     22.5571: real time     22.5760
    MIXING:  cpu time      0.0502: real time      0.0502
    --------------------------------------------
[...]
   -.144E+02 0.104E+02 -.288E+03   0.143E+02 -.105E+02 0.287E+03   0.279E+00 0.247E+00 0.108E+01   -.301E-04 -.153E-04 0.295E-04
   0.121E+02 0.331E+02 -.353E+03   -.115E+02 -.313E+02 0.352E+03   -.976E+00 -.141E+01 0.245E+00   0.198E-04 -.483E-04 0.138E-04
   -.985E+01 0.268E+02 0.343E+03   0.724E+01 -.266E+02 -.341E+03   0.229E+01 -.238E-01 -.188E+01   0.666E-05 0.365E-04 -.998E-04
   -.575E+01 -.273E+02 -.263E+03   0.560E+01 0.247E+02 0.260E+03   0.977E-01 0.223E+01 0.239E+01   -.312E-04 -.112E-04 0.573E-04
   0.149E+02 -.121E+02 -.101E+03   -.142E+02 0.115E+02 0.993E+02   -.881E+00 0.601E+00 0.174E+01   0.158E-04 0.204E-04 -.174E-04
   -.162E+02 0.186E+02 0.586E+02   0.168E+02 -.168E+02 -.597E+02   -.776E+00 -.188E+01 0.120E+01   0.612E-06 0.349E-04 -.910E-04
   0.144E+02 0.135E+02 -.242E+03   -.148E+02 -.124E+02 0.241E+03   0.454E+00 -.108E+01 0.458E+00   0.293E-04 0.541E-04 0.941E-05
   -.127E+01 -.644E+01 0.187E+03   0.207E+01 0.478E+01 -.187E+03   -.102E+01 0.160E+01 -.991E-01   -.300E-04 -.131E-04 -.642E-04
   0.112E+02 0.552E+01 0.257E+02   -.102E+02 -.394E+01 -.252E+02   -.114E+01 -.151E+01 -.531E+00   -.332E-04 -.320E-04 -.423E-04
   0.193E+02 0.515E+01 0.208E+03   -.166E+02 -.190E+01 -.210E+03   -.254E+01 -.309E+01 0.209E+01   -.492E-05 0.968E-05 -.867E-04
   -.276E+01 -.149E+02 -.174E+03   0.296E+01 0.147E+02 0.175E+03   0.725E-01 0.414E+00 -.652E+00   -.295E-05 0.116E-04 0.445E-05
   0.206E+01 0.162E+02 0.242E+03   -.123E+01 -.135E+02 -.239E+03   -.701E+00 -.265E+01 -.241E+01   0.406E-04 0.146E-04 -.942E-04
   -.246E+02 -.454E+01 0.362E+03   0.239E+02 0.452E+01 -.363E+03   0.493E+00 0.115E+00 0.641E+00   -.296E-04 0.528E-05 -.986E-04
   -.112E+02 0.284E+01 -.499E+02   0.911E+01 -.921E+00 0.482E+02   0.166E+01 -.179E+01 0.150E+01   -.108E-04 0.232E-04 -.409E-04
   0.231E+02 0.103E+02 0.398E+02   -.224E+02 -.765E+01 -.409E+02   -.857E+00 -.248E+01 0.116E+01   0.319E-04 -.534E-05 -.630E-04
   0.385E+02 0.372E+01 0.346E+03   -.366E+02 -.232E+01 -.351E+03   -.199E+01 -.950E+00 0.376E+01   0.987E-05 -.181E-04 -.967E-04
   -.347E+02 0.133E+02 -.152E+03   0.339E+02 -.125E+02 0.152E+03   0.565E+00 -.933E+00 0.368E+00   0.571E-04 -.493E-04 -.114E-04
   -.314E+02 0.393E+01 0.360E+03   0.301E+02 -.335E+01 -.360E+03   0.126E+01 -.509E+00 0.471E+00   0.477E-05 -.172E-04 -.582E-04
   -.687E+01 -.124E+02 -.298E+03   0.773E+01 0.124E+02 0.297E+03   -.855E+00 -.511E+00 0.714E+00   -.316E-05 0.537E-05 0.248E-04
   0.174E+02 0.948E+01 0.873E+01   -.158E+02 -.891E+01 -.786E+01   -.130E+01 -.797E+00 -.906E+00   -.200E-04 0.754E-04 -.628E-04
   0.135E+02 -.306E+02 -.298E+03   -.151E+02 0.303E+02 0.297E+03   0.154E+01 0.188E+00 0.104E+01   0.598E-05 0.167E-03 0.793E-05
   0.133E+02 0.110E+02 0.377E+03   -.128E+02 -.117E+02 -.378E+03   -.542E+00 0.296E+00 0.373E+00   0.498E-04 -.108E-04 -.131E-03
   0.104E+02 -.322E+02 0.286E+03   -.122E+02 0.293E+02 -.287E+03   0.181E+01 0.224E+01 0.964E+00   -.645E-05 0.136E-05 -.895E-04
   -.360E+02 0.140E+02 0.322E+03   0.356E+02 -.137E+02 -.321E+03   0.360E+00 -.637E+00 -.883E+00   -.157E-04 -.274E-04 -.651E-04
   0.999E+01 0.233E+02 0.267E+03   -.104E+02 -.218E+02 -.265E+03   0.255E+00 -.161E+01 -.164E+01   0.924E-06 0.287E-04 -.104E-03
   -.293E+02 0.166E+02 -.201E+02   0.284E+02 -.159E+02 0.202E+02   0.947E+00 -.728E+00 -.105E+00   -.136E-04 0.203E-04 -.458E-04
   0.205E+02 -.662E+01 -.183E+03   -.197E+02 0.610E+01 0.183E+03   -.784E+00 0.358E+00 -.118E+00   -.254E-04 -.745E-05 0.268E-04
   -.104E+02 -.218E+02 0.461E+02   0.938E+01 0.185E+02 -.459E+02   0.114E+01 0.304E+01 0.346E-01   0.124E-04 0.961E-05 -.278E-04
   -.449E+02 0.727E+01 -.399E+03   0.442E+02 -.684E+01 0.400E+03   0.819E+00 -.396E+00 -.789E+00   0.108E-04 -.160E-06 0.282E-04
   -.197E+02 -.129E+02 -.444E+02   0.185E+02 0.114E+02 0.443E+02   0.113E+01 0.142E+01 0.103E+00   -.238E-04 -.292E-04 -.769E-05
   -.164E+01 0.251E+01 -.333E+03   0.278E+01 -.473E+01 0.336E+03   -.941E+00 0.208E+01 -.180E+01   0.134E-05 0.199E-04 0.314E-04
   -.313E+01 0.139E+02 0.496E+01   0.308E+01 -.154E+02 -.431E+01   0.197E+00 0.143E+01 -.436E+00   0.427E-05 -.864E-05 -.570E-04
   -.161E+02 0.152E+02 -.302E+03   0.142E+02 -.158E+02 0.299E+03   0.179E+01 0.190E+00 0.272E+01   0.693E-04 -.168E-04 0.791E-05
   -.901E+01 0.524E+01 0.222E+03   0.863E+01 -.587E+01 -.223E+03   0.348E+00 0.741E+00 0.118E+01   -.162E-04 0.777E-05 -.117E-03
 -----------------------------------------------------------------------------------------------
   -.676E+01 -.834E-01 -.388E+01   -.149E-12 0.950E-13 -.171E-12   0.677E+01 0.100E+00 0.388E+01   0.664E-04 -.773E-04 -.334E-02


 POSITION                                       TOTAL-FORCE (eV/Angst)
 -----------------------------------------------------------------------------------
     12.88359     11.06947     11.63274        -0.021245      0.053874      0.032043
      4.15606     12.07886     19.27189         0.088380      0.018133      0.063981
     10.84724     10.29862     13.98336         0.153370      0.067057     -0.043973
     13.15313     11.29054     13.87686        -0.036588     -0.104857     -0.036483
     13.84980      7.97375     13.64136         0.039117      0.036259      0.035267
     10.99187      6.25638     17.12070        -0.000930     -0.184930      0.028543
      1.55691     11.94026     13.02498         0.068057     -0.027009      0.459269
      2.58682      0.18960     12.05920        -0.059066      0.091145     -0.091869
     12.50616      8.59079     11.67545        -0.024131      0.046708      0.092884
     13.75093      5.71342     15.83761         0.103429      0.237519      0.137804
      7.27385      2.54080     11.33953        -0.108499     -0.179166     -0.189804
      0.94824     10.03255     15.23273        -0.143406      0.378091      0.177294
      5.03842      3.86066     13.88609         0.068457     -0.053832     -0.057410
     11.86867     12.44759     12.02405         0.388696     -0.139252     -0.155927
      2.12173      4.96589     17.54592        -0.245063     -0.035700      0.138024
      3.18028      3.00312     10.62522         0.187201     -0.154923      0.049936
      2.77748      6.94630     16.35030        -0.069391      0.143566     -0.051027
      8.54174     13.68203     10.65359         0.246833      0.244897      0.222915
     13.05855      0.57366     15.68292        -0.190542      0.078876     -0.004293
      5.69580      0.86648     17.80852         0.051231     -0.126695     -0.351975
      1.02622      8.90627     11.29203        -0.185542      0.174336      0.121343
     12.81646     12.91324     16.53528         0.075494     -0.098325      0.083351
      2.16673      6.69475     14.07767         0.343913     -0.023808     -0.008489
      2.19654     11.78421     14.52144        -0.068717      0.194408     -0.328252
      2.13446     13.95113     17.66594        -0.018407     -0.325070      0.017638
      7.29592      4.88857     16.47415        -0.033338      0.115870     -0.109772
      8.64193      9.96046     11.10046        -0.112901     -0.146557     -0.200819
      3.39084      2.76004     15.08238        -0.007691     -0.113941     -0.181916
      6.71924      8.59794     10.58055         0.183041     -0.140837      0.092475
      1.97125     13.94809     15.33785         0.032360      0.090243     -0.238015
      7.77730      6.12583     13.61097         0.021727     -0.089770      0.249579
      3.47772      1.20215     18.42412        -0.060186      0.244171      0.143076
      0.11333      5.20700     11.59702        -0.002520     -0.051021     -0.362063
      4.76136      8.50143     11.87170        -0.042052     -0.014572      0.010102
      5.29962     11.99365     16.34055        -0.080444      0.062542     -0.083625
     10.06797      7.20755     18.28341         0.193526     -0.383651      0.634528
     12.36305      5.46292     11.35670        -0.159260     -0.009119     -0.075406
      3.09275      9.88961     11.16056        -0.017977      0.616553      0.106706
     10.44833      9.32779     17.46444        -0.564508      0.190299     -0.446711
     11.60096      7.51047     12.16477         0.204526      0.041957      0.089752
      3.90642      0.53835     14.75308         0.092875      0.046674      0.073463
     11.47430      5.79016     15.63031        -0.007308      0.070099     -0.075303
      7.72160      6.60922     11.32635         0.204747      0.342263     -0.535387
     13.60525      1.42999     11.16872        -0.054328      0.386254     -0.302644
      4.84347     12.61170     12.32826         0.028555     -0.092430     -0.070145
      7.43462      9.72834     14.57439        -0.027253     -0.212439      0.052137
     11.52295      3.83261     12.66670         0.135543      0.226200     -0.201120
      9.25282      1.28290     10.94414        -0.032542     -0.360873     -0.013286
      7.42278      0.21233     14.25364        -0.095149     -0.087450     -0.022749
      4.02480      0.23776     12.46955        -0.079691     -0.198929     -0.137682
      9.19225     11.21594     17.47514         0.359336     -0.060713      0.100761
     13.83442      7.68655     17.05622         0.097859     -0.073973     -0.045321
      8.31789     11.22865     13.05087         0.151775      0.395790      0.088144
      3.32767     12.05187     10.56410         0.055815     -0.057023     -0.019718
      4.52942      4.56310     11.68887         0.131500      0.065014     -0.072349
      5.85216      5.79444     14.88327        -0.161973      0.102912     -0.014796
      0.27771      0.57410     14.21008         0.219480     -0.004684      0.189370
      6.35821      8.44734     17.63314        -0.134778      0.248179      0.261099
      9.40633      0.16741     15.52185        -0.048583      0.223334     -0.161460
      0.72644      8.46304     13.54598         0.077227     -0.241350     -0.085563
      8.11060      7.03566     17.05623         0.224415     -0.015041     -0.349406
      6.02133      3.35442     17.64762         0.225439      0.216498      0.214747
     10.42809     12.62226     16.05233         0.057783      0.041823      0.254090
      3.52727     12.05739     17.92433         0.036805      0.239350      0.309520
      4.41888     11.33195     14.26807         0.151556      0.060680     -0.158437
     11.06401      7.77380     14.46942        -0.316116      0.099331      0.043175
      0.13183     12.72012     18.13799         0.308654     -0.488419     -0.099728
      9.14273      1.80251     17.19385         0.279878      0.087081      0.021181
      1.55366     10.82649     18.02903        -0.339385      0.376316     -0.279935
      5.04602      1.60306     10.92083        -0.286921      0.279952      0.282516
      7.09133     10.51472     16.73904        -0.043032     -0.202817     -0.013772
     13.40991     10.99810     15.31937        -0.212231     -0.026643     -0.061140
      7.03042      2.51686     13.65763        -0.175832     -0.188549      0.127304
      0.30658      3.77950     16.53208         0.086013      0.139306     -0.103809
      7.14683     13.16081     12.45216        -0.256777      0.004404     -0.161162
      5.21290      9.16440     14.07238        -0.186238      0.021116     -0.052620
     14.01960     13.95181     12.20806        -0.047642      0.004565      0.094545
     12.24707      9.08446     16.05384         0.267333      0.170687      0.028644
     11.35617      1.64263     12.06347         0.081659      0.068107     -0.209286
      6.65010      4.66329     10.63598        -0.170305      0.061714     -0.079636
     10.72891      3.72836     14.84617        -0.358233      0.037915     -0.144224
      0.46589      5.13961     13.91823        -0.219245      0.020044      0.147061
     14.23789     10.72408     10.69601        -0.143399      0.422679     -0.587785
      5.79810     14.22207     15.82441        -0.256185     -0.076139      0.205141
     10.00649     11.90367     10.47856        -0.043956      0.144631      0.371352
     11.22861      2.81077     17.01631        -0.092255     -0.754822     -0.159404
      1.15563      2.85678     14.29435         0.210703     -0.263536     -0.078250
      3.69241      3.28038     17.37892         0.060445     -0.105115      0.328849
      1.54242      6.75240     10.56958        -0.081529     -0.333253     -0.046500
      1.10966     12.41712     11.43017         0.078304     -0.614058      0.141560
      9.62646      7.88484     11.04309        -0.039164     -0.368747     -0.107830
      0.94948      2.97824     11.72438        -0.133823     -0.121999     -0.069096
      8.46340      4.08126     14.61332         0.131391     -0.077707      0.036649
      4.93642      7.69414     15.91440         0.004261     -0.174831     -0.198342
     10.46031     11.74436     13.82153         0.141925     -0.167406      0.208366
      7.45585      1.93639     18.84050        -0.059224      0.028159      0.119275
      8.75131      7.81054     14.86935         0.009964      0.007670      0.053274
     13.42648      2.09303     17.45214         0.021932      0.071053      0.410584
     11.16749      1.26278     14.43300         0.146081      0.032260      0.242896
      1.36932      8.70485     17.08702        -0.146139     -0.263694      0.234336
      3.40737      6.57562     12.02097        -0.026971      0.167112      0.109165
 -----------------------------------------------------------------------------------
    total drift:                                0.004135      0.016495     -0.006518


--------------------------------------------------------------------------------------------------------



  FREE ENERGIE OF THE ION-ELECTRON SYSTEM (eV)
  ---------------------------------------------------
  free  energy   TOTEN  =      -898.77319550 eV

  energy  without entropy=     -898.61014353  energy(sigma->0) =     -898.69166951



--------------------------------------------------------------------------------------------------------


    POTLOK:  cpu time      3.7603: real time      3.7628


--------------------------------------------------------------------------------------------------------


     LOOP+:  cpu time   5497.6575: real time   5501.3726
    4ORBIT:  cpu time      0.0000: real time      0.0000



 total charge

# of ion       s       p       d       tot
------------------------------------------
    1        0.544   0.015   0.000   0.559
    2        0.567   0.015   0.000   0.583
    3        0.565   0.016   0.000   0.581
    4        0.569   0.017   0.000   0.586
    5        0.567   0.016   0.000   0.583
    6        0.555   0.016   0.000   0.571
    7        0.568   0.016   0.000   0.585
    8        0.569   0.016   0.000   0.585
    9        0.566   0.016   0.000   0.581
   10        0.751   0.968   0.000   1.719
   11        0.751   0.909   0.000   1.661
   12        0.754   0.995   0.000   1.749
   13        0.760   0.931   0.000   1.691
   14        0.793   0.774   0.000   1.566
   15        0.804   0.842   0.000   1.646
   16        0.796   0.831   0.000   1.627
   17        0.750   0.925   0.000   1.675
   18        0.772   0.910   0.000   1.682
   19        0.753   0.943   0.000   1.696
   20        0.775   0.904   0.000   1.679
   21        0.754   0.972   0.000   1.726
   22        0.748   0.898   0.000   1.645
   23        0.761   0.938   0.000   1.700
   24        0.767   0.949   0.000   1.717
   25        0.751   0.918   0.000   1.669
   26        0.759   0.953   0.000   1.712
   27        0.754   0.898   0.000   1.653
   28        0.761   0.944   0.000   1.705
   29        0.806   0.830   0.000   1.636
   30        0.756   0.963   0.000   1.719
   31        0.769   0.934   0.000   1.703
   32        0.789   0.867   0.000   1.656
   33        0.757   0.927   0.000   1.685
   34        0.749   0.965   0.000   1.715
   35        0.748   0.947   0.000   1.695
   36        0.850   0.791   0.000   1.641
   37        0.784   0.909   0.000   1.692
   38        0.796   0.897   0.000   1.694
   39        0.784   0.904   0.000   1.688
   40        0.746   0.971   0.000   1.717
   41        0.761   0.983   0.000   1.744
   42        0.775   0.915   0.000   1.691
   43        0.749   0.940   0.000   1.689
   44        0.806   0.814   0.000   1.620
   45        0.752   0.936   0.000   1.689
   46        0.765   0.951   0.000   1.716
   47        0.795   0.893   0.000   1.687
   48        0.780   0.864   0.000   1.644
   49        0.749   0.923   0.000   1.672
   50        0.751   0.986   0.000   1.736
   51        0.773   0.900   0.000   1.673
   52        0.787   0.891   0.000   1.678
   53        0.763   0.947   0.000   1.710
   54        0.801   0.852   0.000   1.653
   55        0.752   0.936   0.000   1.687
   56        0.761   0.967   0.000   1.728
   57        0.761   0.907   0.000   1.668
   58        0.801   0.868   0.000   1.669
   59        0.753   0.936   0.000   1.689
   60        0.758   0.965   0.000   1.723
   61        0.757   0.925   0.000   1.682
   62        0.770   0.892   0.000   1.661
   63        0.756   0.889   0.000   1.646
   64        0.741   0.969   0.000   1.710
   65        0.753   0.977   0.000   1.731
   66        0.763   0.929   0.000   1.692
   67        0.787   0.815   0.000   1.602
   68        0.783   0.854   0.000   1.638
   69        0.783   0.857   0.000   1.640
   70        0.782   0.858   0.000   1.640
   71        0.751   0.932   0.000   1.682
   72        0.754   0.981   0.000   1.735
   73        0.754   0.923   0.000   1.677
   74        0.778   0.874   0.000   1.652
   75        0.752   0.914   0.000   1.666
   76        0.758   0.942   0.000   1.700
   77        0.760   0.874   0.000   1.634
   78        0.758   0.947   0.000   1.705
   79        0.754   0.895   0.000   1.649
   80        0.796   0.861   0.000   1.657
   81        0.739   0.958   0.000   1.697
   82        0.785   0.888   0.000   1.673
   83        0.817   0.829   0.000   1.646
   84        0.750   0.972   0.000   1.722
   85        0.810   0.798   0.000   1.608
   86        0.810   0.819   0.000   1.629
   87        0.749   0.891   0.000   1.640
   88        0.757   0.921   0.000   1.677
   89        0.804   0.859   0.000   1.663
   90        0.782   0.857   0.000   1.639
   91        0.790   0.883   0.000   1.673
   92        0.790   0.805   0.000   1.594
   93        0.760   0.936   0.000   1.696
   94        0.753   0.930   0.000   1.683
   95        0.756   0.943   0.000   1.699
   96        0.824   0.822   0.000   1.647
   97        0.757   0.942   0.000   1.699
   98        0.815   0.826   0.000   1.642
   99        0.778   0.873   0.000   1.651
  100        0.756   0.945   0.000   1.702
  101        0.755   0.929   0.000   1.684
--------------------------------------------------
tot         75.940  83.560   0.000 159.500


 total amount of memory used by VASP MPI-rank0   369758. kBytes
=======================================================================

   base                                    :      30000. kBytes
   nonl-proj                               :      75892. kBytes
   fftplans                                :     110224. kBytes
   grid                                    :      85039. kBytes
   one-center                              :         21. kBytes
   wavefun                                 :      68582. kBytes

  
  
 General timing and accounting informations for this job:
 ========================================================
  
                  Total CPU time used (sec):     5647.812
                            User time (sec):     5025.802
                          System time (sec):      622.009
                         Elapsed time (sec):     5651.596
  
                   Maximum memory used (kb):      638124.
                   Average memory used (kb):          N/A
  
                          Minor page faults:      9582307
                          Major page faults:         1176
                 Voluntary context switches:         2823
