LAMMPS data file via write_data, version 2 Apr 2025, timestep = 6110000, units = metal

1000 atoms
2 atom types

-0.6922998397712732 26.212911415261914 xlo xhi
-0.6922998397712732 26.212911415261914 ylo yhi
-0.6922998397712732 26.212911415261914 zlo zhi

Atom Type Labels

1 H
2 Si

Masses

1 1.00784
2 28.0855

Atoms # atomic

296 2 2.188714180829037 0.5033228376289693 4.968867123731371 0 1 0
250 2 2.402496836019901 0.5149936677728109 2.6271150132970833 0 1 0
159 2 0.3507036398326586 1.5769771109478223 1.8515609465628309 0 0 0
343 2 1.2850435480752993 1.6692939647384621 -0.2323501162723826 0 1 0
94 1 0.648865693440233 3.2118456612778594 4.047446123147485 0 1 0
632 2 1.7005612619539074 2.8506612112315484 5.0926880771622685 1 0 0
435 2 2.8998251749538597 3.3557974736620704 0.16508531856169306 0 1 1
689 2 6.481699409405904 4.574591737438841 -0.5643601805420891 0 0 0
421 2 5.907366929631834 0.6452574993630604 0.5002854460048725 0 1 0
952 2 4.762993438677155 1.2156611227185001 2.486481993493491 0 0 0
498 2 5.641620306396375 0.972256362321773 4.745383872582491 0 1 0
334 2 8.020676793849432 0.44230724789446274 4.538228017682116 0 1 0
643 2 5.388516269933981 3.3174464093074683 5.61681484439397 0 0 0
1000 2 4.232568621193688 3.4639209663745607 2.2596403292669955 0 1 0
156 2 8.234345309782572 1.3559404653439784 0.3783735883259862 0 1 0
371 2 11.896524723725168 12.168475192627731 2.3170984011129954 0 0 0
473 2 6.603347363280166 12.000829929996934 5.898454898359402 0 0 0
259 2 8.76752865626915 1.8043529346411504 2.754237235162765 0 0 1
322 2 10.991336592679245 2.017721968937425 3.73922897840154 0 0 0
43 1 11.635708538997363 11.100994057488794 5.643983491165109 0 0 0
863 2 12.100263382899353 1.052591489615977 -0.4608100612251249 0 1 0
891 2 9.574283016385433 1.7345160179644 5.870433984619443 0 1 0
483 2 11.164692189504116 9.292160751267431 -0.2083639376838387 0 0 1
490 2 -0.3103717817300474 3.8675868340607487 1.4382402795877676 0 1 1
367 2 1.7503159585034584 7.343648341116793 3.3055896519170402 0 1 0
212 2 1.192975906971868 7.051748256809453 0.9650178476936557 0 0 0
405 2 1.4229149014185478 5.044398484823961 0.03144806722417559 0 1 0
163 2 -0.2287891478606749 6.6982096442500705 4.246006711764781 1 0 0
615 2 3.6475461266048557 4.12365043754878 4.3262354050380845 0 0 0
767 2 3.580028311436176 6.458403341271139 4.368565612984628 0 0 1
579 2 8.88757374818178 12.016497097796783 5.357468477955607 1 0 0
240 2 6.147883721689216 4.826310053953225 1.8829069996179744 1 0 1
598 2 5.408298141129262 7.084039486638479 2.7282565058778734 0 0 0
419 2 7.45842251912646 4.585419897884755 5.231595156221771 0 0 0
978 2 8.109437726947192 4.094593333746028 3.1537606244285112 0 0 0
992 2 11.034623183749604 4.875160797654472 5.822637527280285 0 0 0
804 2 4.893248311252963 11.861907603885829 -0.6164462971914091 0 0 1
74 1 10.419472327791087 12.130752794501763 2.533589802614468 2 0 0
23 1 9.14495630876832 5.120013509247625 2.8019607135744944 0 1 2
452 2 12.03842129172492 3.9487148872216773 3.917649047348905 0 0 0
792 2 10.130110551142293 6.190635631479106 1.4659109502111751 0 0 0
806 2 12.227166002678992 5.817593448509008 2.3761560383491824 0 0 1
547 2 10.125163010857843 4.684528791141485 -0.39870953864472336 0 0 1
409 2 12.355498624409266 0.13162727212259118 3.2068103137709145 0 0 0
903 2 2.6720207754098255 8.45681761951026 0.0073848076206018964 1 0 0
20 1 1.8698464744349623 9.990171333377564 0.05274000970108772 1 0 1
915 2 0.4297080786740235 11.11858893643307 2.3424309467498943 0 0 0
508 2 1.6584141734423796 9.698436615125283 3.9581722269037964 1 1 0
211 2 -0.07491637152069386 10.164502350622245 5.453887816208727 0 0 0
399 2 0.38080846711909033 10.495759093528742 0.21048822574575055 0 0 1
437 2 12.205993046369676 3.499479614942836 -0.5229197648972581 0 1 1
315 2 3.7539509047465147 10.690061977786943 4.6582085441236005 0 1 0
101 1 3.955705403425247 9.669769608937841 2.4422729170880966 -1 0 1
618 2 7.0081617633815965 8.047250012791785 3.9756065886471195 0 1 0
724 2 4.49342645075139 8.670609816946715 1.4529137752808636 1 0 1
894 2 5.94204836447898 10.860995511241471 3.9478703742424903 0 0 0
24 1 7.136337582281202 10.463973563826626 1.122906201653326 2 0 1
681 2 6.118869465624649 9.858463928734992 0.11762638555479155 0 0 1
652 2 8.14423375787216 11.440021483055766 2.9950005158223405 0 0 1
66 1 6.124121717374687 9.192129860036976 4.564209613271876 1 1 0
359 2 10.641125882702191 8.526701678657245 4.570726695579128 0 0 0
626 2 10.469607754189882 10.349513296716673 5.922263293607007 0 0 1
870 2 9.173501283720285 8.282830907117376 0.9632506164640788 0 0 0
214 2 12.57932602617202 7.582601155506952 3.776121161395457 0 0 1
900 2 8.90241389923505 9.172935560707932 3.069724316581769 0 0 1
495 2 9.968560373031318 6.864666434730182 5.996942777033816 0 0 0
253 2 7.684243782930615 6.78397978877108 5.84270285893173 0 0 1
672 2 12.715080539813941 10.491647772788541 0.9513762658335823 1 0 1
236 2 0.26028568740004454 -0.5600404621172717 5.817205103511818 0 1 1
610 2 3.2326586035667244 2.3965862321066203 8.526563690217383 0 1 1
791 2 0.25078898045021314 -0.26157508850605293 8.069382609682625 1 0 0
673 2 1.7019941737292812 2.908420810006576 10.030200576420206 1 1 1
865 2 0.0604895488224555 3.2313507787216342 6.6602457350945405 0 0 0
620 2 -0.15787146563659782 2.0462102718430177 8.661531890055464 0 1 0
39 1 2.7693927936745997 2.6063061597065684 7.066029236917669 1 1 0
111 1 2.496260536043143 0.7110023077082539 11.701792499678673 0 0 -2
907 2 4.083310307210653 0.16963356621617665 8.540097609212141 0 1 0
338 2 6.791393353372601 2.4668682070715797 9.346874501250612 0 1 0
76 1 7.308292371504507 1.1589620653563446 8.901114042030494 0 0 0
107 1 6.2531662031102435 2.1247110979256623 10.657778131496757 -1 0 0
454 2 5.136697867392727 3.669853377584988 8.014470769482278 0 1 0
72 1 11.079933692578887 1.08003460895818 12.57234393508847 1 1 1
124 1 10.820219863388223 0.061669740082749946 10.128987687794888 1 0 -1
155 2 11.341380233089884 1.239741939415713 9.397863870989262 1 0 0
565 2 11.182775171466536 0.686338886241884 7.06497096917537 0 0 0
588 2 10.43100379310052 3.131603721612314 10.409996512403877 0 0 0
758 2 0.11507383104515156 5.4144994415595065 7.883582653180085 1 0 0
237 2 0.92630104353646 7.025180081246892 6.585002654495931 0 1 0
937 2 1.5189209956475773 5.281529141969853 9.80998859684323 0 0 0
316 2 3.3223083655630505 7.052040717174512 6.572297046989409 1 0 0
106 1 0.6789998575553424 6.165997603447237 10.641342166129876 1 1 0
44 1 0.7581793296132364 8.21784475869225 11.101622404865156 0 1 0
636 2 3.71066012422013 6.378213531924757 10.009876917605558 0 0 0
830 2 4.874967180756471 5.9304542486564324 8.031924085045425 0 1 0
875 2 6.604796376799871 7.347479326444537 7.824934171492737 0 0 0
93 1 4.389997133495755 5.642699291217088 11.17957993832675 -1 1 0
749 2 8.322860250768814 5.448555023161127 10.758201170295793 0 0 0
585 2 9.107982019522888 3.861720083043716 6.782289354101855 0 1 0
655 2 12.271013925474584 5.443053210685264 12.450895645892416 0 0 0
858 2 8.256678288084547 7.500736036114462 9.591036295955574 0 0 0
935 2 12.258694876533927 4.616493874799049 10.292437252302808 0 1 0
210 2 8.622998333762943 3.79051638832284 9.07519053726362 0 0 0
786 2 12.134182319723843 6.497215263386972 9.04431986912989 0 0 0
938 2 10.163146709616258 7.2307964922512316 8.253485274249504 0 0 0
352 2 10.805309913455405 9.651141393656545 8.205316504815826 0 0 0
510 2 11.416999972118386 12.046874537491709 11.00901481327238 0 0 0
965 2 1.3669272242083563 9.348264647800509 11.748416951868608 0 0 0
838 2 0.46236914934991025 9.101606815121684 7.470604194146601 0 0 0
888 2 2.9402496917430536 10.365965731154526 10.342741410496096 1 0 0
670 2 2.3486127691050434 10.277759562676637 8.166999089199543 1 0 0
631 2 -0.37764017115937176 10.741419353981955 12.284911003205595 1 0 0
281 2 3.70249117495264 12.447599716387352 11.333585912895932 1 0 0
442 2 3.86074886274728 9.39359898850637 6.731872874102254 1 0 0
609 2 10.09884315088872 4.622891280204187 12.500758843622206 0 1 0
224 2 6.213513230087786 11.817299172261635 8.1489996377609 0 0 1
438 2 6.329821498717732 9.615566553056604 11.911472546512359 0 0 0
617 2 5.937125537544788 12.030102432339476 12.24021272453104 0 0 0
462 2 9.778327623858107 10.867331785117317 9.825131926246996 0 0 1
403 2 5.5133051740095675 9.46742820681874 8.182827424259902 1 0 0
730 2 4.731164525445037 8.81615745167004 10.249888620752818 0 0 0
505 2 8.218770432073415 12.519707507758218 9.324301783534512 1 0 0
577 2 12.37837926876466 7.73770509365383 12.446818736635896 1 0 0
185 2 8.59881613586538 9.186164556748693 11.146925074755453 0 1 0
882 2 4.015616205467174 -0.0982194493341364 6.076274011572884 0 0 0
872 2 2.2818490469811 12.690616959418431 8.18391474706329 0 0 0
120 1 3.305018559831513 -0.03915358093435961 16.493839401784253 0 1 0
109 1 0.639430798243869 2.6553113790975353 18.758609283128592 -1 -1 0
908 2 11.560843912170116 11.539699279864744 14.742972154737894 0 0 0
939 2 8.714113106236052 10.562292994868853 16.92200490145641 0 0 0
59 1 4.619629035701547 3.518664188609965 18.796298905640636 0 0 0
128 1 7.870258075817736 1.7733881551312436 18.99270250533488 0 1 0
60 1 8.353747266367144 0.4175334857760622 16.61968703670669 0 0 0
157 2 11.773310481956416 1.725086661338612 18.42251535403493 0 1 0
51 1 8.943587025563692 2.829497110326471 17.976557796293104 1 0 -1
245 2 11.641820364318976 1.497721688870421 13.860494627797452 1 0 -1
810 2 10.302060392832905 3.259149546696724 14.444991159681647 0 1 0
67 1 9.014684648014658 2.727109188713965 14.986189762825898 0 0 1
566 2 11.522814543174261 -0.44804314281541074 15.22691321906443 0 0 1
601 2 11.635393184358362 9.388808811753377 18.50737960434969 1 0 1
36 1 6.410410804964737 8.455351766921215 19.442216466070242 3 0 -1
129 1 1.9216524506011248 8.987568258611786 13.106590237258528 0 1 0
2 1 2.207902466092069 5.048612683232382 19.229653515241026 1 1 2
849 2 11.451131251323304 8.228053008292887 16.343672660224 1 0 0
91 1 0.44128098868062837 -0.5387458007663236 14.146985575051568 1 1 -1
148 1 6.485273082232758 4.938757124928116 13.276638878062121 -1 1 1
599 2 6.390129300804034 7.139102290816875 18.699008825914333 1 0 0
812 2 5.486398212247869 7.929839463446701 13.437850380145788 0 0 0
369 2 4.3494118987227575 7.738476519844838 17.451723330605663 1 0 0
285 2 10.089010805020475 8.45057268706153 12.987034241178701 0 0 0
379 2 10.250196783534482 3.4786190037756386 18.101740526964107 0 0 0
549 2 8.762938124939984 6.913940924255666 18.14542021461636 0 0 0
752 2 11.076915327794858 4.511205946626255 16.22972088214559 -1 0 0
983 2 9.788601185229968 6.396950694735838 16.013532814860866 0 0 0
755 2 9.11353817520828 6.4104559290025875 13.842505782071811 0 0 0
204 2 -0.3396297711722767 11.482833138060641 18.170937101013745 1 0 0
909 2 2.4703086005242625 11.063168343848629 14.970077820997355 0 0 0
443 2 2.971214914864357 9.225275111686868 18.640506731870097 0 0 0
951 2 0.757430410120393 12.076929594470112 13.721754320768259 0 0 0
596 2 1.7430538132858717 10.70959421583693 17.203787030287792 1 0 0
85 1 2.2274793718179535 11.9978284410362 17.83412934677072 1 2 0
621 2 7.052251806365812 6.178424682400032 12.96283329744134 1 0 0
77 1 3.633540924923377 10.014191168383903 14.868163896770138 0 1 0
90 1 7.680977057041286 10.170721550271105 14.376450094158328 0 0 0
842 2 6.904880428952565 10.488804247070162 15.573300831618898 0 0 0
12 1 6.556357390889921 10.903516034098178 18.29362976549228 0 0 0
661 2 5.92602343599063 12.40144762624305 14.467893302513392 0 0 0
221 2 5.2089810603473286 8.934477646940431 15.582045516209377 0 0 0
660 2 9.31805298429909 9.086291905540694 18.614004016826755 0 0 0
110 1 -0.19666235494228218 6.210714711032874 13.002905235269964 1 2 -1
707 2 12.043989612991584 11.59884957656305 18.782883679190824 0 0 0
732 2 10.268106951338844 9.777933667871428 15.016076752802123 1 0 0
5 1 2.6146386939718163 0.16159802946686475 18.974734769891263 0 1 0
142 1 4.238194052651383 7.378354682989075 13.08776964575414 0 0 0
73 1 -0.07874306171312595 6.980849690777432 12.89904349431681 0 1 0
825 2 11.465387109554687 12.7085766380376 16.757925000499874 0 0 0
105 1 0.08513898876821069 -0.2263725103098671 18.628275187653152 2 2 1
640 2 9.333068904484879 12.655812280890997 17.725187205308675 1 0 0
203 2 9.953165943340357 5.387838229513787 19.46195652371105 0 0 0
418 2 6.018895676429293 11.712697788806265 19.44207501143267 1 0 0
977 2 2.2021810622496 1.9076474550170097 22.596046459122284 0 1 0
249 2 0.42945050810670593 0.8997734573221849 21.704974749784952 0 1 0
233 2 3.260795451137567 0.40133296096284266 24.081625629760364 0 1 -1
656 2 -0.38463411668479774 2.1311502213479274 25.080801380344095 1 1 0
511 2 -0.19670904190145605 2.2688644274584298 19.87878694065188 1 0 0
691 2 3.3917022609379117 3.6060813219040266 21.749401175991803 0 0 0
280 2 0.5155204625398133 3.560863257076396 23.437492288063073 0 1 0
701 2 2.1512983643397487 -0.39809630173252314 25.881151338258192 0 1 0
773 2 6.973109625921241 2.023711943214773 20.255464462648312 0 1 -1
206 2 6.8005959945587255 0.2918338065864786 23.66695645953146 0 1 -1
187 2 5.190914837510773 1.119544469191346 25.150582975795977 1 1 0
927 2 6.4675566554113475 -0.06747415562923909 21.26421837459183 0 1 0
527 2 4.7289015098864 3.289424384193551 25.57762376350747 0 0 0
264 2 5.144082838030526 3.6222812447295354 20.150644415665845 0 0 0
355 2 8.548305324417349 1.9160126424003874 24.088293421026016 0 0 0
807 2 11.484005337648915 0.1622671395727041 20.093159017168723 0 0 0
365 2 8.516525640672105 2.8977109429317376 21.85967027244513 0 1 0
406 2 10.50275408124268 0.5555686176217374 23.65110050786646 1 0 0
946 2 10.618016591079343 1.6945162432197436 21.57891048136262 0 0 0
19 1 11.643172039965611 2.8366989674891663 21.308327692031533 0 0 0
917 2 8.286375037276787 3.3158754467539984 26.047520090540875 0 0 0
304 2 1.8648921822503879 5.028668758130428 20.70518653324107 0 0 0
688 2 1.3525787760700907 5.241693727510109 24.58723436121634 0 0 0
528 2 2.4653514528599443 7.136189618708916 21.494679607226328 0 0 0
999 2 1.4338545592117686 7.268933639056588 23.642160755573315 1 0 -1
207 2 -0.2665660497477846 4.185697509742252 21.13594896140861 1 0 0
180 2 3.8980670217226674 4.74972769365894 23.94260474368288 0 0 0
678 2 7.687136173658574 8.381712390076304 26.14192442080437 1 0 0
265 2 6.136570051290721 5.666372940603854 20.442973158845007 0 1 0
551 2 4.768241732202582 7.1182026826950295 21.74834208782676 0 0 -1
847 2 5.017359520068942 6.827364197768661 24.041232543723233 0 0 0
188 2 7.184598739238663 6.4348305506506795 25.015022778192765 0 0 0
788 2 8.347794768633163 5.259431263303049 21.391556403582747 1 1 -1
543 2 11.889047386494854 3.963924919009589 24.189909260590618 0 1 -1
381 2 8.884862913961982 6.554842859045719 23.223916425454348 0 0 -1
654 2 10.679531273898387 5.878331779651386 24.607714160519002 0 1 -1
362 2 12.087337349566516 7.793260748028498 25.023826742130602 0 0 0
504 2 11.891511402470714 6.131903974456796 20.62060212000717 0 0 0
63 1 11.541091531509693 6.529779281601655 22.036762137498847 0 -1 1
178 2 2.431911536091791 12.594337527982619 20.863435604647172 0 0 0
248 2 8.789145132546798 9.823985117462081 24.57550748179499 0 0 0
669 2 3.2869144106276345 8.371666075441357 24.63580132914083 0 0 0
848 2 1.4283159943350077 8.91393605258689 20.53012224851772 0 0 0
703 2 1.4365668390714634 10.713119069257498 22.042857003595902 1 0 -1
317 2 -0.1423640365583293 11.966021326748415 25.496071024498708 0 1 0
641 2 3.3560141641664307 10.44607511947985 23.418793650720982 0 0 0
731 2 -0.5543100301259534 7.807869982296902 19.68540001601455 1 1 0
996 2 3.9563367439088077 10.922330854792047 20.02834870570864 0 0 0
82 1 7.7762429834233195 10.958908521465721 23.98769263763834 0 2 -1
700 2 6.854607832904451 12.360757566480748 23.145056614662536 0 0 0
241 2 6.877323449127645 10.804422665590463 21.41198512592311 0 0 0
746 2 5.043603397630179 9.519579086500046 21.65713805940344 0 0 0
256 2 4.667349311627117 12.38404662547749 24.046098794947472 0 0 0
988 2 10.143761106754477 12.12244748525797 19.97050532622765 0 0 0
239 2 11.990987269955763 9.137129646542775 23.125984463703517 0 0 0
193 2 12.216186013101963 11.320976231754829 24.187828945787786 0 0 0
934 2 9.101609021954351 10.05922217980605 20.813230591166434 0 0 0
987 2 9.763899808049555 8.818763686183347 22.812455706362524 0 0 0
349 2 10.328166023657797 11.124829419437205 25.595360047576467 0 0 0
518 2 -0.5284717249416803 10.699699363172883 23.4617752994047 0 0 0
991 2 9.9192420631016 0.1296617793953141 26.119837700776376 0 1 -1
25 1 1.0008194005708024 14.206236621199388 2.5798065217902275 0 1 1
170 2 -0.15734086599480301 14.397652241667423 5.768172728532789 1 0 0
764 2 3.0816404570680884 13.181333184391137 0.40858697589016724 1 0 0
916 2 3.212163203434433 13.101107356078494 4.263344169056321 0 0 0
145 1 12.520630576003699 21.476126506157456 2.2037094701048434 0 -1 0
696 2 3.8132626039856667 16.66487957223435 0.152940546900182 0 0 0
899 2 3.9369629736136202 16.93711109265291 4.199368622273022 0 0 0
273 2 4.6081387014814705 14.760141979578083 3.582966317363078 0 0 0
693 2 4.608353895825198 14.828408914611988 1.383397473679075 0 0 0
413 2 6.207815495239326 13.613742240483884 0.23780441450987855 0 0 0
231 2 6.210508616010891 14.194981004590964 5.299418460473442 0 0 0
587 2 8.121741833406684 16.723959301877592 0.880326214970325 0 -1 0
227 2 8.383302659939012 15.308420595740397 4.8237638724446885 0 0 0
650 2 8.225356007368294 13.114828329088718 1.3449552427309093 0 0 0
932 2 9.80699580205769 13.160626964391977 -0.33290251009544736 0 0 0
401 2 8.899626638557491 15.138278721567188 2.42602617074992 0 0 0
361 2 11.729573592617703 13.98657012477879 0.8122755695613499 0 0 0
197 2 11.143624419650703 15.81759080646794 2.1893276273792 0 0 0
133 1 12.038656103477049 15.866862715811052 3.4743309746143476 0 -1 1
140 1 11.357897122686722 17.27378319967359 1.8255344012550223 -1 -2 -1
168 2 11.749584875132603 25.018905989091657 4.08391188858999 0 -1 0
354 2 9.982864052839064 24.266063199341147 2.86601162335784 0 0 0
760 2 1.6606276674831202 16.991067592870312 0.5575536054410897 1 0 0
427 2 1.814514623560295 12.95377348462131 2.4142876747571775 1 0 0
890 2 2.0312552187903474 17.86657140870171 2.9049340353478446 0 0 1
705 2 -0.05647035080670393 17.895431979794648 3.8066662256486232 0 0 0
570 2 3.3343522429264487 19.916771926991224 2.154963098595116 0 0 0
718 2 2.2908813817105598 21.11799168329496 0.5297503409965194 1 0 0
750 2 1.075919981703046 21.1861604649938 5.847560205682492 0 0 0
31 1 9.71179672568373 22.783158380489304 2.941228331024256 1 0 0
684 2 8.28006459882492 17.538070809428238 5.216602261466074 0 0 0
697 2 4.747856817433401 18.78057295925648 0.6833188944581532 1 0 0
257 2 6.676120422614218 18.58991584461363 1.762267631486754 0 0 0
364 2 6.228417494337244 18.09895678114674 4.017269373177697 0 0 0
532 2 3.8490713318250753 21.53031524461252 3.6463848228257136 0 0 0
780 2 7.399468974788855 20.84355095789614 1.910311197220488 0 0 0
47 1 6.073781207930993 19.47362478003345 4.457360135467571 0 0 1
922 2 9.602970054523766 25.00103192144284 0.5423424003146646 0 -1 0
581 2 1.344493453068727 19.08551257949075 -0.624935557005175 0 0 -1
53 1 10.909924366626994 18.55032870621866 0.4355652611725973 1 -1 1
17 1 8.774683725746215 20.617162542788037 2.442734075220282 0 -1 -1
123 1 10.976995155185914 21.190296689749033 1.4143724440718985 0 -1 0
574 2 10.770848296661724 21.426495989317516 -0.06938975689002291 0 0 1
940 2 9.757061790228384 17.871777144542353 -0.24929467600875987 0 0 1
174 2 3.3386318769277405 21.051010582920615 5.913445532745504 0 0 0
887 2 0.4250520872622665 22.24358278079097 1.7240833516306244 1 0 1
398 2 0.6889765026807226 22.66707646187199 4.049591337261229 0 0 0
595 2 2.794279107547079 23.738707901894053 3.812596019263304 0 -1 0
220 2 2.276124461108842 25.06307874655732 2.0206777505272893 0 -1 0
514 2 0.13460797277271142 24.377099737863634 1.1025656051186472 1 0 0
855 2 3.538857404967241 24.94159515219559 0.09606635501025607 0 0 1
523 2 -0.5189643621737053 24.177720214223633 5.341690430064795 0 0 0
925 2 12.210259520513366 13.903849805493186 5.920805652245759 0 0 0
28 1 6.734320644046389 21.66098483201607 4.887894330658927 -1 -1 1
272 2 7.105968145249061 22.06741096400634 -0.11140011655092252 0 -1 1
415 2 8.30377735282357 25.127820911571256 4.191233681703303 0 -1 0
694 2 7.442502429780333 24.436673023756462 -0.19123220071381608 1 -1 0
928 2 6.138838748238886 22.06106686235178 3.534247687150425 0 -1 0
884 2 4.326304014096558 24.740167305899508 5.165337891663717 0 0 0
967 2 5.739294967246941 25.276822077635625 1.0102035318373128 0 -1 1
772 2 5.9655271067597715 24.377419451612912 3.4362070849322386 0 0 0
989 2 -0.20759524434130672 19.242143833151573 5.838118361196166 1 0 0
22 1 4.7569494619726065 18.511128704791485 5.946589292290685 -1 -2 -1
614 2 1.1436115638926752 15.138514261777086 10.774110828365684 0 0 0
374 2 0.3680828361279369 13.414428620891897 9.213372509897859 1 0 0
195 2 3.087963933143568 16.480753458594073 10.050591998889738 1 0 0
217 2 1.9210487010301653 13.670122303822767 12.412315357048897 0 0 0
387 2 3.288010925416747 16.170839831916933 6.370072072020618 0 0 0
70 1 12.170705529496143 23.409982040021422 9.67958467929515 0 -1 0
542 2 4.948938296614724 15.293019534562172 9.171963343446853 0 0 0
357 2 6.7304421078085745 15.587738234261092 10.496315023388524 0 0 0
487 2 5.538801009016077 15.680011195506896 6.897799915632553 0 0 1
172 2 7.655685872271723 13.559701780916452 11.39032570717281 0 1 0
827 2 9.86999764949993 13.96582773913676 6.09660106054246 0 0 1
279 2 8.474416671891406 16.233861482153035 8.979975021397335 0 0 0
642 2 12.224584446935147 16.464104791470277 12.273667351697428 0 0 0
779 2 9.681373656835964 14.238725729285674 8.410750204105984 0 0 0
230 2 11.789460214014584 13.841592933233825 9.610699237037498 0 0 1
213 2 9.844469203258411 16.486594499182985 12.471305477533077 0 -1 0
347 2 2.6657398788587576 17.829169868403397 8.082206923064025 1 0 1
564 2 0.17220372257246086 20.226451550574595 9.57661391963959 0 0 0
623 2 0.45992832550317253 18.321114988101872 7.904693736768952 0 0 1
728 2 0.8406695406905829 19.961832176938795 11.717656549506001 1 -1 0
302 2 3.1441963886011317 19.463983581393325 12.006026219249113 1 0 0
32 1 3.408475747609363 21.86595938358534 10.778506045071822 0 -1 0
149 1 3.6981463139276824 19.932559767844236 10.671122008067451 0 -1 0
578 2 7.276422818707602 17.3396478849956 7.273767019486878 0 0 0
881 2 4.038568649902859 17.411662698639294 12.144772090988074 0 -1 0
538 2 4.29791756537246 19.249923201750143 7.164462851039301 0 0 0
883 2 6.290362750158055 17.711079680477393 11.673776388702496 0 0 0
491 2 6.276739300146138 19.173306422212967 8.279537671353035 0 0 0
286 2 6.728030336962313 19.888447224872124 10.465730539895022 0 0 0
48 1 12.058230118158697 20.832824713719678 10.607235765574707 0 -1 1
458 2 9.537901498010923 17.524248952178873 10.374155485779983 0 -1 0
87 1 11.057910089111857 17.75801406780351 9.862186248597883 -1 0 0
429 2 9.051123999559149 19.719875202226778 10.827727958807923 0 -1 0
134 1 9.727953874910172 20.666985691450503 9.895958290906876 0 0 1
411 2 9.273893780901984 24.317405618532614 12.152483905647584 0 -1 0
113 1 0.9485173472628619 25.919388750935695 12.067651093130461 1 -1 0
624 2 2.272450478353141 26.100899740169428 11.421966676623127 1 -1 0
6 1 1.4937167630420127 23.154454359746293 11.37381569668072 -1 0 1
208 2 0.6428394043277925 22.417927409014684 12.332980597691577 0 -1 0
559 2 0.7257732394085028 22.037406146584225 8.043606985223892 0 0 1
324 2 2.6466760279992863 23.454620213855637 8.386290677856092 0 -1 0
348 2 2.2109357948583965 25.81986817259256 9.198868248710891 0 -1 0
814 2 3.961158722726254 24.561374697808013 11.95326373317425 0 0 0
710 2 4.359285787511407 13.121467106908383 9.118634004430733 1 0 0
933 2 8.909290406162718 24.669614059804548 6.411813199145043 0 0 0
516 2 4.178222576725299 22.992834665001688 10.153226999916141 0 0 0
388 2 6.534141378000904 22.21436766879772 10.622564443664286 0 0 0
75 1 7.11596756662578 23.12742609288084 9.56042065890242 -1 0 0
45 1 5.517473365433808 22.880157725985445 7.419576845166892 0 -2 -3
753 2 4.229875101784892 22.960170420266778 6.689166363310182 0 0 1
92 1 5.177281513563664 25.426039460746296 11.987262181717787 1 -1 2
115 1 11.55495328183666 21.449626203146103 6.479458884986687 0 -1 1
644 2 12.294927596078276 22.233263157750965 10.769922898644703 0 0 0
674 2 11.154256142222915 25.46191778036253 6.347025651980548 0 0 0
926 2 -0.6812159431067523 16.461594042941925 11.18070448498169 0 0 0
524 2 12.240136826005774 24.1281617403551 7.970550384101957 0 -1 0
122 1 9.303283035790308 24.645114512995786 10.741348056209663 -1 0 0
590 2 7.409503788866505 23.11147401922021 12.535579997732631 0 0 0
657 2 11.433376126881106 23.237516231889423 12.64622399072211 0 0 0
50 1 12.072259224976673 19.401890562048525 12.738161263643551 0 -1 0
1 1 8.619698231225398 23.25938451728979 7.147021972932693 0 -2 0
502 2 2.2548723235513934 14.202942778828787 6.155081912921358 0 0 0
97 1 12.594843561110604 15.297639626318613 6.066462857347219 0 -1 0
857 2 1.7863320055130631 14.733867080983657 17.831503502290104 1 0 0
602 2 0.6809055636610322 15.158159190949636 15.528089291783278 1 -1 0
198 2 2.6859042805009024 14.622371932811403 14.347593406369388 0 0 0
864 2 2.400948638418256 17.133090233484605 18.139671354867566 0 0 0
274 2 0.8846563410489405 13.209260434684282 19.432782937799715 0 0 0
150 1 9.993446895642652 25.866154754668305 15.856429857740665 0 -1 -1
589 2 3.846522940949905 16.637624076432076 14.349575117789591 0 0 0
310 2 4.023448326481502 13.992777034467705 17.242038215168307 1 0 0
3 1 4.672580063837819 15.210544048703582 16.68913844404793 0 1 0
709 2 6.0544183796006665 16.3978521536708 15.092203055318631 1 0 0
567 2 5.953736207044991 13.859091691751884 18.780521011457015 1 0 -1
494 2 7.252457263818566 14.326116823096642 14.921045805801915 0 0 0
289 2 7.744246246724996 14.30150423342453 17.21570148308237 0 0 0
947 2 4.5369859696313 17.107557166301994 19.20483716122087 0 0 0
930 2 12.708090754383958 24.738370597077065 14.0883588004416 0 0 0
622 2 12.450702668904231 14.842254366961816 16.083496060126425 0 0 0
714 2 8.257844607636457 16.594287655330366 17.76265860789978 0 0 0
923 2 11.90977930646611 16.90304717342116 16.819138753488147 0 0 0
420 2 8.989477406615284 14.350659725087581 13.15743994408501 0 0 0
787 2 10.832856147303467 12.966332863253816 13.062731078038977 0 0 0
34 1 6.427618592627239 23.96981390770588 13.320966804956646 1 0 -1
856 2 0.3769429682985739 17.44715771153876 14.885326353958835 1 0 0
507 2 2.471583515013685 17.82231781484213 15.890785150256907 1 0 0
982 2 2.753879856484741 20.166125718096666 15.916472098959225 0 -1 0
808 2 0.4553050539281056 18.097247606750074 18.715969165101118 1 0 0
464 2 0.7608190826695755 21.276996705710925 16.071084059702134 0 -1 0
737 2 6.100751758110977 17.481254597103888 17.180615551364028 0 -1 0
292 2 3.9576668186637614 20.742565569598227 13.910603223978919 0 -1 0
434 2 4.1955598197221144 20.73046874817546 17.67546415770537 1 0 0
266 2 6.991973505937151 18.12471885101177 13.881220664250064 0 -1 0
676 2 6.038806447238935 20.151678206882902 14.57316886343353 1 0 0
592 2 6.238030320532853 19.715306811471056 16.846204537454362 0 -1 0
603 2 7.845768069548425 21.47520794781866 14.217862935394805 0 -1 0
815 2 8.075098342679258 20.850625016183688 17.94774377526305 0 0 0
972 2 9.704028334204832 17.527642170033783 16.111078055677808 0 0 0
553 2 11.795675000477397 20.44832287697794 16.90468605626862 0 0 0
649 2 9.265674752499134 18.25343204444111 13.971181370822533 0 -1 0
841 2 10.213979983709795 19.779724813391404 18.76123830434272 0 -1 -1
635 2 9.507344435499466 20.309360634124037 13.020255740830311 0 0 0
78 1 9.388251612060465 18.92750409012603 16.714377997180208 0 0 0
283 2 11.236290815380807 21.59576274351556 14.222982696977393 0 0 0
658 2 -0.5691102079197641 18.2248772174467 12.799713957067507 0 -1 0
889 2 10.751553330163368 22.53248855409082 16.367072327357064 0 -1 0
712 2 0.9551847442836194 25.246312976726777 14.983998887115513 0 -1 0
294 2 1.4176859616953692 22.96032832498038 14.371259151422246 0 0 0
742 2 0.45467144911772306 22.94253069812358 17.812813697308222 1 0 0
834 2 2.3971604986999684 24.106313155305944 17.936142384670127 0 0 0
238 2 3.01138498034315 25.56975092267456 16.173307465074025 0 -1 0
722 2 8.453924433237878 22.425287424619412 16.189349659991212 0 0 0
465 2 12.603323475997021 16.488069028153873 19.150127245300457 0 0 -1
269 2 3.665374345180986 23.132028556584743 13.83883868868345 0 -1 0
873 2 4.928221782527288 24.282341843082254 15.679222653086025 0 -1 0
583 2 7.286492813820951 24.370092391014044 16.746713792570553 1 -1 0
686 2 6.039333005221292 23.924725820034322 18.740874919761417 0 -1 -1
682 2 4.4721848823505415 23.042885826706247 17.49433357337344 0 0 0
331 2 11.602076969659002 23.866596940867574 18.266234360375027 0 -1 0
980 2 10.03714006727833 25.56356680415658 19.162693079432938 0 -1 0
261 2 8.936186664949147 26.053243158830394 17.118341717663146 1 -1 0
879 2 -0.6421350071771191 24.46358923607413 16.489918971381243 0 0 0
949 2 12.637219172065235 14.654452343415999 13.784036582197484 0 0 0
408 2 3.862578717791761 12.832902125857554 15.28120831363066 0 0 0
16 1 9.37672647931513 25.55970674714363 12.856637942774016 -1 -1 -1
449 2 1.7077777554264286 13.544083204379053 25.607791088102008 1 0 -1
832 2 3.126098007035576 14.730216672160152 21.745488980552626 0 0 -1
619 2 1.5240672812739313 16.742334298914837 22.101552804803973 1 0 0
531 2 0.038969785967772674 16.180729069346555 23.732120051098445 0 0 0
953 2 -0.17696965546305565 16.82375383546195 20.482316138689377 0 0 0
556 2 3.2540119899838813 14.393896728165114 24.095837060738564 0 0 0
42 1 0.2025094360356623 13.148652946603027 22.757621361959924 -1 1 1
924 2 -0.4275157653850209 24.2226623378696 22.206120300659908 1 0 0
994 2 3.8855073819278134 16.597837488918792 24.850944619482583 0 0 -1