ITEM: TIMESTEP
253495
ITEM: NUMBER OF ATOMS
13000
ITEM: BOX BOUNDS pp pp pp
-1.2758610775737231e+00 5.9197044683749603e+01
-1.2758610775737231e+00 5.9197044683749603e+01
-1.2758610775737231e+00 6.8284051071808378e+01
ITEM: ATOMS id type xs ys zs
1 2 0.229925 0.540828 0.481093
2 2 0.281956 0.890317 0.827673
3 2 0.0731795 0.336573 0.244133
4 2 0.195135 0.488962 0.304589
5 2 0.200433 0.390274 0.843515
6 2 0.0341021 0.14386 0.76889
7 2 0.0250765 0.117267 0.217362
8 2 0.478667 0.975297 0.901241
9 2 0.230815 0.457602 0.347911
10 2 0.317824 0.394051 0.817286
11 2 0.385721 0.0643399 0.834585
12 2 0.446272 0.314936 0.438506
13 2 0.0297935 0.0512616 0.509343
14 2 0.327302 0.106641 0.5574
15 2 0.338126 0.329957 0.83582
16 2 0.360507 0.171855 0.33953
17 2 0.190234 0.215646 0.0678163
18 2 0.232982 0.507959 0.404046
19 2 0.102537 0.667579 0.343366
20 2 0.0386978 0.904115 0.916831
21 2 0.217762 0.171591 0.306092
22 2 0.33106 0.0301781 0.360967
23 2 0.967301 0.291669 0.333868
24 2 0.668387 0.571588 0.237057
25 2 0.951792 0.428818 0.371713
26 2 0.568207 0.66628 0.924978
27 2 0.240471 0.925613 0.537925
28 2 0.288329 0.934342 0.949731
29 2 0.314402 0.905661 0.202327
30 2 0.451724 0.931275 0.272181
31 2 0.850809 0.45503 0.316798
32 2 0.074839 0.584541 0.409446
33 2 0.0489827 0.760239 0.714637
34 2 0.0472264 0.659084 0.274529
35 2 0.363332 0.258802 0.629163
36 2 0.912974 0.0656845 0.296619
37 2 0.507765 0.417571 0.290122
38 2 0.57246 0.457753 0.135955
39 2 0.689942 0.529959 0.268254
40 2 0.141957 0.0302761 0.143384
41 2 0.843466 0.308008 0.140145
42 2 0.33961 0.936408 0.204054
43 2 0.120688 0.246771 0.103245
44 2 0.207265 0.386081 0.165442
45 2 0.143812 0.799935 0.726701
46 2 0.446265 0.272656 0.803254
47 2 0.0665615 0.157873 0.813439
48 2 0.735016 0.0826389 0.128877
49 2 0.987796 0.150808 0.493386
50 2 0.0491757 0.818761 0.226163
51 2 0.762627 0.223114 0.283378
52 2 0.997723 0.130207 0.0776687
53 2 0.176488 0.201372 0.372807
54 2 0.213441 0.148688 0.451485
55 2 0.986458 0.132816 0.181983
56 2 0.375914 0.481454 0.866914
57 2 0.864364 0.319351 0.292952
58 2 0.283786 0.201745 0.841927
59 2 0.250136 0.739997 0.333779
60 2 0.95923 0.682401 0.814391
61 2 0.17507 0.916718 0.893451
62 2 0.409317 0.361839 0.243388
63 2 0.258722 0.480849 0.395602
64 2 0.0659798 0.225012 0.268254
65 2 0.461752 0.00499656 0.180041
66 2 0.772499 0.588044 0.302782
67 2 0.0524325 0.958582 0.217688
68 2 0.375541 0.000272903 0.444191
69 2 0.180297 0.271473 0.0717527
70 2 0.192307 0.809914 0.143438
71 2 0.417859 0.442082 0.624407
72 2 0.260419 0.729412 0.365053
73 2 0.120992 0.545242 0.312457
74 2 0.211229 0.713525 0.866176
75 2 0.127904 0.840896 0.345495
76 2 0.58497 0.46438 0.20876
77 2 0.819336 0.282671 0.358919
78 2 0.206957 0.372092 0.784134
79 2 0.952178 0.878934 0.294702
80 2 0.688655 0.129879 0.227072
81 2 0.643471 0.461564 0.190056
82 2 0.360802 0.498207 0.707016
83 2 0.39744 0.363638 0.461567
84 2 0.271963 0.237783 0.146453
85 2 0.255089 0.0386271 0.126775
86 2 0.204724 0.93783 0.225713
87 2 0.268655 0.793586 0.454381
88 2 0.0584871 0.808189 0.945836
89 2 0.187171 0.951055 0.473259
90 2 0.0065172 0.997701 0.218309
91 2 0.339094 0.344125 0.372995
92 2 0.417148 0.257335 0.444661
93 2 0.511987 0.808676 0.239798
94 2 0.817117 0.0692085 0.116691
95 2 0.307772 0.438653 0.320444
96 2 0.185445 0.578877 0.280352
97 2 0.147478 0.698045 0.218288
98 2 0.276117 0.535261 0.440991
99 2 0.223591 0.0597025 0.121381
100 2 0.030208 0.0251566 0.646103
101 2 0.0719461 0.403647 0.0748383
102 2 0.5289 0.14211 0.202737
103 2 0.891782 0.921908 0.282183
104 2 0.535518 0.496002 0.354039
105 2 0.164999 0.249475 0.252632
106 2 0.00638487 0.218261 0.372246
107 2 0.521035 0.454844 0.399371
108 2 0.94014 0.971946 0.851295
109 2 0.139253 0.852189 0.296536
110 2 0.230103 0.660836 0.854937
111 2 0.671001 0.270087 0.214435
112 2 0.690515 0.359214 0.147998
113 2 0.798685 0.564707 0.0942005
114 2 0.618954 0.425134 0.254201
115 2 0.508703 0.609689 0.941687
116 2 0.238366 0.345091 0.820238
117 2 0.291516 0.244963 0.256517
118 2 0.0831777 0.190998 0.260729
119 2 0.374345 0.387122 0.297095
120 2 0.415321 0.246032 0.957949
121 2 0.908764 0.428436 0.168534
122 2 0.282897 0.381997 0.118666
123 2 0.0721601 0.529119 0.777837
124 2 0.274028 0.336366 0.387439
125 2 0.0934893 0.565151 0.849513
126 2 0.999364 0.0130362 0.746941
127 2 0.660773 0.18127 0.172247
128 2 0.0711757 0.844708 0.141997
129 2 0.198636 0.398378 0.809785
130 2 0.989146 0.0619264 0.556396
131 2 0.244658 0.89597 0.817697
132 2 0.386564 0.475668 0.134697
133 2 0.390823 0.574415 0.511881
134 2 0.697519 0.36637 0.325096
135 2 0.520655 0.467702 0.555965
136 2 0.358881 0.71508 0.275151
137 2 0.406308 0.536628 0.143194
138 2 0.176938 0.474868 0.33234
139 2 0.521444 0.510622 0.888942
140 2 0.0736936 0.20208 0.33583
141 2 0.465957 0.237376 0.466409
142 2 0.065014 0.0433838 0.359508
143 2 0.469308 0.138899 0.374097
144 2 0.336853 0.97718 0.314771
145 2 0.178374 0.354337 0.303287
146 2 0.496894 0.774561 0.427741
147 2 0.311878 0.248561 0.415756
148 2 0.412401 0.615051 0.137531
149 2 0.55239 0.335313 0.356956
150 2 0.0364614 0.314674 0.776524
151 2 0.501007 0.211839 0.50959
152 2 0.406902 0.0798194 0.810295
153 2 0.313568 0.385006 0.324127
154 2 0.365564 0.519711 0.097627
155 2 0.233895 0.570368 0.329665
156 2 0.32716 0.199616 0.385213
157 2 0.238633 0.539365 0.448272
158 2 0.171996 0.275236 0.422639
159 2 0.447231 0.170902 0.380401
160 2 0.624944 0.114493 0.273371
161 2 0.0383133 0.939253 0.528739
162 2 0.422382 0.395378 0.947554
163 2 0.482771 0.875903 0.293302
164 2 0.0218645 0.817127 0.953398
165 2 0.0470566 0.205941 0.00255266
166 2 0.14132 0.355467 0.31289
167 2 0.203473 0.545405 0.329024
168 2 0.0504264 0.37881 0.518493
169 2 0.586851 0.114286 0.210059
170 2 0.433193 0.949964 0.118789
171 2 0.311275 0.49168 0.190753
172 2 0.963683 0.881773 0.377047
173 2 0.106594 0.0411104 0.559518
174 2 0.267238 0.506278 0.591756
175 2 0.256299 0.800885 0.180113
176 2 0.15267 0.194019 0.115234
177 2 0.126043 0.141645 0.2185
178 2 0.199177 0.3905 0.431247
179 2 0.123681 0.248423 0.00905454
180 2 0.164459 0.135169 0.171605
181 2 0.282021 0.887696 0.441562
182 2 0.614334 0.357627 0.875481
183 2 0.11124 0.244825 0.360398
184 2 0.261282 0.190226 0.124519
185 2 0.310134 0.254533 0.207565
186 2 0.372928 0.154032 0.26655
187 2 0.211281 0.369586 0.333486
188 2 0.938491 0.111116 0.498136
189 2 0.217666 0.150913 0.11391
190 2 0.274125 0.46585 0.232203
191 2 0.291748 0.622779 0.844359
192 2 0.0662698 0.105882 0.354369
193 2 0.285721 0.312067 0.258736
194 2 0.333721 0.153984 0.46859
195 2 0.0940525 0.958983 0.408328
196 2 0.901474 0.434854 0.222131
197 2 0.298922 0.361236 0.88075
198 2 0.399606 0.249859 0.142366
199 2 0.0658375 0.499364 0.170456
200 2 0.915028 0.919212 0.439856
201 2 0.15013 0.768585 0.437332
202 2 0.198856 0.20276 0.233308
203 2 0.541386 0.291753 0.470448
204 2 0.389813 0.0928706 0.491802
205 2 0.184595 0.360272 0.483873
206 2 0.118466 0.956281 0.532017
207 2 0.108324 0.21714 0.211513
208 2 0.21982 0.96552 0.20545
209 2 0.989011 0.709025 0.219007
210 2 0.27121 0.128088 0.372485
211 2 0.108238 0.477747 0.326243
212 2 0.280345 0.50861 0.648397
213 2 0.348342 0.271675 0.505901
214 2 0.421009 0.219135 0.573122
215 2 0.539331 0.700072 0.387388
216 2 0.486593 0.678174 0.426307
217 2 0.343643 0.514251 0.191244
218 2 0.245917 0.211425 0.504137
219 2 0.234275 0.0961131 0.116759
220 2 0.0120825 0.0688173 0.280944
221 2 0.406165 0.304504 0.35611
222 2 0.379479 0.937299 0.16131
223 2 0.966904 0.47519 0.0561435
224 2 0.486266 0.2142 0.343488
225 2 0.86385 0.231031 0.748322
226 2 0.955447 0.964295 0.101075
227 2 0.154027 0.485619 0.944074
228 2 0.167032 0.00606084 0.40775
229 2 0.370842 0.398803 0.595781
230 2 0.24842 0.126799 0.287574
231 2 0.0576849 0.111219 0.290027
232 2 0.0172683 0.584768 0.454081
233 2 0.10875 0.0224427 0.127955
234 2 0.00503674 0.191717 0.952989
235 2 0.90169 0.64048 0.370571
236 2 0.300917 0.490106 0.291141
237 2 0.614937 0.00176321 0.222299
238 2 0.222173 0.495834 0.958734
239 2 0.306681 0.403064 0.206306
240 2 0.64568 0.319989 0.0372803
241 2 0.754398 0.0996214 0.394644
242 2 0.282352 0.88352 0.281945
243 2 0.978981 0.796257 0.456665
244 2 0.159614 0.162792 0.311655
245 2 0.331244 0.250505 0.759809
246 2 0.926514 0.917957 0.328237
247 2 0.00594298 0.25184 0.199888
248 2 0.231358 0.473633 0.450237
249 2 0.432853 0.375663 0.372218
250 2 0.423134 0.461707 0.205472
251 2 0.0953189 0.115991 0.302988
252 2 0.265891 0.859053 0.176846
253 2 0.379718 0.998143 0.478174
254 2 0.581074 0.328587 0.334867
255 2 0.186159 0.866901 0.925606
256 2 0.153273 0.255989 0.772333
257 2 0.441662 0.453961 0.867896
258 2 0.0252766 0.604488 0.908811
259 2 0.529701 0.91473 0.316355
260 2 0.401343 0.507908 0.558115
261 2 0.427715 0.917719 0.42395
262 2 0.34962 0.734643 0.398512
263 2 0.506371 0.838379 0.600081
264 2 0.563478 0.26021 0.157708
265 2 0.0195382 0.189674 0.212193
266 2 0.46571 0.539006 0.30558
267 2 0.385616 0.0338267 0.790527
268 2 0.0735432 0.3468 0.589424
269 2 0.729495 0.248608 0.525389
270 2 0.426314 0.137338 0.584717
271 2 0.43552 0.329963 0.117182
272 2 0.402105 0.820664 0.313231
273 2 0.195436 0.176746 0.771642
274 2 0.786032 0.625587 0.258528
275 2 0.518434 0.522774 0.627708
276 2 0.452231 0.840346 0.20867
277 2 0.350937 0.682297 0.850475
278 2 0.968937 0.435035 0.214899
279 2 0.74803 0.350902 0.420236
280 2 0.442503 0.152187 0.182857
281 2 0.11548 0.185295 0.072328
282 2 0.965537 0.0814197 0.813342
283 2 0.270678 0.193485 0.366437
284 2 0.506452 0.607335 0.433189
285 2 0.115609 0.168865 0.701608
286 2 0.238317 0.467082 0.246991
287 2 0.98327 0.207536 0.164846
288 2 0.204854 0.293003 0.0185708
289 2 0.00841424 0.713138 0.51437
290 2 0.195126 0.791061 0.172071
291 2 0.394317 0.0970117 0.275694
292 2 0.450227 0.647808 0.247345
293 2 0.185681 0.161905 0.563227
294 2 0.979332 0.453113 0.264706
295 2 0.119439 0.312409 0.0984487
296 2 0.0817102 0.718277 0.246664
297 2 0.505739 0.989655 0.360989
298 2 0.244791 0.980173 0.447873
299 2 0.232798 0.0701426 0.355315
300 2 0.429205 0.0306697 0.638869
301 2 0.447873 0.287936 0.410139
302 2 0.126357 0.326009 0.20677
303 2 0.221063 0.222079 0.0480675
304 2 0.54031 0.290533 0.209493
305 2 0.0762793 0.41058 0.268857
306 2 0.221668 0.117592 0.245087
307 2 0.265616 0.216957 0.303516
308 2 0.513858 0.334799 0.501893
309 2 0.945093 0.859658 0.353266
310 2 0.108143 0.280598 0.236466
311 2 0.348793 0.205355 0.190877
312 2 0.627351 0.368744 0.355076
313 2 0.477322 0.195094 0.315443
314 2 0.267219 0.268713 0.0416107
315 2 0.291393 0.576548 0.514111
316 2 0.821765 0.226645 0.171798
317 2 0.202993 0.0016067 0.926968
318 2 0.0781568 0.0316914 0.171874
319 2 0.945301 0.237261 0.370201
320 2 0.119758 0.0642575 0.247651
321 2 0.535841 0.270917 0.420948
322 2 0.0633866 0.188034 0.0496831
323 2 0.341991 0.451647 0.513339
324 2 0.45652 0.0986972 0.151189
325 2 0.340663 0.549205 0.0972729
326 2 0.609418 0.611438 0.274025
327 2 0.137893 0.570698 0.945597
328 2 0.326612 0.190668 0.333118
329 2 0.0809682 0.835525 0.722461
330 2 0.70223 0.856792 0.490916
331 2 0.190371 0.469992 0.385751
332 2 0.645074 0.52086 0.299563
333 2 0.226811 0.184873 0.337973
334 2 0.169342 0.156009 0.258265
335 2 0.13969 0.583846 0.233314
336 2 0.268709 0.171187 0.554359
337 2 0.172474 0.870244 0.77279
338 2 0.209708 0.279764 0.0503463
339 2 0.303831 0.4247 0.934932
340 2 0.08254 0.0470526 0.477146
341 2 0.194085 0.315498 0.17968
342 2 0.998679 0.964001 0.232764
343 2 0.905985 0.603804 0.359136
344 2 0.374497 0.875 0.898017
345 2 0.315106 0.65879 0.763269
346 2 0.214238 0.362627 0.139551
347 2 0.131799 0.95332 0.161975
348 2 0.367397 0.500527 0.233613
349 2 0.145483 0.484757 0.199509
350 2 0.229021 0.244701 0.372685
351 2 0.117352 0.309645 0.769914
352 2 0.430909 0.345182 0.394652
353 2 0.444039 0.153023 0.291498
354 2 0.112553 0.695754 0.878287
355 2 0.194626 0.834011 0.386811
356 2 0.12776 0.181093 0.13884
357 2 0.258671 0.0253363 0.192338
358 2 0.19755 0.574838 0.150411
359 2 0.691809 0.278039 0.574671
360 2 0.939569 0.2019 0.245724
361 2 0.17971 0.596641 0.561186
362 2 0.45378 0.408388 0.903137
363 2 0.0940372 0.737437 0.681276
364 2 0.279022 0.852144 0.343187
365 2 0.272607 0.0946058 0.199409
366 2 0.179637 0.317738 0.264171
367 2 0.285855 0.300455 0.883028
368 2 0.749132 0.0341911 0.451138
369 2 0.454541 0.35221 0.933443
370 2 0.430141 0.457512 0.59497
371 2 0.239506 0.639062 0.292755
372 2 0.0698535 0.2507 0.031618
373 2 0.297394 0.368412 0.556015
374 2 0.571384 0.906379 0.18938
375 2 0.356727 0.754613 0.0277989
376 2 0.472545 0.199742 0.372814
377 2 0.173117 0.135947 0.333241
378 2 0.675641 0.056294 0.134464
379 2 0.246586 0.514203 0.802874
380 2 0.0864476 0.391353 0.35395
381 2 0.336421 0.742398 0.16734
382 2 0.0953526 0.71212 0.391274
383 2 0.28161 0.308737 0.337141
384 2 0.543915 0.583559 0.544582
385 2 0.16123 0.090924 0.806329
386 2 0.287537 0.247177 0.473975
387 2 0.317178 0.455908 0.176838
388 2 0.430823 0.127869 0.439027
389 2 0.137858 0.838465 0.201478
390 2 0.111794 0.818495 0.800692
391 2 0.723909 0.15044 0.51067
392 2 0.245314 0.173993 0.204856
393 2 0.199628 0.837383 0.55032
394 2 0.980028 0.437533 0.787496
395 2 0.899638 0.564383 0.317362
396 2 0.962145 0.664174 0.375298
397 2 0.766918 0.725458 0.891959
398 2 0.350257 0.444567 0.23283
399 2 0.727105 0.97638 0.355953
400 2 0.631969 0.416603 0.899486
401 2 0.978783 0.914205 0.537158
402 2 0.382232 0.880617 0.417071
403 2 0.255293 0.271277 0.179081
404 2 0.580372 0.554923 0.78777
405 2 0.551123 0.402726 0.364963
406 2 0.0764832 0.687921 0.411816
407 2 0.0632851 0.179025 0.36236
408 2 0.28862 0.098232 0.910617
409 2 0.638671 0.530529 0.546599
410 2 0.888276 0.948141 0.976937
411 2 0.415422 0.30521 0.457564
412 2 0.141791 0.191691 0.358812
413 2 0.796927 0.413804 0.353208
414 2 0.262564 0.299723 0.387257
415 2 0.30619 0.812555 0.303065
416 2 0.178955 0.489753 0.245578
417 2 0.23802 0.397988 0.184173
418 2 0.190847 0.555504 0.388384
419 2 0.0771313 0.24097 0.345209
420 2 0.464279 0.0440719 0.274694
421 2 0.985864 0.996094 0.189928
422 2 0.195189 0.593488 0.382921
423 2 0.160491 0.62396 0.346788
424 2 0.964115 0.682634 0.869498
425 2 0.060794 0.95431 0.249666
426 2 0.15993 0.970755 0.142304
427 2 0.259895 0.39905 0.285495
428 2 0.162868 0.19772 0.183286
429 2 0.371376 0.912114 0.434111
430 2 0.34024 0.184963 0.218277
431 2 0.0466137 0.206269 0.760895
432 2 0.0146127 0.225203 0.22388
433 2 0.548916 0.493171 0.869897
434 2 0.104692 0.370382 0.0980506
435 2 0.121462 0.301601 0.291301
436 2 0.311807 0.447237 0.122104
437 2 0.0808469 0.979604 0.294753
438 2 0.203255 0.89254 0.473781
439 2 0.378117 0.6847 0.330246
440 2 0.37061 0.489635 0.20108
441 2 0.0395831 0.228718 0.29302
442 2 0.291102 0.207604 0.24794
443 2 0.65034 0.239064 0.0778499
444 2 0.380143 0.128169 0.291102
445 2 0.118978 0.184315 0.00318503
446 2 0.447094 0.441298 0.251928
447 2 0.290555 0.128466 0.189014
448 2 0.56786 0.467434 0.892639
449 2 0.00552675 0.911099 0.259727
450 2 0.291891 0.0525833 0.234731
451 2 0.393967 0.293487 0.324908
452 2 0.437967 0.275622 0.550484
453 2 0.939748 0.792935 0.311039
454 2 0.179102 0.308981 0.0785069
455 2 0.41623 0.270035 0.396653
456 2 0.313279 0.950452 0.327683
457 2 0.402936 0.306092 0.725314
458 2 0.532064 0.767295 0.338403
459 2 0.26546 0.367111 0.405324
460 2 0.387145 0.187127 0.319274
461 2 0.292334 0.385894 0.151533
462 2 0.0448048 0.0837359 0.268729
463 2 0.203342 0.484277 0.355332
464 2 0.511605 0.403406 0.566432
465 2 0.171181 0.399848 0.233545
466 2 0.149761 0.469051 0.888801
467 2 0.12673 0.221914 0.28768
468 2 0.346957 0.121075 0.670692
469 2 0.566608 0.511832 0.173111
470 2 0.336 0.479424 0.241837
471 2 0.276332 0.101293 0.233403
472 2 0.533285 0.269601 0.304822
473 2 0.0291745 0.951362 0.667501
474 2 0.205202 0.578742 0.864232
475 2 0.205434 0.763501 0.60474
476 2 0.108683 0.916621 0.815439
477 2 0.216512 0.986929 0.75962
478 2 0.146628 0.5438 0.82735
479 2 0.547252 0.573162 0.177557
480 2 0.254959 0.743101 0.21198
481 2 0.455952 0.137192 0.342319
482 2 0.0583004 0.241576 0.115354
483 2 0.19319 0.106039 0.318654
484 2 0.08896 0.301194 0.00380975
485 2 0.0394218 0.25589 0.178902
486 2 0.00255197 0.0684102 0.772136
487 2 0.200067 0.150823 0.169895
488 2 0.337019 0.338762 0.427561
489 2 0.623 0.486988 0.517161
490 2 0.806885 0.272362 0.298179
491 2 0.191849 0.530337 0.180523
492 2 0.513366 0.514086 0.796921
493 2 0.542298 0.308983 0.500316
494 2 0.937802 0.364955 0.0858634
495 2 0.957672 0.0253079 0.313557
496 2 0.494004 0.481676 0.302906
497 2 0.276485 0.148215 0.492436
498 2 0.233972 0.42682 0.295764
499 2 0.313713 0.0409225 0.390186
500 2 0.13146 0.69789 0.480831
501 2 0.192285 0.995838 0.24195
502 2 0.211558 0.155108 0.201244
503 2 0.137189 0.425659 0.193633
504 2 0.14385 0.274211 0.0600619
505 2 0.246818 0.455573 0.315767
506 2 0.186673 0.298104 0.469307
507 2 0.480836 0.443754 0.300492
508 2 0.958547 0.766827 0.147686
509 2 0.264793 0.409759 0.252732
510 2 0.310147 0.322316 0.383915
511 2 0.0203782 0.502013 0.310117
512 2 0.118841 0.121486 0.275325
513 2 0.422365 0.465562 0.464886
514 2 0.237273 0.670089 0.10109
515 2 0.0159892 0.467427 0.391071
516 2 0.21732 0.368141 0.256889
517 2 0.403188 0.984209 0.252144
518 2 0.461393 0.187433 0.243832
519 2 0.139475 0.445005 0.463603
520 2 0.448835 0.562343 0.581445
521 2 0.034462 0.961818 0.0909265
522 2 0.377218 0.174279 0.370378
523 2 0.993211 0.407535 0.427141
524 2 0.380845 0.112552 0.382025
525 2 0.300977 0.546822 0.325614
526 2 0.346357 0.848504 0.514736
527 2 0.925057 0.212674 0.275196
528 2 0.344329 0.98201 0.581948
529 2 0.283451 0.130972 0.302027
530 2 0.970888 0.881104 0.741454
531 2 0.150297 0.830727 0.429082
532 2 0.327315 0.537545 0.679909
533 2 0.690258 0.276724 0.360391
534 2 0.346417 0.9444 0.845119
535 2 0.742965 0.240991 0.209546
536 2 0.0851392 0.31519 0.427342
537 2 0.166907 0.0555718 0.50512
538 2 0.295622 0.1576 0.412419
539 2 0.886633 0.122078 0.287728
540 2 0.255663 0.0899746 0.280228
541 2 0.226317 0.508488 0.212811
542 2 0.357619 0.245143 0.240914
543 2 0.576216 0.485956 0.303397
544 2 0.429087 0.397319 0.196653
545 2 0.563301 0.297044 0.2556
546 2 0.181351 0.366547 0.183994
547 2 0.673926 0.0475574 0.167216
548 2 0.260783 0.223948 0.385531
549 2 0.103932 0.143039 0.32937
550 2 0.614568 0.0014606 0.84054
551 2 0.299983 0.384955 0.404417
552 2 0.328173 0.296866 0.0959797
553 2 0.463017 0.683586 0.253137
554 2 0.982193 0.156752 0.727227
555 2 0.174169 0.886332 0.362667
556 2 0.368064 0.123611 0.143879
557 2 0.496823 0.995434 0.394487
558 2 0.102441 0.907766 0.499154
559 2 0.645686 0.143908 0.427539
560 2 0.572253 0.352891 0.552826
561 2 0.558784 0.588976 0.363908
562 2 0.00189448 0.0877415 0.39549
563 2 0.177216 0.101687 0.213501
564 2 0.954295 0.428336 0.527838
565 2 0.40916 0.658934 0.0727558
566 2 0.0868203 0.424762 0.370117
567 2 0.0873657 0.556109 0.161744
568 2 0.368464 0.695683 0.0545582
569 2 0.267957 0.0320438 0.417413
570 2 0.158686 0.577272 0.612974
571 2 0.0597268 0.517851 0.563665
572 2 0.826372 0.127313 0.0938769
573 2 0.193208 0.452682 0.171608
574 2 0.73448 0.0721259 0.162385
575 2 0.606633 0.987125 0.449211
576 2 0.539624 0.0763505 0.204115
577 2 0.526927 0.501046 0.440384
578 2 0.281629 0.266361 0.606117
579 2 0.66994 0.547318 0.189177
580 2 0.0332445 0.997961 0.0785248
581 2 0.60078 0.332203 0.284697
582 2 0.156283 0.388288 0.0311342
583 2 0.970005 0.706923 0.248192
584 2 0.450367 0.335276 0.331839
585 2 0.334856 0.477683 0.27554
586 2 0.317458 0.449081 0.486581
587 2 0.596402 0.295523 0.624591
588 2 0.356203 0.354211 0.290991
589 2 0.170412 0.487296 0.548802
590 2 0.370174 0.524952 0.29161
591 2 0.0376841 0.536621 0.845641
592 2 0.012768 0.253439 0.359441
593 2 0.0510921 0.030873 0.750609
594 2 0.317637 0.324879 0.223815
595 2 0.279878 0.139223 0.241152
596 2 0.793684 0.249494 0.0224845
597 2 0.253061 0.386245 0.93769
598 2 0.454276 0.535017 0.358809
599 2 0.993571 0.131605 0.233285
600 2 0.578316 0.339813 0.753685
601 2 0.39788 0.416611 0.130919
602 2 0.246934 0.845689 0.117899
603 2 0.111345 0.916102 0.781711
604 2 0.975679 0.585146 0.410569
605 2 0.340661 0.243541 0.18977
606 2 0.991346 0.344245 0.0207291
607 2 0.450304 0.532718 0.691937
608 2 0.420166 0.416516 0.293966
609 2 0.938395 0.0560994 0.270451
610 2 0.918497 0.181349 0.293962
611 2 0.252998 0.12047 0.342713
612 2 0.545457 0.525826 0.604223
613 2 0.509587 0.281393 0.759558
614 2 0.418922 0.176185 0.467304
615 2 0.400588 0.0310018 0.157226
616 2 0.7614 0.336393 0.341363
617 2 0.14923 0.307287 0.851288
618 2 0.145436 0.049965 0.74635
619 2 0.227712 0.531478 0.267549
620 2 0.925472 0.154496 0.208663
621 2 0.907371 0.702227 0.37353
622 2 0.213099 0.517226 0.787787
623 2 0.157065 0.0422875 0.402548
624 2 0.199391 0.0500528 0.901618
625 2 0.275652 0.349442 0.254348
626 2 0.141891 0.0200755 0.176654
627 2 0.180738 0.0930103 0.438888
628 2 0.496836 0.368443 0.361019
629 2 0.0201927 0.179692 0.769215
630 2 0.128932 0.469544 0.156713
631 2 0.170925 0.30502 0.233145
632 2 0.923865 0.332461 0.312818
633 2 0.0436478 0.170098 0.291368
634 2 0.43821 0.463591 0.433317
635 2 0.129465 0.575602 0.368756
636 2 0.00449257 0.0507501 0.864761
637 2 0.354033 0.437976 0.905025
638 2 0.0182983 0.404355 0.361589
639 2 0.52883 0.179117 0.43684
640 2 0.0396515 0.356846 0.204337
641 2 0.0478561 0.396432 0.248404
642 2 0.316366 0.870758 0.2922
643 2 0.429753 0.26671 0.184853
644 2 0.352007 0.100481 0.490848
645 2 0.411397 0.029204 0.900107
646 2 0.257541 0.970814 0.895234
647 2 0.991521 0.767161 0.371093
648 2 0.107611 0.569164 0.217339
649 2 0.256588 0.196929 0.258178
650 2 0.298154 0.131276 0.733659
651 2 0.0675206 0.576364 0.376678
652 2 0.238889 0.0626611 0.688886
653 2 0.281753 0.322406 0.688108
654 2 0.364199 0.836506 0.761031
655 2 0.00463485 0.969187 0.171971
656 2 0.355665 0.188822 0.273923
657 2 0.951507 0.0691618 0.430139
658 2 0.889851 0.0519285 0.229365
659 2 0.916173 0.180848 0.992013
660 2 0.409779 0.517709 0.901157
661 2 0.0200249 0.776903 0.414583
662 2 0.326791 0.78888 0.801929
663 2 0.513704 0.646409 0.350496
664 2 0.118914 0.351809 0.998275
665 2 0.607982 0.0312853 0.281085
666 2 0.910236 0.932193 0.637943
667 2 0.10024 0.0896526 0.77674
668 2 0.426356 0.754942 0.853098
669 2 0.220508 0.331549 0.158476
670 2 0.672736 0.449737 0.674646
671 2 0.102855 0.15498 0.194323
672 2 0.484688 0.811886 0.325583
673 2 0.398044 0.962352 0.108417
674 2 0.341431 0.144761 0.161065
675 2 0.127008 0.105172 0.38923
676 2 0.40366 0.205914 0.506974
677 2 0.354827 0.469 0.659662
678 2 0.310081 0.851286 0.71777
679 2 0.309 0.654258 0.169025
680 2 0.398178 0.382163 0.793112
681 2 0.51791 0.932199 0.125561
682 2 0.365577 0.147196 0.393995
683 2 0.454243 0.557513 0.416436
684 2 0.246228 0.142768 0.25734
685 2 0.160925 0.901913 0.311778
686 2 0.0214816 0.270912 0.552272
687 2 0.247624 0.404628 0.883565
688 2 0.543122 0.0438126 0.158519
689 2 0.278958 0.955643 0.204844
690 2 0.307455 0.282064 0.652611
691 2 0.147948 0.346991 0.808262
692 2 0.62459 0.967988 0.388644
693 2 0.126463 0.0862385 0.187554
694 2 0.173742 0.594562 0.696295
695 2 0.407423 0.615571 0.235639
696 2 0.190892 0.540643 0.275736
697 2 0.40042 0.0967089 0.524049
698 2 0.584852 0.746004 0.309928
699 2 0.343013 0.097783 0.243741
700 2 0.434898 0.907627 0.318263
701 2 0.145052 0.724927 0.0413062
702 2 0.0578825 0.394468 0.417933
703 2 0.361592 0.916335 0.251366
704 2 0.949822 0.00195714 0.111232
705 2 0.0999344 0.243482 0.273075
706 2 0.0103807 0.0283956 0.239272
707 2 0.213679 0.424194 0.475886
708 2 0.348235 0.432537 0.438722
709 2 0.0625446 0.154401 0.638381
710 2 0.239614 0.661393 0.369424
711 2 0.967407 0.132258 0.100813
712 2 0.58316 0.165791 0.314527
713 2 0.125116 0.129812 0.0327626
714 2 0.879395 0.198371 0.0233883
715 2 0.181596 0.507275 0.15491
716 2 0.343363 0.224458 0.324725
717 2 0.973091 0.0587051 0.322093
718 2 0.843749 0.0876538 0.0136523
719 2 0.549724 0.594272 0.396056
720 2 0.402784 0.136376 0.133487
721 2 0.538672 0.971136 0.352824
722 2 0.385232 0.903634 0.177275
723 2 0.925475 0.154679 0.337902
724 2 0.187361 0.241748 0.093285
725 2 0.450307 0.462477 0.932769
726 2 0.222578 0.975083 0.65262
727 2 0.260512 0.636485 0.200559
728 2 0.858786 0.250435 0.0555012
729 2 0.294159 0.490501 0.407452
730 2 0.136042 0.0976931 0.357127
731 2 0.426701 0.405241 0.618169
732 2 0.136421 0.960676 0.100176
733 2 0.322668 0.299478 0.250526
734 2 0.307348 0.182203 0.361327
735 2 0.108832 0.576727 0.183955
736 2 0.319932 0.4212 0.233329
737 2 0.670292 0.229356 0.146266
738 2 0.292951 0.295735 0.365944
739 2 0.92618 0.0145638 0.0872337
740 2 0.211513 0.119171 0.213351
741 2 0.0664876 0.669183 0.935603
742 2 0.217519 0.311489 0.268044
743 2 0.900756 0.220349 0.570951
744 2 0.972781 0.83053 0.353805
745 2 0.0778041 0.132437 0.0636934
746 2 0.0332139 0.0901796 0.342671
747 2 0.362517 0.538621 0.238672
748 2 0.555192 0.184245 0.367559
749 2 0.0854715 0.093662 0.630355
750 2 0.586332 0.156565 0.573735
751 2 0.509138 0.0227596 0.342638
752 2 0.963253 0.025937 0.28017
753 2 0.509395 0.551058 0.725568
754 2 0.110715 0.00755445 0.220549
755 2 0.158186 0.258303 0.20231
756 2 0.992958 0.398091 0.480804
757 2 0.864665 0.0381247 0.347058
758 2 0.275963 0.565132 0.108138
759 2 0.324747 0.586291 0.259709
760 2 0.797356 0.439929 0.414947
761 2 0.209836 0.0453379 0.0923454
762 2 0.121851 0.440989 0.364534
763 2 0.242528 0.495379 0.271254
764 2 0.471917 0.366197 0.542667
765 2 0.57881 0.567074 0.550413
766 2 0.0938729 0.290143 0.139478
767 2 0.242773 0.835635 0.353166
768 2 0.439081 0.816111 0.0922771
769 2 0.255902 0.359011 0.436222
770 2 0.228429 0.168591 0.398713
771 2 0.175124 0.477904 0.27732
772 2 0.343545 0.016406 0.835028
773 2 0.204664 0.665619 0.0839692
774 2 0.0106807 0.0315717 0.617444
775 2 0.150457 0.215436 0.261843
776 2 0.388182 0.111318 0.801466
777 2 0.27823 0.135856 0.157119
778 2 0.0821877 0.553881 0.43014
779 2 0.0224922 0.146839 0.478791
780 2 0.243991 0.0866378 0.248649
781 2 0.428794 0.439479 0.125013
782 2 0.611699 0.148368 0.683513
783 2 0.510155 0.374711 0.543695
784 2 0.142838 0.493169 0.338087
785 2 0.431283 0.307863 0.273995
786 2 0.15406 0.342934 0.139583
787 2 0.0261233 0.0171094 0.588796
788 2 0.274616 0.142453 0.439217
789 2 0.328484 0.832568 0.199873
790 2 0.376039 0.384243 0.518612
791 2 0.306027 0.969541 0.356241
792 2 0.309026 0.980758 0.1322
793 2 0.501407 0.380876 0.141661
794 2 0.304625 0.179684 0.306912
795 2 0.223481 0.764115 0.208032
796 2 0.766685 0.983229 0.356529
797 2 0.300377 0.0773927 0.401457
798 2 0.558626 0.44886 0.257881
799 2 0.0733231 0.179538 0.414262
800 2 0.24872 0.192774 0.175489
801 2 0.260101 0.592415 0.458028
802 2 0.166903 0.947238 0.11646
803 2 0.260896 0.851508 0.278021
804 2 0.173327 0.184639 0.862992
805 2 0.301748 0.189677 0.219017
806 2 0.393346 0.999961 0.0967942
807 2 0.171562 0.258044 0.721675
808 2 0.114596 0.28631 0.3232
809 2 0.226435 0.224648 0.826167
810 2 0.261047 0.399793 0.363599
811 2 0.319654 0.176602 0.276809
812 2 0.290752 0.804544 0.498843
813 2 0.174678 0.915671 0.339954
814 2 0.158485 0.95376 0.185495
815 2 0.0429039 0.0966272 0.146419
816 2 0.19375 0.159661 0.70966
817 2 0.324408 0.299045 0.882732
818 2 0.276727 0.489261 0.34247
819 2 0.744836 0.274856 0.331712
820 2 0.0386745 0.590152 0.308831
821 2 0.267663 0.889084 0.41029
822 2 0.94297 0.604144 0.397381
823 2 0.233815 0.489096 0.304148
824 2 0.13886 0.0759251 0.646744
825 2 0.3146 0.374077 0.374093
826 2 0.181857 0.0557763 0.380183
827 2 0.49772 0.0425184 0.185878
828 2 0.239892 0.330225 0.292763
829 2 0.118484 0.975513 0.240554
830 2 0.143644 0.150185 0.282595
831 2 0.143472 0.576879 0.317628
832 2 0.119224 0.359979 0.396221
833 2 0.326124 0.0355945 0.303065
834 2 0.937897 0.521322 0.0965094
835 2 0.441294 0.756813 0.108015
836 2 0.311652 0.387682 0.504906
837 2 0.557461 0.398338 0.816769
838 2 0.559405 0.0466026 0.190876
839 2 0.013538 0.0410971 0.15692
840 2 0.628002 0.136826 0.398831
841 2 0.533359 0.0079144 0.147282
842 2 0.229841 0.243307 0.490879
843 2 0.296655 0.29908 0.623356
844 2 0.0513783 0.719279 0.89444
845 2 0.860026 0.182868 0.0695085
846 2 0.0617974 0.607104 0.919172
847 2 0.402914 0.496878 0.378502
848 2 0.143774 0.748461 0.280009
849 2 0.139318 0.751974 0.380844
850 2 0.0737021 0.197632 0.163728
851 2 0.148344 0.512978 0.368287
852 2 0.283297 0.0473972 0.148804
853 2 0.226872 0.315127 0.233873
854 2 0.660449 0.318308 0.32281
855 2 0.176112 0.850696 0.896892
856 2 0.3771 0.508093 0.356304
857 2 0.0930654 0.599634 0.834808
858 2 0.284645 0.394906 0.891438
859 2 0.354208 0.335137 0.342202
860 2 0.362821 0.288106 0.111156
861 2 0.451736 0.351832 0.878855
862 2 0.291811 0.48031 0.527033
863 2 0.970253 0.338097 0.498122
864 2 0.928054 0.579354 0.298727
865 2 0.0992374 0.380539 0.770698
866 2 0.396828 0.825911 0.0504342
867 2 0.404405 0.0605393 0.446936
868 2 0.190706 0.394246 0.895771
869 2 0.255744 0.639888 0.114562
870 2 0.571686 0.313467 0.400226
871 2 0.338775 0.560542 0.377978
872 2 0.689121 0.344497 0.563988
873 2 0.0365825 0.631105 0.35429
874 2 0.663889 0.434211 0.557944
875 2 0.117933 0.341276 0.289224
876 2 0.924448 0.955036 0.965199
877 2 0.587402 0.390054 0.448693
878 2 0.885709 0.91868 0.223552
879 2 0.403496 0.0580164 0.481031
880 2 0.0946441 0.753705 0.347233
881 2 0.200461 0.31684 0.104705
882 2 0.0783157 0.126146 0.185399
883 2 0.282873 0.237764 0.854468
884 2 0.428984 0.125261 0.159714
885 2 0.8883 0.380639 0.140497
886 2 0.383435 0.652308 0.38199
887 2 0.146135 0.05282 0.195258
888 2 0.436524 0.101579 0.415384
889 2 0.0701478 0.486537 0.362995
890 2 0.614747 0.545503 0.295268
891 2 0.854133 0.523395 0.257458
892 2 0.184397 0.21363 0.158177
893 2 0.0828976 0.446097 0.325606
894 2 0.241042 0.761868 0.406996
895 2 0.296984 0.0765833 0.33981
896 2 0.161935 0.954584 0.409249
897 2 0.5653 0.474351 0.821744
898 2 0.354548 0.369118 0.917488
899 2 0.0244706 0.862364 0.284195
900 2 0.13594 0.20236 0.23293
901 2 0.064896 0.87025 0.731751
902 2 0.533834 0.944088 0.155466
903 2 0.0448383 0.0149363 0.159346
904 2 0.208495 0.112847 0.0701377
905 2 0.277959 0.512602 0.271403