 vasp.6.5.0 16Dec24 (build Jan 20 2025 08:32:48) complex                         
 executed on        HPECrayEX_GCC date 2025.07.22  08:33:07
 running  128 mpi-ranks, with    1 threads/rank, on    1 nodes
 distrk:  each k-point on  128 cores,    1 groups
 distr:  one band on NCORE=  16 cores,    8 groups


--------------------------------------------------------------------------------------------------------


 INCAR:
   SYSTEM = a-Si SPC
   NCORE = 16
   ISTART = 1
   ICHARG = 1
   ISPIN = 1
   ISYM = 1
   EDIFF = 1E-6
   NELM = 150
   EDIFFG = -0.01
   NSW = 0
   ISIF = 2
   IBRION = -1
   PREC = Accurate
   ENCUT = 1200
   KSPACING = 0.23
   KGAMMA = .TRUE.
   METAGGA = SCAN
   LASPH = .TRUE.
   LDIAG = .FALSE.
   LMIXTAU = .TRUE.
   ADDGRID = .TRUE.
   ALGO = Normal
   ISMEAR = 0
   SIGMA = 0.1
   LORBIT = 11
   NEDOS = 2000
   LWAVE = .FALSE.
   LCHARG = .FALSE.

 POTCAR:    PAW_PBE H 15Jun2001                   
 POTCAR:    PAW_PBE Si 05Jan2001                  
 POTCAR:    PAW_PBE H 15Jun2001                   
   SHA256 =  030f79b5d3ab3cf0e668861823c8fb652ff669f3e15e46930bd03bfd63a607b6 H/POTCAR              
   COPYR  = (c) Copyright 15Jun2001 Georg Kresse                                                    
   COPYR  = This file is part of the software VASP. Any use, copying, and all other rights are regul
   COPYR  = If you do not have a valid VASP license, you may not use, copy or distribute this file. 
   VRHFIN =H: ultrasoft test                                                                        
   LEXCH  = PE                                                                                      
   EATOM  =    12.4884 eV,    0.9179 Ry                                                             
                                                                                                    
   TITEL  = PAW_PBE H 15Jun2001                                                                     
   LULTRA =        F    use ultrasoft PP ?                                                          
   IUNSCR =        0    unscreen: 0-lin 1-nonlin 2-no                                               
   RPACOR =    0.000    partial core radius                                                         
   POMASS =    1.000; ZVAL   =    1.000    mass and valenz                                          
   RCORE  =    1.100    outmost cutoff radius                                                       
   RWIGS  =    0.700; RWIGS  =    0.370    wigner-seitz radius (au A)                               
   ENMAX  =  250.000; ENMIN  =  200.000 eV                                                          
   RCLOC  =    0.701    cutoff for local pot                                                        
   LCOR   =        T    correct aug charges                                                         
   LPAW   =        T    paw PP                                                                      
   EAUG   =  400.000                                                                                
   RMAX   =    1.123    core radius for proj-oper                                                   
   RAUG   =    1.200    factor for augmentation sphere                                              
   RDEP   =    1.112    radius for radial grids                                                     
   RDEPT  =    0.926    core radius for aug-charge                                                  
                                                                                                    
   Atomic configuration                                                                             
    2 entries                                                                                       
     n  l   j            E        occ.                                                              
     1  0  0.50        -6.4927   1.0000                                                             
     2  1  0.50        -3.4015   0.0000                                                             
   Description                                                                                      
     l       E           TYP  RCUT    TYP  RCUT                                                     
     0     -6.4927494     23  1.100                                                                 
     0      6.8029130     23  1.100                                                                 
     1     -4.0817478     23  1.100                                                                 
  local pseudopotential read in
  atomic valenz-charges read in
  non local Contribution for L=           0  read in
    real space projection operators read in
  non local Contribution for L=           0  read in
    real space projection operators read in
  non local Contribution for L=           1  read in
    real space projection operators read in
    PAW grid and wavefunctions read in

   number of l-projection  operators is LMAX  =           3
   number of lm-projection operators is LMMAX =           5

 POTCAR:    PAW_PBE Si 05Jan2001                  
   SHA256 =  79d9987ad8750f624c4d6acb2a16d13abf6a777132adc04dc6c8399be72b42bb Si/POTCAR             
   COPYR  = (c) Copyright 05Jan2001 Georg Kresse                                                    
   COPYR  = This file is part of the software VASP. Any use, copying, and all other rights are regul
   COPYR  = If you do not have a valid VASP license, you may not use, copy or distribute this file. 
   VRHFIN =Si: s2p2                                                                                 
   LEXCH  = PE                                                                                      
   EATOM  =   103.0669 eV,    7.5752 Ry                                                             
                                                                                                    
   TITEL  = PAW_PBE Si 05Jan2001                                                                    
   LULTRA =        F    use ultrasoft PP ?                                                          
   IUNSCR =        1    unscreen: 0-lin 1-nonlin 2-no                                               
   RPACOR =    1.500    partial core radius                                                         
   POMASS =   28.085; ZVAL   =    4.000    mass and valenz                                          
   RCORE  =    1.900    outmost cutoff radius                                                       
   RWIGS  =    2.480; RWIGS  =    1.312    wigner-seitz radius (au A)                               
   ENMAX  =  245.345; ENMIN  =  184.009 eV                                                          
   ICORE  =        2    local potential                                                             
   LCOR   =        T    correct aug charges                                                         
   LPAW   =        T    paw PP                                                                      
   EAUG   =  322.069                                                                                
   DEXC   =    0.000                                                                                
   RMAX   =    1.950    core radius for proj-oper                                                   
   RAUG   =    1.300    factor for augmentation sphere                                              
   RDEP   =    1.993    radius for radial grids                                                     
   RDEPT  =    1.837    core radius for aug-charge                                                  
                                                                                                    
   Atomic configuration                                                                             
    6 entries                                                                                       
     n  l   j            E        occ.                                                              
     1  0  0.50     -1785.8828   2.0000                                                             
     2  0  0.50      -139.4969   2.0000                                                             
     2  1  1.50       -95.5546   6.0000                                                             
     3  0  0.50       -10.8127   2.0000                                                             
     3  1  0.50        -4.0811   2.0000                                                             
     3  2  1.50        -4.0817   0.0000                                                             
   Description                                                                                      
     l       E           TYP  RCUT    TYP  RCUT                                                     
     0    -10.8127223     23  1.900                                                                 
     0     -7.6451159     23  1.900                                                                 
     1     -4.0811372     23  1.900                                                                 
     1      2.4879257     23  1.900                                                                 
     2     -4.0817478      7  1.900                                                                 
  local pseudopotential read in
  partial core-charges read in
  partial kinetic energy density read in
  atomic valenz-charges read in
  non local Contribution for L=           0  read in
    real space projection operators read in
  non local Contribution for L=           0  read in
    real space projection operators read in
  non local Contribution for L=           1  read in
    real space projection operators read in
  non local Contribution for L=           1  read in
    real space projection operators read in
    PAW grid and wavefunctions read in

   number of l-projection  operators is LMAX  =           4
   number of lm-projection operators is LMMAX =           8

 -----------------------------------------------------------------------------
|                                                                             |
|               ----> ADVICE to this user running VASP <----                  |
|                                                                             |
|     You have a (more or less) 'large supercell' and for larger cells it     |
|     might be more efficient to use real-space projection operators.         |
|     Therefore, try LREAL= Auto in the INCAR file.                           |
|     Mind: For very accurate calculation, you might also keep the            |
|     reciprocal projection scheme (i.e. LREAL=.FALSE.).                      |
|                                                                             |
 -----------------------------------------------------------------------------

 -----------------------------------------------------------------------------
|                                                                             |
|               ----> ADVICE to this user running VASP <----                  |
|                                                                             |
|     You enforced a specific xc type in the INCAR file but a different       |
|     type was found in the POTCAR file.                                      |
|     I HOPE YOU KNOW WHAT YOU ARE DOING!                                     |
|                                                                             |
 -----------------------------------------------------------------------------

  PAW_PBE H 15Jun2001                   :
 energy of atom  1       EATOM=  -12.4884
 kinetic energy error for atom=    0.0000 (will be added to EATOM!!)
  PAW_PBE Si 05Jan2001                  :
 energy of atom  2       EATOM= -103.0669
 kinetic energy error for atom=    0.0001 (will be added to EATOM!!)


 POSCAR:  H Si
  positions in cartesian coordinates
  No initial velocities read in


 exchange-correlation table for SCAN
   RHO(1)=    0.500       N(1)  =     2000
   RHO(2)=  100.500       N(2)  =     4000



--------------------------------------------------------------------------------------------------------


 ion  position               nearest neighbor table
   1  0.003  0.895  0.431-  47 1.60
   2  0.776  0.170  0.513-  16 1.56
   3  0.993  0.084  0.595-
   4  0.475  0.684  0.584-  31 1.42
   5  0.037  0.719  0.455-  48 1.57
   6  0.842  0.616  0.569-  19 1.64  63 1.76
   7  0.189  0.175  0.572-  34 1.56
   8  0.240  0.495  0.405-  67 2.24  64 2.39
   9  0.398  0.407  0.499-  40 2.28  30 2.32  10 2.35  67 2.44
  10  0.371  0.287  0.439-  51 2.32  52 2.34   9 2.35  64 2.43
  11  0.764  0.397  0.521-  50 2.22  23 2.29  44 2.30  32 2.43
  12  0.051  0.879  0.590-  17 2.24  41 2.41
  13  0.433  0.870  0.477-  36 2.27  15 2.31  28 2.36  54 2.37
  14  0.818  0.737  0.396-  69 2.26  22 2.40
  15  0.555  0.769  0.478-  13 2.31  21 2.33  31 2.43  55 2.44
  16  0.857  0.145  0.550-   2 1.56  45 2.34  57 2.36  68 2.38
  17  0.930  0.824  0.545-  12 2.24  47 2.34  48 2.41  20 2.66
  18  0.325  0.664  0.499-  31 2.26  28 2.29  33 2.35  67 2.37
  19  0.742  0.652  0.547-   6 1.64  44 2.28  55 2.40
  20  0.771  0.876  0.586-  45 2.25  55 2.28  17 2.66
  21  0.560  0.683  0.401-  15 2.33  24 2.40
  22  0.873  0.613  0.449-  44 2.30  59 2.34  14 2.40  48 2.50
  23  0.908  0.399  0.557-  11 2.29  68 2.35  63 2.37  35 2.38
  24  0.612  0.541  0.440-  44 2.28  25 2.32  21 2.40  30 2.44
  25  0.632  0.405  0.394-  24 2.32  32 2.33  52 2.60
  26  0.857  0.090  0.398-  42 2.29  57 2.35
  27  0.241  0.059  0.465-  51 2.31  60 2.34  61 2.41  29 2.48
  28  0.332  0.769  0.433-  18 2.29  13 2.36  39 2.42
  29  0.087  0.132  0.470-  57 2.38  27 2.48  65 2.50
  30  0.518  0.508  0.517-  31 2.30   9 2.32  46 2.34  24 2.44
  31  0.471  0.657  0.530-   4 1.42  18 2.26  30 2.30  15 2.43
  32  0.731  0.311  0.441-  53 2.28  25 2.33  11 2.43
  33  0.223  0.721  0.563-  41 2.23  38 2.24  18 2.35
  34  0.188  0.083  0.603-   7 1.56  60 2.36
  35  0.023  0.410  0.492-  65 2.26  59 2.32  62 2.36  23 2.38
  36  0.389  0.914  0.558-  60 2.23  13 2.27  58 2.29
  37  0.625  0.067  0.554-  58 2.24  45 2.25  49 2.29  66 2.40
  38  0.111  0.617  0.569-  62 2.23  33 2.24  48 2.56
  39  0.175  0.823  0.424-  61 2.26  28 2.42  41 2.62
  40  0.359  0.339  0.576-   9 2.28  43 2.35  56 2.38
  41  0.168  0.848  0.526-  33 2.23  60 2.28  12 2.41  39 2.62
  42  0.726  0.004  0.399-  26 2.29  66 2.33  69 2.41
  43  0.198  0.326  0.571-  65 2.30  40 2.35  62 2.40
  44  0.748  0.540  0.485-  19 2.28  24 2.28  11 2.30  22 2.30
  45  0.764  0.030  0.587-  20 2.25  37 2.25  16 2.34
  46  0.572  0.469  0.600-  50 2.31  30 2.34
  47  0.921  0.917  0.471-   1 1.60  69 2.31  57 2.32  17 2.34
  48  0.991  0.685  0.507-   5 1.57  17 2.41  22 2.50  38 2.56
  49  0.582  0.218  0.549-  37 2.29  50 2.32  56 2.39  53 2.40
  50  0.663  0.345  0.579-  11 2.22  46 2.31  49 2.32
  51  0.376  0.141  0.476-  27 2.31  10 2.32  56 2.42  54 2.46
  52  0.509  0.275  0.393-  10 2.34  53 2.40  25 2.60
  53  0.613  0.212  0.457-  66 2.23  32 2.28  52 2.40  49 2.40
  54  0.470  0.016  0.440-  66 2.34  13 2.37  51 2.46
  55  0.706  0.804  0.516-  20 2.28  69 2.38  19 2.40  15 2.44
  56  0.422  0.190  0.563-  40 2.38  49 2.39  51 2.42
  57  0.933  0.076  0.479-  47 2.32  26 2.35  16 2.36  29 2.38
  58  0.511  0.991  0.594-  37 2.24  36 2.29
  59  0.979  0.502  0.421-  35 2.32  22 2.34
  60  0.251  0.976  0.544-  36 2.23  41 2.28  27 2.34  34 2.36
  61  0.234  0.955  0.392-  39 2.26  27 2.41
  62  0.143  0.474  0.542-  38 2.23  67 2.32  35 2.36  43 2.40  65 2.92
  63  0.904  0.537  0.607-   6 1.76  23 2.37
  64  0.214  0.335  0.419-  65 2.34   8 2.39  10 2.43
  65  0.126  0.294  0.492-  35 2.26  43 2.30  64 2.34  29 2.50  62 2.92
  66  0.620  0.059  0.460-  53 2.23  42 2.33  54 2.34  37 2.40
  67  0.269  0.512  0.491-   8 2.24  62 2.32  18 2.37   9 2.44
  68  0.903  0.264  0.608-  23 2.35  16 2.38
  69  0.781  0.866  0.441-  14 2.26  47 2.31  55 2.38  42 2.41

  LATTYP: Found a simple tetragonal cell.
 ALAT       =    14.5469080134
 C/A-ratio  =     1.7545167108
  
  Lattice vectors:
  
 A1 = (  14.5469080134,   0.0000000000,   0.0000000000)
 A2 = (   0.0000000000,  14.5469080134,   0.0000000000)
 A3 = (   0.0000000000,   0.0000000000,  25.5227932000)


Analysis of symmetry for initial positions (statically):
=====================================================================
 Subroutine PRICEL returns:
 Original cell was already a primitive cell.
 

 Routine SETGRP: Setting up the symmetry group for a 
 simple tetragonal supercell.


 Subroutine GETGRP returns: Found  1 space group operations
 (whereof  1 operations were pure point group operations)
 out of a pool of 16 trial point group operations.


The static configuration has the point symmetry C_1 .


Analysis of symmetry for dynamics (positions and initial velocities):
=====================================================================
 Subroutine PRICEL returns:
 Original cell was already a primitive cell.
 

 Routine SETGRP: Setting up the symmetry group for a 
 simple tetragonal supercell.


 Subroutine GETGRP returns: Found  1 space group operations
 (whereof  1 operations were pure point group operations)
 out of a pool of 16 trial point group operations.


The dynamic configuration has the point symmetry C_1 .


 Subroutine INISYM returns: Found  1 space group operations
 (whereof  1 operations are pure point group operations),
 and found     1 'primitive' translations


----------------------------------------------------------------------------------------

                                     Primitive cell                                     

  volume of cell :    5400.9429

  direct lattice vectors                    reciprocal lattice vectors
    14.546908013  0.000000000  0.000000000     0.068743131  0.000000000  0.000000000
     0.000000000 14.546908013  0.000000000     0.000000000  0.068743131  0.000000000
     0.000000000  0.000000000 25.522793200     0.000000000  0.000000000  0.039180665

  length of vectors
    14.546908013 14.546908013 25.522793200     0.068743131  0.068743131  0.039180665

  position of ions in fractional coordinates (direct lattice)
     0.003402234  0.895221169  0.431104586
     0.775745608  0.170100753  0.513012549
     0.992657683  0.083540090  0.594972622
     0.475292756  0.683792046  0.584025936
     0.036767745  0.718613192  0.454617687
     0.842041483  0.616456775  0.568507651
     0.189420322  0.175453093  0.571879930
     0.240300550  0.494918920  0.405062374
     0.398262641  0.406962084  0.498968240
     0.370817633  0.286681541  0.439355642
     0.763914915  0.396550249  0.520997960
     0.051003966  0.878667823  0.590114220
     0.433470123  0.869958069  0.476790416
     0.817672043  0.737249455  0.395930223
     0.555343444  0.768541328  0.477958392
     0.856883125  0.144875461  0.550280805
     0.930335160  0.823652696  0.545322101
     0.325212065  0.664150759  0.499359263
     0.742150840  0.652291882  0.546506924
     0.770555502  0.875766863  0.585896030
     0.560459996  0.682664659  0.401060970
     0.872955269  0.612626408  0.448784861
     0.908165501  0.398990630  0.557354091
     0.611938976  0.541251102  0.439646363
     0.631580264  0.405026277  0.394055624
     0.857302458  0.090015005  0.398354683
     0.240884867  0.059414207  0.465419404
     0.332301544  0.769221885  0.432668678
     0.086513918  0.131776457  0.469610952
     0.517850253  0.508400135  0.516534891
     0.470874635  0.657174706  0.530413858
     0.731158813  0.311218026  0.441407534
     0.223383553  0.720785475  0.562938903
     0.188150636  0.083226621  0.603343571
     0.023366753  0.410240444  0.491504715
     0.389241480  0.913974295  0.558159254
     0.624767132  0.066794675  0.554154598
     0.110611135  0.616586700  0.568929235
     0.175281922  0.823095876  0.424184027
     0.358746339  0.339048683  0.576222324
     0.167639748  0.847836529  0.525643612
     0.725583745  0.004090395  0.398905485
     0.197726554  0.326453566  0.570802462
     0.747691536  0.539894113  0.484570913
     0.763784303  0.030219755  0.587016205
     0.571597070  0.469117560  0.599881960
     0.921432925  0.917342709  0.470903522
     0.990671006  0.685102291  0.507069234
     0.582083147  0.217737680  0.549161806
     0.663178731  0.344695244  0.579422208
     0.375831757  0.140972913  0.476312412
     0.509002325  0.274544253  0.393194817
     0.612595473  0.212064997  0.456874101
     0.469690878  0.015548871  0.440454660
     0.705655112  0.804115898  0.515566737
     0.421805101  0.190176496  0.563197887
     0.933332361  0.075800301  0.478999422
     0.510842579  0.991055968  0.594243078
     0.978792193  0.501525822  0.421210097
     0.251265767  0.976461801  0.543725488
     0.234441573  0.955433277  0.391806646
     0.142977463  0.473984574  0.542309891
     0.903924050  0.537269500  0.606704881
     0.214497129  0.334543945  0.418962577
     0.126415868  0.294199289  0.492292638
     0.620494746  0.058792219  0.460247948
     0.268597973  0.512119826  0.490779481
     0.903037263  0.264106296  0.608193354
     0.780798228  0.866300934  0.440575728

  ion indices of the primitive-cell ions
   primitive index   ion index
                 1           1
                 2           2
                 3           3
                 4           4
                 5           5
                 6           6
                 7           7
                 8           8
                 9           9
                10          10
                11          11
                12          12
                13          13
                14          14
                15          15
                16          16
                17          17
                18          18
                19          19
                20          20
                21          21
                22          22
                23          23
                24          24
                25          25
                26          26
                27          27
                28          28
                29          29
                30          30
                31          31
                32          32
                33          33
                34          34
                35          35
                36          36
                37          37
                38          38
                39          39
                40          40
                41          41
                42          42
                43          43
                44          44
                45          45
                46          46
                47          47
                48          48
                49          49
                50          50
                51          51
                52          52
                53          53
                54          54
                55          55
                56          56
                57          57
                58          58
                59          59
                60          60
                61          61
                62          62
                63          63
                64          64
                65          65
                66          66
                67          67
                68          68
                69          69

----------------------------------------------------------------------------------------


 -----------------------------------------------------------------------------
|                                                                             |
|           W    W    AA    RRRRR   N    N  II  N    N   GGGG   !!!           |
|           W    W   A  A   R    R  NN   N  II  NN   N  G    G  !!!           |
|           W    W  A    A  R    R  N N  N  II  N N  N  G       !!!           |
|           W WW W  AAAAAA  RRRRR   N  N N  II  N  N N  G  GGG   !            |
|           WW  WW  A    A  R   R   N   NN  II  N   NN  G    G                |
|           W    W  A    A  R    R  N    N  II  N    N   GGGG   !!!           |
|                                                                             |
|     The requested file  could not be found or opened for reading            |
|     k-point information. Automatic k-point generation is used as a          |
|     fallback, which may lead to unwanted results.                           |
|                                                                             |
 -----------------------------------------------------------------------------



Automatic generation of k-mesh.
 Grid dimensions derived from KSPACING:
 generate k-points for:    2    2    2

 Generating k-lattice:

  Cartesian coordinates                     Fractional coordinates (reciprocal lattice)
     0.034371565  0.000000000  0.000000000     0.500000000  0.000000000  0.000000000
     0.000000000  0.034371565  0.000000000     0.000000000  0.500000000  0.000000000
     0.000000000  0.000000000  0.019590332     0.000000000  0.000000000  0.500000000

  Length of vectors
     0.034371565  0.034371565  0.019590332

  Shift w.r.t. Gamma in fractional coordinates (k-lattice)
     0.000000000  0.000000000  0.000000000

 
 Subroutine IBZKPT returns following result:
 ===========================================
 
 Found      8 irreducible k-points:
 
 Following reciprocal coordinates:
            Coordinates               Weight
  0.000000  0.000000  0.000000      1.000000
  0.500000  0.000000  0.000000      1.000000
  0.000000  0.500000  0.000000      1.000000
  0.500000  0.500000  0.000000      1.000000
  0.000000  0.000000  0.500000      1.000000
  0.500000  0.000000  0.500000      1.000000
  0.000000  0.500000  0.500000      1.000000
  0.500000  0.500000  0.500000      1.000000
 
 Following cartesian coordinates:
            Coordinates               Weight
  0.000000  0.000000  0.000000      1.000000
  0.034372  0.000000  0.000000      1.000000
  0.000000  0.034372  0.000000      1.000000
  0.034372  0.034372  0.000000      1.000000
  0.000000  0.000000  0.019590      1.000000
  0.034372  0.000000  0.019590      1.000000
  0.000000  0.034372  0.019590      1.000000
  0.034372  0.034372  0.019590      1.000000
 


--------------------------------------------------------------------------------------------------------




 Dimension of arrays:
   k-points           NKPTS =      8   k-points in BZ     NKDIM =      8   number of bands    NBANDS=    168
   number of dos      NEDOS =   2000   number of ions     NIONS =     69
   non local maximal  LDIM  =      4   non local SUM 2l+1 LMDIM =      8
   total plane-waves  NPLWV = ******
   max r-space proj   IRMAX =      1   max aug-charges    IRDMAX= 402714
   dimension x,y,z NGX =   168 NGY =  168 NGZ =  288
   dimension x,y,z NGXF=   336 NGYF=  336 NGZF=  576
   support grid    NGXF=   672 NGYF=  672 NGZF= 1152
   ions per type =               7  62
   NGX,Y,Z   is equivalent  to a cutoff of  19.20, 19.20, 18.76 a.u.
   NGXF,Y,Z  is equivalent  to a cutoff of  38.40, 38.40, 37.52 a.u.

 SYSTEM =  a-Si SPC                                
 POSCAR =   H Si                                   

 Startparameter for this run:
   NWRITE =      2    write-flag & timer
   PREC   = accura    normal or accurate (medium, high low for compatibility)
   ISTART =      1    job   : 0-new  1-cont  2-samecut
   ICHARG =      1    charge: 1-file 2-atom 10-const
   ISPIN  =      1    spin polarized calculation?
   LNONCOLLINEAR =      F non collinear calculations
   LSORBIT =      F    spin-orbit coupling
   INIWAV =      1    electr: 0-lowe 1-rand  2-diag
   LASPH  =      T    aspherical Exc in radial PAW
 Electronic Relaxation 1
   ENCUT  = 1200.0 eV  88.20 Ry    9.39 a.u.  41.09 41.09 72.09*2*pi/ulx,y,z
   ENINI  = 1200.0     initial cutoff
   ENAUG  =  400.0 eV  augmentation charge cutoff
   NELM   =    150;   NELMIN=  2; NELMDL=  0     # of ELM steps 
   EDIFF  = 0.1E-05   stopping-criterion for ELM
   LREAL  =      F    real-space projection
   NLSPLINE    = F    spline interpolate recip. space projectors
   LCOMPAT=      F    compatible to vasp.4.4
   GGA_COMPAT  = T    GGA compatible to vasp.4.4-vasp.4.6
   LMAXPAW     = -100 max onsite density
   LMAXMIX     =    2 max onsite mixed and CHGCAR
   VOSKOWN=      0    Vosko Wilk Nusair interpolation
   ROPT   =    0.00000   0.00000
 Ionic relaxation
   EDIFFG = -.1E-01   stopping-criterion for IOM
   NSW    =      0    number of steps for IOM
   NBLOCK =      1;   KBLOCK =      1    inner block; outer block 
   IBRION =     -1    ionic relax: 0-MD 1-quasi-New 2-CG
   NFREE  =      0    steps in history (QN), initial steepest desc. (CG)
   ISIF   =      2    stress and relaxation
   IWAVPR =     10    prediction:  0-non 1-charg 2-wave 3-comb
   ISYM   =      1    0-nonsym 1-usesym 2-fastsym
   LCORR  =      T    Harris-Foulkes like correction to forces

   POTIM  = 0.5000    time-step for ionic-motion
   TEIN   =    0.0    initial temperature
   TEBEG  =    0.0;   TEEND  =   0.0 temperature during run
   SMASS  =  -3.00    Nose mass-parameter (am)
   estimated Nose-frequenzy (Omega)   =  0.10E-29 period in steps = 0.13E+47 mass=  -0.484E-26a.u.
   SCALEE = 1.0000    scale energy and forces
   NPACO  =    256;   APACO  = 10.0  distance and # of slots for P.C.
   PSTRESS=    0.0 pullay stress

  Mass of Ions in am
   POMASS =   1.00 28.09
  Ionic Valenz
   ZVAL   =   1.00  4.00
  Atomic Wigner-Seitz radii
   RWIGS  =  -1.00 -1.00
  virtual crystal weights 
   VCA    =   1.00  1.00
   NELECT =     255.0000    total number of electrons
   NUPDOWN=      -1.0000    fix difference up-down

 DOS related values:
   EMIN   =  10.00;   EMAX   =-10.00  energy-range for DOS
   EFERMI =   0.00;   METHOD = LEGACY      
   ISMEAR =     0;   SIGMA  =   0.10  broadening in eV -4-tet -1-fermi 0-gaus
   EFERMI_NEDOS =   21; number of points for ismear=-14 and -15

 Electronic relaxation 2 (details)
   IALGO  =     38    algorithm
   LDIAG  =      F    sub-space diagonalisation (order eigenvalues)
   LSUBROT=      F    optimize rotation matrix (better conditioning)
   TURBO    =      0    0=normal 1=particle mesh
   IRESTART =      0    0=no restart 2=restart with 2 vectors
   NREBOOT  =      0    no. of reboots
   NMIN     =      0    reboot dimension
   EREF     =   0.00    reference energy to select bands
   IMIX   =      4    mixing-type and parameters
     AMIX     =   0.40;   BMIX     =  1.00
     AMIX_MAG =   1.60;   BMIX_MAG =  1.00
     AMIN     =   0.10
     WC   =   100.;   INIMIX=   1;  MIXPRE=   1;  MAXMIX= -45

 Intra band minimization:
   WEIMIN = 0.0000     energy-eigenvalue tresh-hold
   EBREAK =  0.15E-08  absolut break condition
   DEPER  =   0.30     relativ break condition  

   TIME   =   0.40     timestep for ELM

  volume/ion in A,a.u.               =      78.27       528.22
  Fermi-wavevector in a.u.,A,eV,Ry     =   0.591696  1.118143  4.763450  0.350104
  Thomas-Fermi vector in A             =   1.640224

 Write flags
   LWAVE        =      F    write WAVECAR
   LDOWNSAMPLE  =      F    k-point downsampling of WAVECAR
   LCHARG       =      F    write CHGCAR
   LVTOT        =      F    write LOCPOT, total local potential
   LVHAR        =      F    write LOCPOT, Hartree potential only
   WRT_POTENTIAL= false  ! write potential to hdf5 file
   LELF         =      F    write electronic localiz. function (ELF)
   LORBIT       =     11    0 simple, 1 ext, 2 COOP (PROOUT), +10 PAW based schemes


 Python interface
   PLUGINS active      =      F    recompile with -DPLUGINS to activate

 Dipole corrections
   LMONO      =      F    monopole corrections only (constant potential shift)
   LDIPOL     =      F    correct potential (dipole corrections)
   IDIPOL     =      0    1-x, 2-y, 3-z, 4-all directions 
   EPSILON    =  1.0000000 bulk dielectric constant
   LVACPOTAV  =      F  vacuum potentials using an averaging scheme for the charge density
   VACPOTFLAT =  0.1000000 required flatness to determine vacuum potential

Coulomb truncation method
  LTRUNCATE          =      F  Coulomb kernel truncation to be used
  IDIMENSIONALITY    =      3  Dimensionality of cutoff (0 molecules / 2 surfaces)
  ISURFACE           =     -1  Direction of surface normal
  LCOARSEN           =      F  Coarsen the charge grid before padding, preferred


 Exchange correlation treatment:
   METAGGA = SCAN    functional components
   XC_C    = 1    coefficients multiplying the functional components
   LIBXC   =     F    Libxc                    
   VOSKOWN =     0    Vosko Wilk Nusair interpolation
   LHFCALC =     F    Hartree Fock is set to
   LHFONE  =     F    Hartree Fock one center treatment
   AEXX    =    0.0000 exact exchange contribution

 Parameters of functionals:
   SCAN:
     P1 =  0.000000E+00
     P2 =  0.000000E+00
     P3 =  0.000000E+00

 Accuracy and mixing parameters for tau-dependent meta-GGA functionals:
   LMAXTAU = 6
   LMIXTAU = T

 Van der Waals corrections
   IVDW    =     0    specifies the selected vdW correction

 Linear response parameters
   LEPSILON=     F    determine dielectric tensor
   LRPA    =     F    only Hartree local field effects (RPA)
   LNABLA  =     F    use nabla operator in PAW spheres
   LVEL    =     F    velocity operator in full k-point grid
   CSHIFT  =0.1000    complex shift for real part using Kramers Kronig
   OMEGAMAX=  -1.0    maximum frequency
   DEG_THRESHOLD= 0.2000000E-02 threshold for treating states as degnerate
   RTIME   =   -0.100 relaxation time in fs
  (WPLASMAI=    0.000 imaginary part of plasma frequency in eV, 0.658/RTIME)
   DFIELD  = 0.0000000 0.0000000 0.0000000 field for delta impulse in time

  Optional k-point grid parameters
   LKPOINTS_OPT  =     F    use optional k-point grid
   KPOINTS_OPT_MODE=     1    mode for optional k-point grid

 Orbital magnetization related:
   ORBITALMAG=     F  switch on orbital magnetization
   LCHIMAG   =     F  perturbation theory with respect to B field
   DQ        =  0.001000  dq finite difference perturbation B field
   LLRAUG    =     F  two centre corrections for induced B field
   LBONE     =     F  B-component reconstruction in AE one-centre
   LVGVCALC  =     T  calculate vGv susceptibility
   LVGVAPPL  =     F  apply vGv susceptibility instead of pGv for G=0

 Random number generation:
   RANDOM_GENERATOR = DEFAULT
   PCG_SEED         = not used


--------------------------------------------------------------------------------------------------------


 Static calculation
 charge density and potential will be updated during run
 non-spin polarized calculation
 Variant of blocked Davidson
 perform Loewdin sub-space diagonalisation
    ordering is kept fixed
    before iterative eigenvector-optimisation
 modified Broyden-mixing scheme, WC =      100.0
 initial mixing is a Kerker type mixing with AMIX =  0.4000 and BMIX =      1.0000
 Hartree-type preconditioning will be used
 using additional bands           40
 reciprocal scheme for non local part
 use partial core corrections
 calculate Harris-corrections to forces   (improved forces if not selfconsistent)
 use gradient corrections 
 use of overlap-Matrix (Vanderbilt PP)
 Gauss-broadening in eV      SIGMA  =   0.10


--------------------------------------------------------------------------------------------------------


  energy-cutoff  :     1200.00
  volume of cell :     5400.94
      direct lattice vectors                 reciprocal lattice vectors
    14.546908013  0.000000000  0.000000000     0.068743131  0.000000000  0.000000000
     0.000000000 14.546908013  0.000000000     0.000000000  0.068743131  0.000000000
     0.000000000  0.000000000 25.522793200     0.000000000  0.000000000  0.039180665

  length of vectors
    14.546908013 14.546908013 25.522793200     0.068743131  0.068743131  0.039180665



 old parameters found on file WAVECAR:
  energy-cutoff  :     1200.00
  volume of cell :     5400.94
      direct lattice vectors                 reciprocal lattice vectors
    14.546908013  0.000000000  0.000000000     0.068743131  0.000000000  0.000000000
     0.000000000 14.546908013  0.000000000     0.000000000  0.068743131  0.000000000
     0.000000000  0.000000000 25.522793200     0.000000000  0.000000000  0.039180665

  length of vectors


 k-points in units of 2pi/SCALE and weight: read from INCAR                         
   0.00000000  0.00000000  0.00000000       0.125
   0.03437157  0.00000000  0.00000000       0.125
   0.00000000  0.03437157  0.00000000       0.125
   0.03437157  0.03437157  0.00000000       0.125
   0.00000000  0.00000000  0.01959033       0.125
   0.03437157  0.00000000  0.01959033       0.125
   0.00000000  0.03437157  0.01959033       0.125
   0.03437157  0.03437157  0.01959033       0.125

 k-points in reciprocal lattice and weights: read from INCAR                         
   0.00000000  0.00000000  0.00000000       0.125
   0.50000000  0.00000000  0.00000000       0.125
   0.00000000  0.50000000  0.00000000       0.125
   0.50000000  0.50000000  0.00000000       0.125
   0.00000000  0.00000000  0.50000000       0.125
   0.50000000  0.00000000  0.50000000       0.125
   0.00000000  0.50000000  0.50000000       0.125
   0.50000000  0.50000000  0.50000000       0.125

 position of ions in fractional coordinates (direct lattice) 
   0.00340223  0.89522117  0.43110459
   0.77574561  0.17010075  0.51301255
   0.99265768  0.08354009  0.59497262
   0.47529276  0.68379205  0.58402594
   0.03676774  0.71861319  0.45461769
   0.84204148  0.61645677  0.56850765
   0.18942032  0.17545309  0.57187993
   0.24030055  0.49491892  0.40506237
   0.39826264  0.40696208  0.49896824
   0.37081763  0.28668154  0.43935564
   0.76391492  0.39655025  0.52099796
   0.05100397  0.87866782  0.59011422
   0.43347012  0.86995807  0.47679042
   0.81767204  0.73724945  0.39593022
   0.55534344  0.76854133  0.47795839
   0.85688313  0.14487546  0.55028081
   0.93033516  0.82365270  0.54532210
   0.32521207  0.66415076  0.49935926
   0.74215084  0.65229188  0.54650692
   0.77055550  0.87576686  0.58589603
   0.56046000  0.68266466  0.40106097
   0.87295527  0.61262641  0.44878486
   0.90816550  0.39899063  0.55735409
   0.61193898  0.54125110  0.43964636
   0.63158026  0.40502628  0.39405562
   0.85730246  0.09001501  0.39835468
   0.24088487  0.05941421  0.46541940
   0.33230154  0.76922188  0.43266868
   0.08651392  0.13177646  0.46961095
   0.51785025  0.50840014  0.51653489
   0.47087463  0.65717471  0.53041386
   0.73115881  0.31121803  0.44140753
   0.22338355  0.72078547  0.56293890
   0.18815064  0.08322662  0.60334357
   0.02336675  0.41024044  0.49150472
   0.38924148  0.91397430  0.55815925
   0.62476713  0.06679468  0.55415460
   0.11061113  0.61658670  0.56892923
   0.17528192  0.82309588  0.42418403
   0.35874634  0.33904868  0.57622232
   0.16763975  0.84783653  0.52564361
   0.72558375  0.00409040  0.39890548
   0.19772655  0.32645357  0.57080246
   0.74769154  0.53989411  0.48457091
   0.76378430  0.03021976  0.58701620
   0.57159707  0.46911756  0.59988196
   0.92143292  0.91734271  0.47090352
   0.99067101  0.68510229  0.50706923
   0.58208315  0.21773768  0.54916181
   0.66317873  0.34469524  0.57942221
   0.37583176  0.14097291  0.47631241
   0.50900232  0.27454425  0.39319482
   0.61259547  0.21206500  0.45687410
   0.46969088  0.01554887  0.44045466
   0.70565511  0.80411590  0.51556674
   0.42180510  0.19017650  0.56319789
   0.93333236  0.07580030  0.47899942
   0.51084258  0.99105597  0.59424308
   0.97879219  0.50152582  0.42121010
   0.25126577  0.97646180  0.54372549
   0.23444157  0.95543328  0.39180665
   0.14297746  0.47398457  0.54230989
   0.90392405  0.53726950  0.60670488
   0.21449713  0.33454395  0.41896258
   0.12641587  0.29419929  0.49229264
   0.62049475  0.05879222  0.46024795
   0.26859797  0.51211983  0.49077948
   0.90303726  0.26410630  0.60819335
   0.78079823  0.86630093  0.44057573

 position of ions in cartesian coordinates  (Angst):
   0.04949199 13.02270000 11.00299320
  11.28470000  2.47444000 13.09351320
  14.44010000  1.21525000 15.18536320
   6.91404000  9.94706000 14.90597320
   0.53485700 10.45360000 11.60311320
  12.24910000  8.96754000 14.50990320
   2.75548000  2.55230000 14.59597320
   3.49563000  7.19954000 10.33832320
   5.79349000  5.92004000 12.73506320
   5.39425000  4.17033000 11.21358320
  11.11260000  5.76858000 13.29732320
   0.74195000 12.78190000 15.06136320
   6.30565000 12.65520000 12.16902320
  11.89460000 10.72470000 10.10524520
   8.07853000 11.17990000 12.19883320
  12.46500000  2.10749000 14.04470320
  13.53350000 11.98160000 13.91814320
   4.73083000  9.66134000 12.74504320
  10.79600000  9.48883000 13.94838320
  11.20920000 12.73970000 14.95370320
   8.15296000  9.93066000 10.23619620
  12.69880000  8.91182000 11.45424320
  13.21100000  5.80408000 14.22523320
   8.90182000  7.87353000 11.22100320
   9.18754000  5.89188000 10.05740020
  12.47110000  1.30944000 10.16712420
   3.50413000  0.86429300 11.87880320
   4.83396000 11.18980000 11.04291320
   1.25851000  1.91694000 11.98578320
   7.53312000  7.39565000 13.18341320
   6.84977000  9.55986000 13.53764320
  10.63610000  4.52726000 11.26595320
   3.24954000 10.48520000 14.36777320
   2.73701000  1.21069000 15.39901320
   0.33991400  5.96773000 12.54457320
   5.66226000 13.29550000 14.24578320
   9.08843000  0.97165600 14.14357320
   1.60905000  8.96943000 14.52066320
   2.54981000 11.97350000 10.82636120
   5.21865000  4.93211000 14.70680320
   2.43864000 12.33340000 13.41589320
  10.55500000  0.05950260 10.18118220
   2.87631000  4.74889000 14.56847320
  10.87660000  7.85379000 12.36760320
  11.11070000  0.43960400 14.98229320
   8.31497000  6.82421000 15.31066320
  13.40400000 13.34450000 12.01877320
  14.41120000  9.96612000 12.94182320
   8.46751000  3.16741000 14.01614320
   9.64720000  5.01425000 14.78847320
   5.46719000  2.05072000 12.15682320
   7.40441000  3.99377000 10.03543000
   8.91137000  3.08489000 11.66070320
   6.83255000  0.22618800 11.24163320
  10.26510000 11.69740000 13.15870320
   6.13596000  2.76648000 14.37438320
  13.57710000  1.10266000 12.22540320
   7.43118000 14.41680000 15.16674320
  14.23840000  7.29565000 10.75045820
   3.65514000 14.20450000 13.87739320
   3.41040000 13.89860000 10.00000000
   2.07988000  6.89501000 13.84126320
  13.14930000  7.81561000 15.48480320
   3.12027000  4.86658000 10.69309520
   1.83896000  4.27969000 12.56468320
   9.02628000  0.85524500 11.74681320
   3.90727000  7.44976000 12.52606320
  13.13640000  3.84193000 15.52279320
  11.35820000 12.60200000 11.24472320



--------------------------------------------------------------------------------------------------------


 k-point     1 :   0.0000 0.0000 0.0000  plane waves:  509529
 k-point     2 :   0.5000 0.0000 0.0000  plane waves:  509746
 k-point     3 :   0.0000 0.5000 0.0000  plane waves:  509746
 k-point     4 :   0.5000 0.5000 0.0000  plane waves:  510108
 k-point     5 :   0.0000 0.0000 0.5000  plane waves:  509664
 k-point     6 :   0.5000 0.0000 0.5000  plane waves:  509848
 k-point     7 :   0.0000 0.5000 0.5000  plane waves:  509848
 k-point     8 :   0.5000 0.5000 0.5000  plane waves:  509712

 maximum and minimum number of plane-waves per node :     31968    31764

 maximum number of plane-waves:    510108
 maximum index in each direction: 
   IXMAX=   41   IYMAX=   41   IZMAX=   72
   IXMIN=  -41   IYMIN=  -41   IZMIN=  -72


 parallel 3D FFT for wavefunctions:
    minimum data exchange during FFTs selected (reduces bandwidth)
 parallel 3D FFT for charge:
    minimum data exchange during FFTs selected (reduces bandwidth)


 total amount of memory used by VASP MPI-rank0   357419. kBytes
=======================================================================

   base                                    :      30000. kBytes
   nonl-proj                               :      67908. kBytes
   fftplans                                :      98005. kBytes
   grid                                    :      75605. kBytes
   one-center                              :         15. kBytes
   wavefun                                 :      85886. kBytes

     INWAV:  cpu time     26.0053: real time     26.0201
 Broyden mixing: mesh for mixing (old mesh)
   NGX = 83   NGY = 83   NGZ =145
  (NGX  =336   NGY  =336   NGZ  =576)
  gives a total of 998905 points

 initial charge density was supplied:
 number of electron     254.9999999 magnetization 
 keeping initial charge density in first step


--------------------------------------------------------------------------------------------------------


 Maximum index for augmentation-charges        11228 (set IRDMAX)


--------------------------------------------------------------------------------------------------------


 First call to EWALD:  gamma=   0.101
 Maximum number of real-space cells   3x   3x   2
 Maximum number of reciprocal cells   2x   2x   4

    FEWALD:  cpu time      0.0112: real time      0.0113


--------------------------------------- Ionic step        1  -------------------------------------------




--------------------------------------- Iteration      1(   1)  ---------------------------------------


    POTLOK:  cpu time      1.9151: real time      1.9164
    SETDIJ:  cpu time      1.3637: real time      1.3648
    EDDIAG:  cpu time     50.3720: real time     50.3974
     EDDAV:  cpu time    221.7027: real time    221.8381
       DOS:  cpu time      0.0094: real time      0.0095
    CHARGE:  cpu time     28.3939: real time     28.4184
    MIXING:  cpu time      0.0452: real time      0.0463
    --------------------------------------------
      LOOP:  cpu time    303.8021: real time    303.9910

 eigenvalue-minimisations  :  2688
 total energy-change (2. order) :-0.6286079E+03  (-0.7310799E+00)
 number of electron     254.9999999 magnetization 
 augmentation part      -14.2923347 magnetization 

 Broyden mixing:
  rms(total) = 0.91797E+00    rms(broyden)= 0.24908E+02
  rms(prec ) = 0.95275E+00
  weight for this iteration     100.00
  WARNING: grid for Broyden might be to small

 Free energy of the ion-electron system (eV)
  ---------------------------------------------------
  alpha Z        PSCENC =        25.44038804
  Ewald energy   TEWEN  =     28577.49563866
  -Hartree energ DENC   =    -34114.46899156
  -exchange      EXHF   =         0.00000000
  -V(xc)+E(xc)   XCENC  =      -296.00641381
  PAW double counting   =     21410.70152272   -20792.14777496
  entropy T*S    EENTRO =        -0.16448142
  eigenvalues    EBANDS =     -1917.02010489
  atomic energy  EATOM  =      6477.56235275
  Solvation  Ediel_sol  =         0.00000000
  ---------------------------------------------------
  free energy    TOTEN  =      -628.60786448 eV

  energy without entropy =     -628.44338306  energy(sigma->0) =     -628.52562377


--------------------------------------------------------------------------------------------------------




--------------------------------------- Iteration      1(   2)  ---------------------------------------


    POTLOK:  cpu time      1.8954: real time      1.9119
    SETDIJ:  cpu time      1.3644: real time      1.3652
    EDDIAG:  cpu time     50.8074: real time     50.8360
     EDDAV:  cpu time    223.3264: real time    223.4562
       DOS:  cpu time      0.0037: real time      0.0037
    CHARGE:  cpu time     28.3063: real time     28.3331
    MIXING:  cpu time      0.0408: real time      0.0409
    --------------------------------------------
      LOOP:  cpu time    305.7443: real time    305.9470

 eigenvalue-minimisations  :  2688
 total energy-change (2. order) : 0.4540111E+02  (-0.6833410E+00)
 number of electron     254.9999999 magnetization 
 augmentation part      -14.2558691 magnetization 

 Broyden mixing:
  rms(total) = 0.62407E+00    rms(broyden)= 0.14408E+02
  rms(prec ) = 0.64203E+00
  weight for this iteration     100.00
  WARNING: grid for Broyden might be to small

 eigenvalues of (default mixing * dielectric matrix)
  average eigenvalue GAMMA=   0.6336
  0.6336

 Free energy of the ion-electron system (eV)
  ---------------------------------------------------
  alpha Z        PSCENC =        25.44038804
  Ewald energy   TEWEN  =     28577.49563866
  -Hartree energ DENC   =    -34105.03191469
  -exchange      EXHF   =         0.00000000
  -V(xc)+E(xc)   XCENC  =      -289.75133994
  PAW double counting   =     25477.24178187   -24858.53338490
  entropy T*S    EENTRO =        -0.15909591
  eigenvalues    EBANDS =     -1887.47117946
  atomic energy  EATOM  =      6477.56235275
  Solvation  Ediel_sol  =         0.00000000
  ---------------------------------------------------
  free energy    TOTEN  =      -583.20675359 eV

  energy without entropy =     -583.04765767  energy(sigma->0) =     -583.12720563


--------------------------------------------------------------------------------------------------------




--------------------------------------- Iteration      1(   3)  ---------------------------------------


    POTLOK:  cpu time      1.8810: real time      1.9102
    SETDIJ:  cpu time      1.3514: real time      1.3523
    EDDIAG:  cpu time     50.8085: real time     50.8383
     EDDAV:  cpu time    223.3065: real time    223.4412
       DOS:  cpu time      0.0027: real time      0.0027
    CHARGE:  cpu time     28.3308: real time     28.3570
    MIXING:  cpu time      0.0387: real time      0.0387
    --------------------------------------------
      LOOP:  cpu time    305.7196: real time    305.9405

 eigenvalue-minimisations  :  2688
 total energy-change (2. order) :-0.1985678E+01  (-0.5475269E+00)
 number of electron     254.9999999 magnetization 
 augmentation part      -14.2113628 magnetization 

 Broyden mixing:
  rms(total) = 0.29184E+00    rms(broyden)= 0.18287E+02
  rms(prec ) = 0.34657E+00
  weight for this iteration     100.00
  WARNING: grid for Broyden might be to small

 eigenvalues of (default mixing * dielectric matrix)
  average eigenvalue GAMMA=   0.7684
  0.9108  0.6261

 Free energy of the ion-electron system (eV)
  ---------------------------------------------------
  alpha Z        PSCENC =        25.44038804
  Ewald energy   TEWEN  =     28577.49563866
  -Hartree energ DENC   =    -34103.53117360
  -exchange      EXHF   =         0.00000000
  -V(xc)+E(xc)   XCENC  =      -291.63259406
  PAW double counting   =     29887.98327580   -29269.38666760
  entropy T*S    EENTRO =        -0.16248080
  eigenvalues    EBANDS =     -1888.96117070
  atomic energy  EATOM  =      6477.56235275
  Solvation  Ediel_sol  =         0.00000000
  ---------------------------------------------------
  free energy    TOTEN  =      -585.19243151 eV

  energy without entropy =     -585.02995071  energy(sigma->0) =     -585.11119111


--------------------------------------------------------------------------------------------------------




--------------------------------------- Iteration      1(   4)  ---------------------------------------


    POTLOK:  cpu time      1.9601: real time      1.9850
    SETDIJ:  cpu time      1.3565: real time      1.3572
    EDDIAG:  cpu time     50.8531: real time     50.8797
     EDDAV:  cpu time    228.2631: real time    228.3888
       DOS:  cpu time      0.0038: real time      0.0038
    CHARGE:  cpu time     28.4170: real time     28.4425
    MIXING:  cpu time      0.0387: real time      0.0387
    --------------------------------------------
      LOOP:  cpu time    310.8921: real time    311.0957

 eigenvalue-minimisations  :  2800
 total energy-change (2. order) : 0.2139604E+00  (-0.6129902E-01)
 number of electron     254.9999999 magnetization 
 augmentation part      -14.2040803 magnetization 

 Broyden mixing:
  rms(total) = 0.42628E-01    rms(broyden)= 0.19165E+01
  rms(prec ) = 0.52526E-01
  weight for this iteration     100.00
  WARNING: grid for Broyden might be to small

 eigenvalues of (default mixing * dielectric matrix)
  average eigenvalue GAMMA=   1.1562
  2.1779  0.6778  0.6130

 Free energy of the ion-electron system (eV)
  ---------------------------------------------------
  alpha Z        PSCENC =        25.44038804
  Ewald energy   TEWEN  =     28577.49563866
  -Hartree energ DENC   =    -34103.50876898
  -exchange      EXHF   =         0.00000000
  -V(xc)+E(xc)   XCENC  =      -291.92031746
  PAW double counting   =     34081.14455847   -33462.61388913
  entropy T*S    EENTRO =        -0.16278908
  eigenvalues    EBANDS =     -1888.41564441
  atomic energy  EATOM  =      6477.56235275
  Solvation  Ediel_sol  =         0.00000000
  ---------------------------------------------------
  free energy    TOTEN  =      -584.97847112 eV

  energy without entropy =     -584.81568205  energy(sigma->0) =     -584.89707659


--------------------------------------------------------------------------------------------------------




--------------------------------------- Iteration      1(   5)  ---------------------------------------


    POTLOK:  cpu time      1.8781: real time      1.9069
    SETDIJ:  cpu time      1.3675: real time      1.3682
    EDDIAG:  cpu time     50.8369: real time     50.8656
     EDDAV:  cpu time    246.3973: real time    246.5499
       DOS:  cpu time      0.0027: real time      0.0027
    CHARGE:  cpu time     28.3459: real time     28.3726
    MIXING:  cpu time      0.0380: real time      0.0380
    --------------------------------------------
      LOOP:  cpu time    328.8664: real time    329.1040

 eigenvalue-minimisations  :  3192
 total energy-change (2. order) :-0.2404074E-01  (-0.5927255E-02)
 number of electron     254.9999999 magnetization 
 augmentation part      -14.2061439 magnetization 

 Broyden mixing:
  rms(total) = 0.28977E-01    rms(broyden)= 0.26848E+00
  rms(prec ) = 0.34123E-01
  weight for this iteration     100.00
  WARNING: grid for Broyden might be to small

 eigenvalues of (default mixing * dielectric matrix)
  average eigenvalue GAMMA=   1.1386
  2.5413  0.7802  0.6165  0.6165

 Free energy of the ion-electron system (eV)
  ---------------------------------------------------
  alpha Z        PSCENC =        25.44038804
  Ewald energy   TEWEN  =     28577.49563866
  -Hartree energ DENC   =    -34103.42411707
  -exchange      EXHF   =         0.00000000
  -V(xc)+E(xc)   XCENC  =      -292.66518983
  PAW double counting   =     33734.55122244   -33115.99751229
  entropy T*S    EENTRO =        -0.16161215
  eigenvalues    EBANDS =     -1887.80368240
  atomic energy  EATOM  =      6477.56235275
  Solvation  Ediel_sol  =         0.00000000
  ---------------------------------------------------
  free energy    TOTEN  =      -585.00251186 eV

  energy without entropy =     -584.84089971  energy(sigma->0) =     -584.92170578


--------------------------------------------------------------------------------------------------------




--------------------------------------- Iteration      1(   6)  ---------------------------------------


    POTLOK:  cpu time      1.8893: real time      1.9123
    SETDIJ:  cpu time      1.3518: real time      1.3524
    EDDIAG:  cpu time     50.8329: real time     50.8630
     EDDAV:  cpu time    238.3355: real time    238.4663
       DOS:  cpu time      0.0027: real time      0.0027
    CHARGE:  cpu time     28.3584: real time     28.3846
    MIXING:  cpu time      0.0395: real time      0.0395
    --------------------------------------------
      LOOP:  cpu time    320.8100: real time    321.0207

 eigenvalue-minimisations  :  3016
 total energy-change (2. order) :-0.2333053E-02  (-0.1299131E-02)
 number of electron     254.9999999 magnetization 
 augmentation part      -14.2055632 magnetization 

 Broyden mixing:
  rms(total) = 0.19336E-01    rms(broyden)= 0.13672E+00
  rms(prec ) = 0.21087E-01
  weight for this iteration     100.00
  WARNING: grid for Broyden might be to small

 eigenvalues of (default mixing * dielectric matrix)
  average eigenvalue GAMMA=   1.0713
  2.5846  0.8789  0.6532  0.6532  0.5867

 Free energy of the ion-electron system (eV)
  ---------------------------------------------------
  alpha Z        PSCENC =        25.44038804
  Ewald energy   TEWEN  =     28577.49563866
  -Hartree energ DENC   =    -34103.36371217
  -exchange      EXHF   =         0.00000000
  -V(xc)+E(xc)   XCENC  =      -292.79759959
  PAW double counting   =     33682.45028444   -33063.88972188
  entropy T*S    EENTRO =        -0.16109173
  eigenvalues    EBANDS =     -1887.74138342
  atomic energy  EATOM  =      6477.56235275
  Solvation  Ediel_sol  =         0.00000000
  ---------------------------------------------------
  free energy    TOTEN  =      -585.00484491 eV

  energy without entropy =     -584.84375318  energy(sigma->0) =     -584.92429905


--------------------------------------------------------------------------------------------------------




--------------------------------------- Iteration      1(   7)  ---------------------------------------


    POTLOK:  cpu time      1.8768: real time      1.9012
    SETDIJ:  cpu time      1.3626: real time      1.3632
    EDDIAG:  cpu time     50.7460: real time     50.7744
     EDDAV:  cpu time    229.1606: real time    229.2988
       DOS:  cpu time      0.0028: real time      0.0028
    CHARGE:  cpu time     28.3718: real time     28.4004
    MIXING:  cpu time      0.0396: real time      0.0396
    --------------------------------------------
      LOOP:  cpu time    311.5603: real time    311.7805

 eigenvalue-minimisations  :  2816
 total energy-change (2. order) :-0.1058584E-02  (-0.5660878E-03)
 number of electron     254.9999999 magnetization 
 augmentation part      -14.2041793 magnetization 

 Broyden mixing:
  rms(total) = 0.92058E-02    rms(broyden)= 0.79811E-01
  rms(prec ) = 0.10725E-01
  weight for this iteration     100.00
  WARNING: grid for Broyden might be to small

 eigenvalues of (default mixing * dielectric matrix)
  average eigenvalue GAMMA=   1.0445
  2.5901  1.1959  0.7749  0.6214  0.5423  0.5423

 Free energy of the ion-electron system (eV)
  ---------------------------------------------------
  alpha Z        PSCENC =        25.44038804
  Ewald energy   TEWEN  =     28577.49563866
  -Hartree energ DENC   =    -34102.99193200
  -exchange      EXHF   =         0.00000000
  -V(xc)+E(xc)   XCENC  =      -292.70865214
  PAW double counting   =     33676.66090572   -33058.09212902
  entropy T*S    EENTRO =        -0.16197219
  eigenvalues    EBANDS =     -1888.21050331
  atomic energy  EATOM  =      6477.56235275
  Solvation  Ediel_sol  =         0.00000000
  ---------------------------------------------------
  free energy    TOTEN  =      -585.00590350 eV

  energy without entropy =     -584.84393130  energy(sigma->0) =     -584.92491740


--------------------------------------------------------------------------------------------------------




--------------------------------------- Iteration      1(   8)  ---------------------------------------


    POTLOK:  cpu time      1.8803: real time      1.9093
    SETDIJ:  cpu time      1.3533: real time      1.3541
    EDDIAG:  cpu time     50.8040: real time     50.8314
     EDDAV:  cpu time    232.1205: real time    232.2606
       DOS:  cpu time      0.0040: real time      0.0040
    CHARGE:  cpu time     28.3483: real time     28.3744
    MIXING:  cpu time      0.0401: real time      0.0401
    --------------------------------------------
      LOOP:  cpu time    314.5506: real time    314.7740

 eigenvalue-minimisations  :  2880
 total energy-change (2. order) :-0.3888061E-03  (-0.2432906E-03)
 number of electron     254.9999999 magnetization 
 augmentation part      -14.2035576 magnetization 

 Broyden mixing:
  rms(total) = 0.29460E-02    rms(broyden)= 0.63396E-01
  rms(prec ) = 0.38329E-02
  weight for this iteration     100.00
  WARNING: grid for Broyden might be to small

 eigenvalues of (default mixing * dielectric matrix)
  average eigenvalue GAMMA=   1.0566
  2.5765  1.5061  0.8072  0.8072  0.6341  0.5782  0.4868

 Free energy of the ion-electron system (eV)
  ---------------------------------------------------
  alpha Z        PSCENC =        25.44038804
  Ewald energy   TEWEN  =     28577.49563866
  -Hartree energ DENC   =    -34102.52686127
  -exchange      EXHF   =         0.00000000
  -V(xc)+E(xc)   XCENC  =      -292.64425993
  PAW double counting   =     33697.80845777   -33079.23410647
  entropy T*S    EENTRO =        -0.16176782
  eigenvalues    EBANDS =     -1888.74613404
  atomic energy  EATOM  =      6477.56235275
  Solvation  Ediel_sol  =         0.00000000
  ---------------------------------------------------
  free energy    TOTEN  =      -585.00629230 eV

  energy without entropy =     -584.84452449  energy(sigma->0) =     -584.92540839


--------------------------------------------------------------------------------------------------------




--------------------------------------- Iteration      1(   9)  ---------------------------------------


    POTLOK:  cpu time      1.8754: real time      1.9022
    SETDIJ:  cpu time      1.3757: real time      1.3765
    EDDIAG:  cpu time     50.8984: real time     50.9274
     EDDAV:  cpu time    229.2013: real time    229.3327
       DOS:  cpu time      0.0027: real time      0.0027
    CHARGE:  cpu time     28.3758: real time     28.4003
    MIXING:  cpu time      0.0401: real time      0.0401
    --------------------------------------------
      LOOP:  cpu time    311.7696: real time    311.9821

 eigenvalue-minimisations  :  2816
 total energy-change (2. order) : 0.3777579E-04  (-0.1001467E-03)
 number of electron     254.9999999 magnetization 
 augmentation part      -14.2038652 magnetization 

 Broyden mixing:
  rms(total) = 0.16880E-02    rms(broyden)= 0.16068E-01
  rms(prec ) = 0.22016E-02
  weight for this iteration     100.00
  WARNING: grid for Broyden might be to small

 eigenvalues of (default mixing * dielectric matrix)
  average eigenvalue GAMMA=   1.1683
  2.5815  2.5815  1.0210  0.7746  0.6819  0.6250  0.5793  0.5017

 Free energy of the ion-electron system (eV)
  ---------------------------------------------------
  alpha Z        PSCENC =        25.44038804
  Ewald energy   TEWEN  =     28577.49563866
  -Hartree energ DENC   =    -34102.23457200
  -exchange      EXHF   =         0.00000000
  -V(xc)+E(xc)   XCENC  =      -292.67500962
  PAW double counting   =     33703.40344519   -33084.82789258
  entropy T*S    EENTRO =        -0.16168934
  eigenvalues    EBANDS =     -1889.00891561
  atomic energy  EATOM  =      6477.56235275
  Solvation  Ediel_sol  =         0.00000000
  ---------------------------------------------------
  free energy    TOTEN  =      -585.00625453 eV

  energy without entropy =     -584.84456518  energy(sigma->0) =     -584.92540986


--------------------------------------------------------------------------------------------------------




--------------------------------------- Iteration      1(  10)  ---------------------------------------


    POTLOK:  cpu time      1.8756: real time      1.9037
    SETDIJ:  cpu time      1.3517: real time      1.3523
    EDDIAG:  cpu time     50.8757: real time     50.9007
     EDDAV:  cpu time    231.6508: real time    231.7928
       DOS:  cpu time      0.0027: real time      0.0027
    CHARGE:  cpu time     28.3425: real time     28.3726
    MIXING:  cpu time      0.0409: real time      0.0409
    --------------------------------------------
      LOOP:  cpu time    314.1396: real time    314.3654

 eigenvalue-minimisations  :  2872
 total energy-change (2. order) :-0.2242115E-04  (-0.4378333E-04)
 number of electron     254.9999999 magnetization 
 augmentation part      -14.2039617 magnetization 

 Broyden mixing:
  rms(total) = 0.10715E-02    rms(broyden)= 0.73762E-02
  rms(prec ) = 0.14983E-02
  weight for this iteration     100.00
  WARNING: grid for Broyden might be to small

 eigenvalues of (default mixing * dielectric matrix)
  average eigenvalue GAMMA=   1.1510
  2.6944  2.6944  0.9861  0.9407  0.7004  0.5083  0.6431  0.5957  0.5957

 Free energy of the ion-electron system (eV)
  ---------------------------------------------------
  alpha Z        PSCENC =        25.44038804
  Ewald energy   TEWEN  =     28577.49563866
  -Hartree energ DENC   =    -34101.90426281
  -exchange      EXHF   =         0.00000000
  -V(xc)+E(xc)   XCENC  =      -292.68495919
  PAW double counting   =     33701.88241869   -33083.30601299
  entropy T*S    EENTRO =        -0.16180144
  eigenvalues    EBANDS =     -1889.33003866
  atomic energy  EATOM  =      6477.56235275
  Solvation  Ediel_sol  =         0.00000000
  ---------------------------------------------------
  free energy    TOTEN  =      -585.00627695 eV

  energy without entropy =     -584.84447551  energy(sigma->0) =     -584.92537623


--------------------------------------------------------------------------------------------------------




--------------------------------------- Iteration      1(  11)  ---------------------------------------


    POTLOK:  cpu time      1.8737: real time      1.9047
    SETDIJ:  cpu time      1.3540: real time      1.3548
    EDDIAG:  cpu time     50.8685: real time     50.8984
     EDDAV:  cpu time    229.5637: real time    229.6985
       DOS:  cpu time      0.0046: real time      0.0046
    CHARGE:  cpu time     28.3281: real time     28.3555
    MIXING:  cpu time      0.0423: real time      0.0423
    --------------------------------------------
      LOOP:  cpu time    312.0350: real time    312.2587

 eigenvalue-minimisations  :  2824
 total energy-change (2. order) :-0.1498905E-03  (-0.4289348E-04)
 number of electron     254.9999999 magnetization 
 augmentation part      -14.2040932 magnetization 

 Broyden mixing:
  rms(total) = 0.54714E-03    rms(broyden)= 0.53173E-02
  rms(prec ) = 0.92043E-03
  weight for this iteration     100.00
  WARNING: grid for Broyden might be to small

 eigenvalues of (default mixing * dielectric matrix)
  average eigenvalue GAMMA=   1.1732
  2.7916  2.7609  1.3433  1.0594  0.8173  0.6727  0.6349  0.5042  0.5740  0.5740

 Free energy of the ion-electron system (eV)
  ---------------------------------------------------
  alpha Z        PSCENC =        25.44038804
  Ewald energy   TEWEN  =     28577.49563866
  -Hartree energ DENC   =    -34101.50741125
  -exchange      EXHF   =         0.00000000
  -V(xc)+E(xc)   XCENC  =      -292.69446185
  PAW double counting   =     33699.83723247   -33081.26009979
  entropy T*S    EENTRO =        -0.16174887
  eigenvalues    EBANDS =     -1889.71831700
  atomic energy  EATOM  =      6477.56235275
  Solvation  Ediel_sol  =         0.00000000
  ---------------------------------------------------
  free energy    TOTEN  =      -585.00642684 eV

  energy without entropy =     -584.84467797  energy(sigma->0) =     -584.92555240


--------------------------------------------------------------------------------------------------------




--------------------------------------- Iteration      1(  12)  ---------------------------------------


    POTLOK:  cpu time      1.8824: real time      1.9123
    SETDIJ:  cpu time      1.3586: real time      1.3596
    EDDIAG:  cpu time     50.7969: real time     50.8231
     EDDAV:  cpu time    229.1700: real time    229.3015
       DOS:  cpu time      0.0037: real time      0.0037
    CHARGE:  cpu time     28.3666: real time     28.3922
    MIXING:  cpu time      0.0427: real time      0.0427
    --------------------------------------------
      LOOP:  cpu time    311.6210: real time    311.8350

 eigenvalue-minimisations  :  2816
 total energy-change (2. order) :-0.2082919E-03  (-0.4029123E-04)
 number of electron     254.9999999 magnetization 
 augmentation part      -14.2041893 magnetization 

 Broyden mixing:
  rms(total) = 0.39138E-03    rms(broyden)= 0.41805E-02
  rms(prec ) = 0.67745E-03
  weight for this iteration     100.00
  WARNING: grid for Broyden might be to small

 eigenvalues of (default mixing * dielectric matrix)
  average eigenvalue GAMMA=   1.2195
  3.0513  2.6911  1.9432  1.0010  1.0010  0.7863  0.6669  0.5049  0.6190  0.5750
  0.5750

 Free energy of the ion-electron system (eV)
  ---------------------------------------------------
  alpha Z        PSCENC =        25.44038804
  Ewald energy   TEWEN  =     28577.49563866
  -Hartree energ DENC   =    -34101.20271965
  -exchange      EXHF   =         0.00000000
  -V(xc)+E(xc)   XCENC  =      -292.70184803
  PAW double counting   =     33700.08101826   -33081.50393809
  entropy T*S    EENTRO =        -0.16177062
  eigenvalues    EBANDS =     -1890.01575644
  atomic energy  EATOM  =      6477.56235275
  Solvation  Ediel_sol  =         0.00000000
  ---------------------------------------------------
  free energy    TOTEN  =      -585.00663513 eV

  energy without entropy =     -584.84486451  energy(sigma->0) =     -584.92574982


--------------------------------------------------------------------------------------------------------




--------------------------------------- Iteration      1(  13)  ---------------------------------------


    POTLOK:  cpu time      1.8755: real time      1.9020
    SETDIJ:  cpu time      1.3552: real time      1.3558
    EDDIAG:  cpu time     50.8555: real time     50.8843
     EDDAV:  cpu time    228.1911: real time    228.3293
       DOS:  cpu time      0.0117: real time      0.0120
    CHARGE:  cpu time     28.3477: real time     28.3924
    MIXING:  cpu time      0.0568: real time      0.0572
    --------------------------------------------
      LOOP:  cpu time    310.6935: real time    310.9330

 eigenvalue-minimisations  :  2800
 total energy-change (2. order) :-0.2146998E-03  (-0.4328753E-04)
 number of electron     254.9999999 magnetization 
 augmentation part      -14.2042622 magnetization 

 Broyden mixing:
  rms(total) = 0.27091E-03    rms(broyden)= 0.28595E-02
  rms(prec ) = 0.48294E-03
  weight for this iteration     100.00
  WARNING: grid for Broyden might be to small

 eigenvalues of (default mixing * dielectric matrix)
  average eigenvalue GAMMA=   1.2921
  3.7352  2.6581  2.5097  1.0855  1.0855  0.8477  0.5096  0.6421  0.6421  0.6229
  0.5836  0.5836

 Free energy of the ion-electron system (eV)
  ---------------------------------------------------
  alpha Z        PSCENC =        25.44038804
  Ewald energy   TEWEN  =     28577.49563866
  -Hartree energ DENC   =    -34100.94119177
  -exchange      EXHF   =         0.00000000
  -V(xc)+E(xc)   XCENC  =      -292.70836079
  PAW double counting   =     33700.54946115   -33081.97271172
  entropy T*S    EENTRO =        -0.16177384
  eigenvalues    EBANDS =     -1890.27065231
  atomic energy  EATOM  =      6477.56235275
  Solvation  Ediel_sol  =         0.00000000
  ---------------------------------------------------
  free energy    TOTEN  =      -585.00684983 eV

  energy without entropy =     -584.84507599  energy(sigma->0) =     -584.92596291


--------------------------------------------------------------------------------------------------------




--------------------------------------- Iteration      1(  14)  ---------------------------------------


    POTLOK:  cpu time      1.8924: real time      1.9181
    SETDIJ:  cpu time      1.3673: real time      1.3688
    EDDIAG:  cpu time     50.8557: real time     50.8867
     EDDAV:  cpu time    227.4087: real time    227.5461
       DOS:  cpu time      0.0037: real time      0.0037
    CHARGE:  cpu time     28.3187: real time     28.3443
    MIXING:  cpu time      0.0440: real time      0.0440
    --------------------------------------------
      LOOP:  cpu time    309.8904: real time    310.1116

 eigenvalue-minimisations  :  2784
 total energy-change (2. order) :-0.2556676E-03  (-0.6177652E-04)
 number of electron     254.9999999 magnetization 
 augmentation part      -14.2043502 magnetization 

 Broyden mixing:
  rms(total) = 0.17803E-03    rms(broyden)= 0.24289E-02
  rms(prec ) = 0.29004E-03
  weight for this iteration     100.00
  WARNING: grid for Broyden might be to small

 eigenvalues of (default mixing * dielectric matrix)
  average eigenvalue GAMMA=   1.4508
  5.4004  2.7204  2.7204  1.6120  1.0099  1.0099  0.8379  0.5083  0.6295  0.6130
  0.6130  0.5929  0.5929

 Free energy of the ion-electron system (eV)
  ---------------------------------------------------
  alpha Z        PSCENC =        25.44038804
  Ewald energy   TEWEN  =     28577.49563866
  -Hartree energ DENC   =    -34100.61582991
  -exchange      EXHF   =         0.00000000
  -V(xc)+E(xc)   XCENC  =      -292.71494320
  PAW double counting   =     33700.22191614   -33081.64564433
  entropy T*S    EENTRO =        -0.16177409
  eigenvalues    EBANDS =     -1890.58920955
  atomic energy  EATOM  =      6477.56235275
  Solvation  Ediel_sol  =         0.00000000
  ---------------------------------------------------
  free energy    TOTEN  =      -585.00710550 eV

  energy without entropy =     -584.84533141  energy(sigma->0) =     -584.92621845


--------------------------------------------------------------------------------------------------------




--------------------------------------- Iteration      1(  15)  ---------------------------------------


    POTLOK:  cpu time      1.8810: real time      1.9076
    SETDIJ:  cpu time      1.3612: real time      1.3617
    EDDIAG:  cpu time     50.8051: real time     50.8350
     EDDAV:  cpu time    231.3240: real time    231.4503
       DOS:  cpu time      0.0030: real time      0.0030
    CHARGE:  cpu time     28.3497: real time     28.3758
    MIXING:  cpu time      0.0448: real time      0.0448
    --------------------------------------------
      LOOP:  cpu time    313.7688: real time    313.9780

 eigenvalue-minimisations  :  2864
 total energy-change (2. order) :-0.1277148E-03  (-0.2305385E-04)
 number of electron     254.9999999 magnetization 
 augmentation part      -14.2043813 magnetization 

 Broyden mixing:
  rms(total) = 0.13071E-03    rms(broyden)= 0.18947E-02
  rms(prec ) = 0.19622E-03
  weight for this iteration     100.00
  WARNING: grid for Broyden might be to small

 eigenvalues of (default mixing * dielectric matrix)
  average eigenvalue GAMMA=   1.5634
  7.1688  2.7865  2.7865  1.8613  1.1764  1.0025  0.8448  0.7473  0.5063  0.6303
  0.6303  0.6024  0.5723  0.5723

 Free energy of the ion-electron system (eV)
  ---------------------------------------------------
  alpha Z        PSCENC =        25.44038804
  Ewald energy   TEWEN  =     28577.49563866
  -Hartree energ DENC   =    -34100.45954887
  -exchange      EXHF   =         0.00000000
  -V(xc)+E(xc)   XCENC  =      -292.71631566
  PAW double counting   =     33700.51832248   -33081.94222600
  entropy T*S    EENTRO =        -0.16178443
  eigenvalues    EBANDS =     -1890.74406019
  atomic energy  EATOM  =      6477.56235275
  Solvation  Ediel_sol  =         0.00000000
  ---------------------------------------------------
  free energy    TOTEN  =      -585.00723321 eV

  energy without entropy =     -584.84544879  energy(sigma->0) =     -584.92634100


--------------------------------------------------------------------------------------------------------




--------------------------------------- Iteration      1(  16)  ---------------------------------------


    POTLOK:  cpu time      1.9055: real time      1.9072
    SETDIJ:  cpu time      1.3644: real time      1.3651
    EDDIAG:  cpu time     50.7564: real time     50.7839
     EDDAV:  cpu time    230.5423: real time    230.6813
       DOS:  cpu time      0.0031: real time      0.0031
    CHARGE:  cpu time     28.3625: real time     28.3884
    MIXING:  cpu time      0.0457: real time      0.0457
    --------------------------------------------
      LOOP:  cpu time    312.9799: real time    313.1748

 eigenvalue-minimisations  :  2848
 total energy-change (2. order) :-0.6822511E-04  (-0.1079587E-04)
 number of electron     254.9999999 magnetization 
 augmentation part      -14.2044035 magnetization 

 Broyden mixing:
  rms(total) = 0.83504E-04    rms(broyden)= 0.10675E-02
  rms(prec ) = 0.12230E-03
  weight for this iteration     100.00
  WARNING: grid for Broyden might be to small

 eigenvalues of (default mixing * dielectric matrix)
  average eigenvalue GAMMA=   1.6518
  8.5630  2.9412  2.7571  2.1052  1.3935  0.9872  0.9526  0.8862  0.7007  0.5059
  0.6489  0.6240  0.5749  0.5749  0.5613

 Free energy of the ion-electron system (eV)
  ---------------------------------------------------
  alpha Z        PSCENC =        25.44038804
  Ewald energy   TEWEN  =     28577.49563866
  -Hartree energ DENC   =    -34100.36181111
  -exchange      EXHF   =         0.00000000
  -V(xc)+E(xc)   XCENC  =      -292.71676676
  PAW double counting   =     33700.60478680   -33082.02874417
  entropy T*S    EENTRO =        -0.16178510
  eigenvalues    EBANDS =     -1890.84136054
  atomic energy  EATOM  =      6477.56235275
  Solvation  Ediel_sol  =         0.00000000
  ---------------------------------------------------
  free energy    TOTEN  =      -585.00730144 eV

  energy without entropy =     -584.84551634  energy(sigma->0) =     -584.92640889


--------------------------------------------------------------------------------------------------------




--------------------------------------- Iteration      1(  17)  ---------------------------------------


    POTLOK:  cpu time      1.8803: real time      1.9071
    SETDIJ:  cpu time      1.3636: real time      1.3645
    EDDIAG:  cpu time     50.8200: real time     50.8465
     EDDAV:  cpu time    232.2811: real time    232.4144
       DOS:  cpu time      0.0038: real time      0.0038
    CHARGE:  cpu time     28.3561: real time     28.3801
    MIXING:  cpu time      0.0467: real time      0.0467
    --------------------------------------------
      LOOP:  cpu time    314.7516: real time    314.9632

 eigenvalue-minimisations  :  2888
 total energy-change (2. order) :-0.3017710E-04  (-0.3806442E-05)
 number of electron     254.9999999 magnetization 
 augmentation part      -14.2044155 magnetization 

 Broyden mixing:
  rms(total) = 0.55782E-04    rms(broyden)= 0.10711E-02
  rms(prec ) = 0.81531E-04
  weight for this iteration     100.00
  WARNING: grid for Broyden might be to small

 eigenvalues of (default mixing * dielectric matrix)
  average eigenvalue GAMMA=   1.6681
  9.1732  3.1011  2.7097  2.2910  1.4837  1.1715  0.9437  0.8337  0.8337  0.6604
  0.6604  0.6275  0.5069  0.5734  0.5734  0.5461

 Free energy of the ion-electron system (eV)
  ---------------------------------------------------
  alpha Z        PSCENC =        25.44038804
  Ewald energy   TEWEN  =     28577.49563866
  -Hartree energ DENC   =    -34100.31392892
  -exchange      EXHF   =         0.00000000
  -V(xc)+E(xc)   XCENC  =      -292.71728399
  PAW double counting   =     33700.48358311   -33081.90752448
  entropy T*S    EENTRO =        -0.16178509
  eigenvalues    EBANDS =     -1890.88877170
  atomic energy  EATOM  =      6477.56235275
  Solvation  Ediel_sol  =         0.00000000
  ---------------------------------------------------
  free energy    TOTEN  =      -585.00733162 eV

  energy without entropy =     -584.84554653  energy(sigma->0) =     -584.92643907


--------------------------------------------------------------------------------------------------------




--------------------------------------- Iteration      1(  18)  ---------------------------------------


    POTLOK:  cpu time      1.8803: real time      1.9088
    SETDIJ:  cpu time      1.3637: real time      1.3645
    EDDIAG:  cpu time     50.7850: real time     50.8131
     EDDAV:  cpu time    224.6690: real time    224.7969
       DOS:  cpu time      0.0046: real time      0.0046
[...]
   -.979E+01 -.164E+01 0.482E+02   0.108E+02 0.229E+01 -.496E+02   -.104E+01 -.764E+00 0.225E+01   0.485E-05 0.350E-05 0.186E-05
   -.544E+01 -.563E+01 -.465E+02   0.658E+01 0.596E+01 0.468E+02   -.929E+00 -.310E+00 0.103E+00   -.173E-05 0.515E-06 0.328E-05
   0.478E+01 -.764E+01 -.389E+02   -.482E+01 0.933E+01 0.377E+02   0.266E-01 -.186E+01 0.123E+01   -.144E-06 -.672E-05 0.463E-05
   0.135E+02 -.324E+02 0.257E+03   -.120E+02 0.344E+02 -.258E+03   -.218E+01 -.223E+01 -.590E+00   -.446E-05 0.153E-04 0.186E-04
   -.895E+01 -.158E+02 0.135E+02   0.725E+01 0.160E+02 -.104E+02   0.113E+01 0.621E+00 -.296E+01   0.640E-05 0.180E-04 0.126E-04
   0.191E+02 -.193E+01 0.173E+03   -.183E+02 0.117E+01 -.172E+03   -.103E+01 0.870E+00 -.173E+01   -.603E-05 0.504E-05 0.538E-05
   -.194E+02 0.859E+01 -.412E+02   0.192E+02 -.814E+01 0.417E+02   0.831E+00 -.915E+00 -.190E+01   -.727E-05 0.161E-04 0.215E-04
   -.125E+01 -.184E+02 -.237E+03   0.179E+01 0.173E+02 0.239E+03   0.483E+00 0.159E+01 -.153E+01   0.679E-05 -.932E-05 -.148E-04
   -.673E+01 0.616E+00 0.704E+02   0.673E+01 -.166E+01 -.692E+02   0.195E+00 0.106E+01 -.196E+01   -.234E-04 -.347E-04 0.266E-05
   -.115E+02 0.120E+02 0.260E+03   0.114E+02 -.108E+02 -.264E+03   -.740E-01 -.214E+01 0.274E+01   -.198E-05 -.734E-05 0.210E-04
   -.135E+02 -.129E+02 0.474E+02   0.117E+02 0.114E+02 -.494E+02   0.220E+01 0.922E+00 0.268E+01   -.567E-05 -.284E-04 -.147E-05
   -.347E+02 -.766E+01 -.122E+03   0.321E+02 0.945E+01 0.121E+03   0.235E+01 -.158E+01 0.130E+01   0.129E-04 0.567E-05 0.206E-04
   0.852E+01 0.977E+01 -.130E+03   -.408E+01 -.712E+01 0.129E+03   -.552E+01 -.240E+01 0.721E+00   0.184E-04 -.834E-05 0.975E-05
   0.946E+01 0.104E+02 0.528E+01   -.857E+01 -.972E+01 -.477E+01   -.146E+01 -.111E+01 -.171E+00   -.480E-05 0.132E-04 0.252E-06
   0.191E+02 -.134E+02 -.156E+03   -.222E+02 0.120E+02 0.154E+03   0.233E+01 0.138E+01 0.198E+01   0.597E-05 -.613E-05 0.110E-04
   0.275E+01 0.209E+02 -.236E+03   -.378E+01 -.208E+02 0.235E+03   0.224E+01 -.573E+00 0.121E+01   0.161E-04 -.176E-04 0.988E-06
   0.123E+02 -.713E+01 0.255E+03   -.131E+02 0.837E+01 -.259E+03   0.909E+00 -.115E+01 0.293E+01   0.541E-05 -.907E-05 0.225E-04
   -.185E+02 0.309E+01 0.148E+03   0.182E+02 -.336E+01 -.147E+03   0.852E+00 0.928E+00 -.195E+00   -.510E-05 0.120E-04 0.747E-05
   -.216E+02 0.101E+02 -.133E+03   0.201E+02 -.100E+02 0.133E+03   0.190E+01 0.445E-01 -.851E+00   -.470E-05 0.118E-04 0.196E-04
   0.128E+02 -.101E+02 0.166E+03   -.126E+02 0.107E+02 -.165E+03   -.935E+00 -.204E+00 -.859E+00   -.283E-05 0.229E-04 0.272E-05
   -.742E+01 -.132E+02 0.270E+03   0.777E+01 0.122E+02 -.266E+03   -.114E+01 -.339E+00 -.309E+01   0.265E-05 0.243E-04 -.493E-05
   -.343E+02 -.381E+02 0.248E+03   0.347E+02 0.391E+02 -.249E+03   -.256E+00 -.141E+00 0.142E+01   0.131E-04 -.791E-05 -.352E-06
   0.301E+02 -.148E+02 0.109E+03   -.280E+02 0.126E+02 -.108E+03   -.298E+01 0.187E+01 -.125E+01   -.207E-04 -.154E-04 0.449E-05
   0.189E+01 0.183E+02 0.208E+03   -.155E+01 -.187E+02 -.205E+03   -.659E+00 0.895E+00 -.275E+01   -.169E-04 -.436E-05 0.130E-04
   0.153E+02 -.415E+01 0.969E+02   -.154E+02 0.468E+01 -.959E+02   0.104E+01 0.118E-01 -.340E+00   0.123E-04 -.681E-05 -.227E-05
   0.323E+01 -.263E+01 -.444E+02   -.432E+01 0.404E+01 0.456E+02   0.180E+01 -.172E+01 -.200E+01   0.232E-05 0.104E-04 0.950E-05
   -.455E+01 -.599E+01 -.101E+03   0.310E+01 0.613E+01 0.103E+03   0.214E+01 0.364E+00 -.283E+01   -.700E-05 -.924E-06 -.118E-04
   -.698E+02 0.925E+01 0.167E+03   0.665E+02 -.916E+01 -.166E+03   0.390E+01 0.287E+00 -.763E+00   0.168E-05 0.169E-04 0.497E-05
   -.211E+02 0.510E+01 -.196E+03   0.209E+02 -.479E+01 0.193E+03   0.981E+00 -.408E+00 0.347E+01   -.438E-05 0.509E-05 -.842E-05
   0.202E+02 -.126E+01 -.248E+03   -.184E+02 0.147E+01 0.253E+03   -.244E+01 -.205E+00 -.453E+01   -.459E-05 -.149E-04 -.200E-05
   0.244E+02 0.140E+02 0.529E+02   -.233E+02 -.137E+02 -.525E+02   -.199E+01 0.454E+00 -.186E+00   0.249E-05 0.969E-05 0.833E-05
   -.411E+01 0.297E+02 -.183E+03   0.378E+01 -.288E+02 0.180E+03   0.877E+00 -.102E+01 0.321E+01   -.328E-04 -.290E-04 0.151E-05
   -.582E+01 0.184E+02 -.143E+03   0.566E+01 -.184E+02 0.144E+03   0.651E+00 -.536E+00 -.878E+00   0.162E-04 0.443E-05 0.116E-04
   0.127E+02 -.219E+01 -.194E+03   -.939E+01 0.168E+01 0.192E+03   -.525E+01 0.858E+00 0.215E+01   0.594E-06 0.130E-04 -.559E-06
   0.411E+02 0.289E+02 0.199E+03   -.407E+02 -.278E+02 -.200E+03   -.362E+00 -.132E+01 0.194E+01   -.645E-06 -.126E-04 0.114E-04
   0.990E+00 -.176E+02 -.227E+03   0.251E+00 0.179E+02 0.226E+03   -.117E+01 -.668E+00 0.244E+01   0.182E-05 0.901E-05 0.110E-04
   0.191E+02 -.718E+00 -.473E+02   -.181E+02 0.997E+00 0.499E+02   -.213E+01 0.207E+00 -.316E+01   -.360E-05 -.783E-05 -.614E-05
   0.131E+02 0.631E+01 0.255E+03   -.122E+02 -.565E+01 -.254E+03   -.968E+00 -.133E+01 -.615E+00   0.610E-05 -.159E-04 -.183E-05
   0.156E+02 0.129E+02 -.211E+03   -.157E+02 -.119E+02 0.209E+03   0.895E-02 -.542E+00 0.192E+01   -.110E-05 0.257E-05 0.130E-04
   -.108E+02 0.398E+01 0.511E+02   0.951E+01 -.283E+01 -.495E+02   0.799E+00 -.805E+00 -.158E+01   -.415E-05 0.167E-04 0.998E-05
   -.205E+02 0.145E+01 -.230E+03   0.187E+02 -.229E+01 0.227E+03   0.232E+01 0.785E+00 0.338E+01   0.183E-04 -.906E-05 0.136E-04
   0.120E+02 -.278E+02 -.260E+03   -.130E+02 0.297E+02 0.262E+03   0.802E+00 -.174E+01 -.132E+01   0.940E-05 -.634E-06 -.476E-05
   -.278E+02 -.695E+01 0.802E+02   0.277E+02 0.615E+01 -.802E+02   0.166E+01 0.384E+00 -.601E+00   0.188E-04 -.216E-04 0.154E-04
   -.116E+02 0.129E+02 -.161E+02   0.119E+02 -.110E+02 0.138E+02   -.914E-01 -.200E+01 0.177E+01   0.930E-05 0.894E-05 0.137E-04
   0.114E+01 -.170E+02 -.146E+03   -.179E+01 0.155E+02 0.144E+03   -.142E+00 0.179E+01 0.162E+01   0.469E-05 0.281E-04 0.155E-04
   -.902E+01 0.805E+01 -.221E+03   0.752E+01 -.545E+01 0.219E+03   0.793E+00 -.282E+01 0.237E+01   -.196E-05 0.253E-04 0.147E-04
   0.127E+02 0.602E+01 0.679E+02   -.137E+02 -.541E+01 -.675E+02   0.134E+01 -.803E+00 -.192E+00   -.238E-04 0.220E-05 0.634E-05
   0.111E+02 -.164E+00 0.272E+03   -.112E+02 -.224E+01 -.271E+03   0.956E+00 0.289E+01 -.815E+00   -.457E-05 0.188E-04 0.122E-05
   -.926E+01 -.515E+01 0.121E+03   0.952E+01 0.361E+01 -.121E+03   -.104E+01 0.238E+01 -.539E+00   0.151E-05 0.199E-04 0.977E-05
   0.775E+01 0.131E+02 0.184E+03   -.680E+01 -.136E+02 -.184E+03   -.139E+01 0.807E+00 0.111E+00   -.214E-04 -.162E-04 0.408E-05
   0.235E+02 0.318E+00 -.500E+02   -.223E+02 -.180E-01 0.508E+02   -.188E+01 -.879E+00 -.104E+01   0.490E-05 -.249E-04 0.453E-05
   0.183E+02 0.142E+02 -.188E+03   -.182E+02 -.137E+02 0.187E+03   0.181E+00 -.115E+01 0.744E+00   -.184E-04 0.144E-04 0.116E-04
   -.290E+02 -.226E+02 0.540E+02   0.264E+02 0.218E+02 -.547E+02   0.286E+01 0.856E+00 0.620E+00   0.228E-04 -.110E-04 0.128E-04
   0.455E+01 0.254E+02 -.249E+03   -.397E+01 -.247E+02 0.250E+03   -.161E+01 -.533E-01 -.163E+00   -.114E-04 -.152E-04 -.126E-04
   -.134E+02 0.131E+02 0.225E+03   0.139E+02 -.134E+02 -.227E+03   0.781E-01 0.162E+00 0.228E+01   -.258E-06 0.127E-04 0.145E-04
   0.120E+02 -.607E+01 -.125E+03   -.124E+02 0.575E+01 0.123E+03   -.227E+00 0.875E+00 0.137E+01   -.250E-04 -.112E-04 0.126E-04
   0.784E+01 -.191E+02 0.268E+03   -.803E+01 0.174E+02 -.269E+03   0.743E+00 0.194E+01 0.116E+01   -.163E-04 -.192E-04 0.185E-04
   0.592E+01 -.848E+01 -.128E+03   -.504E+01 0.902E+01 0.127E+03   -.782E+00 -.111E+01 0.123E+01   0.115E-05 0.187E-04 0.111E-04
   -.101E+02 -.144E+02 -.254E+03   0.104E+02 0.148E+02 0.261E+03   0.350E+00 0.148E+00 -.598E+01   -.731E-05 0.943E-05 -.646E-05
   0.313E+02 0.212E+02 0.232E+03   -.314E+02 -.194E+02 -.231E+03   0.910E+00 -.149E+01 -.118E+01   -.387E-05 0.693E-05 0.602E-05
   0.293E+02 0.362E+02 0.355E+02   -.284E+02 -.340E+02 -.352E+02   -.113E+01 -.403E+01 -.125E+01   -.386E-05 -.599E-05 0.481E-05
   -.110E+02 0.311E+02 0.110E+03   0.959E+01 -.281E+02 -.111E+03   0.149E+01 -.387E+01 -.546E-01   0.424E-05 -.475E-05 0.399E-05
   0.534E+00 -.199E+02 0.196E+02   -.116E+01 0.198E+02 -.227E+02   0.137E+01 0.988E-01 0.313E+01   -.188E-05 0.223E-04 0.458E-05
   -.224E+02 0.879E+01 -.248E+03   0.221E+02 -.899E+01 0.253E+03   0.205E+00 -.268E+00 -.440E+01   0.439E-05 0.861E-05 -.230E-05
   0.116E+02 -.216E+01 0.155E+03   -.986E+01 0.669E+00 -.155E+03   -.202E+01 0.198E+01 -.835E+00   0.101E-04 -.306E-04 0.653E-05
 -----------------------------------------------------------------------------------------------
   -.690E+00 0.180E+02 0.195E+01   0.160E-13 0.132E-13 -.455E-12   0.701E+00 -.180E+02 -.195E+01   -.458E-04 0.161E-04 0.421E-03


 POSITION                                       TOTAL-FORCE (eV/Angst)
 -----------------------------------------------------------------------------------
      0.04949     13.02270     11.00299        -0.977045      0.102147      0.824780
     11.28470      2.47444     13.09351         0.191405      0.144743      0.540986
     14.44010      1.21525     15.18536         0.580531      0.151035     -0.296899
      6.91404      9.94706     14.90597         0.026551      0.189930      1.328257
      0.53486     10.45360     11.60311         0.000120     -0.116564      0.883701
     12.24910      8.96754     14.50990         0.208548      0.025136      0.360947
      2.75548      2.55230     14.59597        -0.017197     -0.170798      0.011140
      3.49563      7.19954     10.33832        -0.807088     -0.551158     -0.846619
      5.79349      5.92004     12.73506        -0.552160      0.807951      0.011194
      5.39425      4.17033     11.21358        -0.270849      0.148351     -0.854392
     11.11260      5.76858     13.29732         0.760639     -0.486959     -1.481155
      0.74195     12.78190     15.06136         0.991775      0.450879     -0.091365
      6.30565     12.65520     12.16902         0.221803      0.071034     -0.772584
     11.89460     10.72470     10.10525        -0.142630     -1.016358     -0.465012
      8.07853     11.17990     12.19883         0.479192     -0.591920      0.901083
     12.46500      2.10749     14.04470        -0.103410      0.079807     -0.271318
     13.53350     11.98160     13.91814        -1.333904      0.171230      0.215705
      4.73083      9.66134     12.74504        -0.633844     -0.489587      0.360593
     10.79600      9.48883     13.94838        -0.445372     -0.000583      0.091247
     11.20920     12.73970     14.95370         1.368218     -0.378782     -0.131021
      8.15296      9.93066     10.23620         0.282696     -0.027232     -0.253674
     12.69880      8.91182     11.45424         0.633572      0.688791      0.256642
     13.21100      5.80408     14.22523         0.475399      0.140900     -0.355096
      8.90182      7.87353     11.22100        -0.689546      0.384460     -0.066502
      9.18754      5.89188     10.05740        -0.841184     -1.428968      0.592843
     12.47110      1.30944     10.16712         0.021355      0.743402     -0.044969
      3.50413      0.86429     11.87880        -1.052188     -0.222234     -0.406377
      4.83396     11.18980     11.04291        -0.418708      0.575875     -0.361656
      1.25851      1.91694     11.98578         1.097228      0.564949      0.790360
      7.53312      7.39565     13.18341         0.794032     -0.392952     -0.885346
      6.84977      9.55986     13.53764         0.791821      0.534612     -0.995499
     10.63610      4.52726     11.26595         0.482050      0.487226     -0.026356
      3.24954     10.48520     14.36777         0.677160     -0.169094      0.055762
      2.73701      1.21069     15.39901        -0.831023      0.058986      0.496561
      0.33991      5.96773     12.54457        -0.958330      0.793151      0.349268
      5.66226     13.29550     14.24578         0.634932     -0.003740      0.122641
      9.08843      0.97166     14.14357         0.484962     -0.561860     -0.300583
      1.60905      8.96943     14.52066        -2.185985      0.386668     -0.129881
      2.54981     11.97350     10.82636         0.269942     -0.155916      0.878597
      5.21865      4.93211     14.70680        -0.078439     -0.539684      0.618717
      2.43864     12.33340     13.41589        -1.139295      0.495120     -0.664747
     10.55500      0.05950     10.18118        -0.058379     -0.705592      0.726641
      2.87631      4.74889     14.56847         0.038698      0.521582      0.007284
     10.87660      7.85379     12.36760        -0.431990      0.326899     -0.032951
     11.11070      0.43960     14.98229         0.672113     -0.073720     -0.265039
      8.31497      6.82421     15.31066        -0.003894     -0.095649      0.313497
     13.40400     13.34450     12.01877         1.627047     -0.395825     -0.676111
     14.41120      9.96612     12.94182         0.210786     -0.100983     -0.452531
      8.46751      3.16741     14.01614        -0.775859      0.379138     -0.311891
      9.64720      5.01425     14.78847        -0.721415     -0.297860      0.599069
      5.46719      2.05072     12.15682         0.351580     -0.229679      0.225956
      7.40441      3.99377     10.03543         0.995823      0.735545      0.365374
      8.91137      3.08489     11.66070        -0.821531      0.973781     -0.364755
      6.83255      0.22619     11.24163        -0.472143      0.360628      0.470604
     10.26510     11.69740     13.15870        -0.752894     -0.667682     -0.295808
      6.13596      2.76648     14.37438         0.380101     -0.566594     -0.107192
     13.57710      1.10266     12.22540         0.391074      0.078197     -0.090513
      7.43118     14.41680     15.16674        -1.155109      0.786468      0.586076
     14.23840      7.29565     10.75046         0.527749     -0.070827     -0.154685
      3.65514     14.20450     13.87739        -0.573887      0.565602     -0.077552
      3.41040     13.89860     10.00000         0.559635      0.292237      0.527328
      2.07988      6.89501     13.84126         0.049732     -0.616497      0.006162
     13.14930      7.81561     15.48480         0.686734      0.520188      0.076533
      3.12027      4.86658     10.69310         1.013221      0.328030      0.335254
      1.83896      4.27969     12.56468        -0.257292     -2.045361     -1.070263
      9.02628      0.85524     11.74681         0.097920     -1.011280     -0.607989
      3.90727      7.44976     12.52606         0.842322     -0.004146      0.151451
     13.13640      3.84193     15.52279        -0.147421     -0.468224      0.186874
     11.35820     12.60200     11.24472        -0.268453      0.589633     -0.060794
 -----------------------------------------------------------------------------------
    total drift:                                0.011018     -0.001984      0.004173


--------------------------------------------------------------------------------------------------------



  FREE ENERGIE OF THE ION-ELECTRON SYSTEM (eV)
  ---------------------------------------------------
  free  energy   TOTEN  =      -585.00733945 eV

  energy  without entropy=     -584.84555290  energy(sigma->0) =     -584.92644618



--------------------------------------------------------------------------------------------------------


    POTLOK:  cpu time      3.2380: real time      3.2400


--------------------------------------------------------------------------------------------------------


     LOOP+:  cpu time   7240.0025: real time   7245.1942
    4ORBIT:  cpu time      0.0000: real time      0.0000



 total charge

# of ion       s       p       d       tot
------------------------------------------
    1        0.524   0.012   0.000   0.536
    2        0.546   0.014   0.000   0.561
    3        0.393   0.002   0.000   0.395
    4        0.596   0.019   0.000   0.614
    5        0.527   0.014   0.000   0.541
    6        0.551   0.017   0.000   0.569
    7        0.543   0.016   0.000   0.559
    8        0.874   0.738   0.000   1.612
    9        0.775   0.912   0.000   1.686
   10        0.763   0.907   0.000   1.670
   11        0.765   0.956   0.000   1.721
   12        0.876   0.728   0.000   1.604
   13        0.762   0.935   0.000   1.697
   14        0.853   0.756   0.000   1.609
   15        0.758   0.930   0.000   1.688
   16        0.749   0.905   0.000   1.654
   17        0.767   0.908   0.000   1.675
   18        0.767   0.960   0.000   1.727
   19        0.825   0.805   0.000   1.629
   20        0.801   0.839   0.000   1.640
   21        0.863   0.726   0.000   1.589
   22        0.769   0.896   0.000   1.666
   23        0.760   0.959   0.000   1.719
   24        0.764   0.931   0.000   1.695
   25        0.809   0.808   0.000   1.618
   26        0.853   0.757   0.000   1.610
   27        0.765   0.894   0.000   1.659
   28        0.797   0.830   0.000   1.627
   29        0.802   0.777   0.000   1.580
   30        0.760   0.936   0.000   1.696
   31        0.755   1.004   0.000   1.760
   32        0.795   0.854   0.000   1.649
   33        0.805   0.891   0.000   1.696
   34        0.874   0.706   0.000   1.581
   35        0.759   0.952   0.000   1.711
   36        0.801   0.899   0.000   1.700
   37        0.774   0.963   0.000   1.737
   38        0.783   0.880   0.000   1.663
   39        0.830   0.789   0.000   1.619
   40        0.804   0.856   0.000   1.659
   41        0.778   0.916   0.000   1.694
   42        0.805   0.860   0.000   1.665
   43        0.815   0.820   0.000   1.635
   44        0.769   0.979   0.000   1.748
   45        0.786   0.911   0.000   1.697
   46        0.870   0.732   0.000   1.602
   47        0.756   0.930   0.000   1.686
   48        0.766   0.830   0.000   1.596
   49        0.768   0.924   0.000   1.692
   50        0.788   0.907   0.000   1.696
   51        0.760   0.911   0.000   1.671
   52        0.819   0.782   0.000   1.601
   53        0.764   0.943   0.000   1.707
   54        0.804   0.818   0.000   1.621
   55        0.776   0.872   0.000   1.649
   56        0.797   0.816   0.000   1.613
   57        0.768   0.917   0.000   1.685
   58        0.835   0.797   0.000   1.632
   59        0.855   0.743   0.000   1.598
   60        0.767   0.974   0.000   1.741
   61        0.860   0.744   0.000   1.604
   62        0.769   0.942   0.000   1.711
   63        0.903   0.647   0.000   1.550
   64        0.810   0.818   0.000   1.628
   65        0.768   0.914   0.000   1.682
   66        0.774   0.939   0.000   1.713
   67        0.775   0.931   0.000   1.706
   68        0.875   0.707   0.000   1.581
   69        0.769   0.931   0.000   1.700
--------------------------------------------------
tot         53.088  53.637   0.000 106.724


 total amount of memory used by VASP MPI-rank0   357419. kBytes
=======================================================================

   base                                    :      30000. kBytes
   nonl-proj                               :      67908. kBytes
   fftplans                                :      98005. kBytes
   grid                                    :      75605. kBytes
   one-center                              :         15. kBytes
   wavefun                                 :      85886. kBytes

  
  
 General timing and accounting informations for this job:
 ========================================================
  
                  Total CPU time used (sec):     7381.501
                            User time (sec):     6509.354
                          System time (sec):      872.147
                         Elapsed time (sec):     7386.749
  
                   Maximum memory used (kb):      613568.
                   Average memory used (kb):          N/A
  
                          Minor page faults:     14017116
                          Major page faults:         1155
                 Voluntary context switches:         3471
