ITEM: TIMESTEP
119772
ITEM: NUMBER OF ATOMS
15000
ITEM: BOX BOUNDS pp pp pp
-1.9119791546341562e+00 5.9833162760811163e+01
-1.9119791546341562e+00 5.9833162760811163e+01
-1.9119791546341562e+00 6.0453680572938097e+01
ITEM: ATOMS id type xs ys zs
1 2 0.375349 0.383124 0.2735
2 2 0.172719 0.0344847 0.275045
3 2 0.163779 0.0500511 0.221682
4 2 0.521548 0.14339 0.212514
5 2 0.0373664 0.480654 0.0097929
6 2 0.666023 0.197604 0.12486
7 2 0.303505 0.431759 0.648577
8 2 0.290188 0.187211 0.450681
9 2 0.442872 0.198462 0.0464636
10 2 0.821568 0.0803447 0.178671
11 2 0.277569 0.853497 0.775383
12 2 0.334699 0.842262 0.256156
13 2 0.470402 0.0660543 0.576216
14 2 0.251063 0.314183 0.076675
15 2 0.254185 0.406537 0.421213
16 2 0.293863 0.176527 0.109311
17 2 0.714875 0.186572 0.602929
18 2 0.125759 0.118502 0.173745
19 2 0.300623 0.992728 0.486196
20 2 0.0930606 0.234 0.870999
21 2 0.425618 0.946285 0.557572
22 2 0.334965 0.107656 0.0480199
23 2 0.331195 0.227725 0.818166
24 2 0.192819 0.675053 0.358711
25 2 0.672512 0.926766 0.130805
26 2 0.481421 0.652015 0.125623
27 2 0.0616148 0.843817 0.394885
28 2 0.195951 0.545007 0.360624
29 2 0.2016 0.578979 0.738924
30 2 0.228364 0.905018 0.429234
31 2 0.723321 0.897088 0.143235
32 2 0.366306 0.27543 0.97525
33 2 0.372285 0.397484 0.0697594
34 2 0.392438 0.309416 0.253803
35 2 0.0705283 0.409934 0.0568076
36 2 0.332032 0.428926 0.945911
37 2 0.246119 0.986401 0.255919
38 2 0.580582 0.564682 0.346831
39 2 0.282616 0.802484 0.813654
40 2 0.305878 0.310126 0.459989
41 2 0.183664 0.229392 0.592521
42 2 0.0275021 0.0312987 0.593505
43 2 0.247466 0.154092 0.187026
44 2 0.576852 0.966734 0.490053
45 2 0.301205 0.251512 0.890927
46 2 0.999924 0.784028 0.896292
47 2 0.384266 0.416959 0.172584
48 2 0.428351 0.20912 0.526253
49 2 0.900594 0.915934 0.130975
50 2 0.865268 0.6369 0.116154
51 2 0.303351 0.320821 0.372231
52 2 0.367675 0.117707 0.989939
53 2 0.153374 0.276216 0.247432
54 2 0.255083 0.413724 0.60723
55 2 0.0231373 0.352999 0.642991
56 2 0.51065 0.0898062 0.364011
57 2 0.390055 0.230244 0.0158927
58 2 0.18445 0.344546 0.391315
59 2 0.251108 0.135231 0.0272825
60 2 0.316444 0.347584 0.296879
61 2 0.532629 0.230498 0.129635
62 2 0.85158 0.0722288 0.789208
63 2 0.0690884 0.0248494 0.366173
64 2 0.223307 0.340103 0.31637
65 2 0.223966 0.254224 0.96347
66 2 0.0381663 0.580904 0.551213
67 2 0.288957 0.220678 0.555716
68 2 0.0933449 0.775922 0.0971098
69 2 0.00931797 0.0980017 0.0175339
70 2 0.293972 0.378042 0.293106
71 2 0.0323238 0.444439 0.453988
72 2 0.168506 0.817925 0.277595
73 2 0.107031 0.115167 0.0134931
74 2 0.164419 0.898775 0.44933
75 2 0.31187 0.978311 0.983732
76 2 0.0384318 0.790786 0.63873
77 2 0.147638 0.784911 0.541729
78 2 0.304547 0.111896 0.49282
79 2 0.397548 0.741528 0.240326
80 2 0.0124474 0.152109 0.40243
81 2 0.17433 0.363257 0.448817
82 2 0.132002 0.456558 0.430761
83 2 0.0111069 0.957381 0.145889
84 2 0.552721 0.340887 0.283711
85 2 0.830039 0.86821 0.941809
86 2 0.346786 0.642378 0.686516
87 2 0.35744 0.146496 0.96612
88 2 0.981497 0.175786 0.560281
89 2 0.165612 0.0533734 0.887642
90 2 0.558937 0.0828997 0.433173
91 2 0.794496 0.378969 0.038617
92 2 0.2288 0.347279 0.42665
93 2 0.34363 0.246259 0.58053
94 2 0.383448 0.323993 0.03163
95 2 0.185035 0.239563 0.304358
96 2 0.606051 0.0763966 0.321243
97 2 0.0812122 0.115 0.117401
98 2 0.291464 0.275837 0.468685
99 2 0.220555 0.266979 0.651564
100 2 0.303834 0.315372 0.312507
101 2 0.110212 0.95024 0.563056
102 2 0.0139964 0.665962 0.32602
103 2 0.388201 0.988098 0.0871733
104 2 0.1417 0.118584 0.302709
105 2 0.222858 0.467743 0.26229
106 2 0.37977 0.0234206 0.319019
107 2 0.25855 0.271592 0.285234
108 2 0.302991 0.187858 0.487094
109 2 0.128845 0.280687 0.156422
110 2 0.103914 0.3757 0.114057
111 2 0.713293 0.410504 0.362792
112 2 0.0892527 0.34778 0.337891
113 2 0.0237319 0.184367 0.193309
114 2 0.00919112 0.267553 0.45911
115 2 0.542701 0.911907 0.929917
116 2 0.558364 0.656934 0.350184
117 2 0.224961 0.140851 0.32033
118 2 0.0496146 0.217156 0.257186
119 2 0.264255 0.23851 0.2259
120 2 0.404695 0.686438 0.420795
121 2 0.978585 0.527613 0.607389
122 2 0.0790432 0.278406 0.20165
123 2 0.986133 0.698223 0.574575
124 2 0.180543 0.138579 0.49248
125 2 0.507815 0.6888 0.342856
126 2 0.893809 0.422713 0.352824
127 2 0.124892 0.758997 0.938069
128 2 0.92349 0.229044 0.281262
129 2 0.422813 0.179997 0.903895
130 2 0.273655 0.078965 0.327928
131 2 0.154554 0.14389 0.849921
132 2 0.334036 0.0106979 0.0415361
133 2 0.732994 0.310415 0.377017
134 2 0.788495 0.685531 0.602669
135 2 0.306337 0.403987 0.267182
136 2 0.502393 0.0589444 0.902498
137 2 0.365432 0.181493 0.248972
138 2 0.290488 0.689671 0.410927
139 2 0.0283206 0.900044 0.406804
140 2 0.136864 0.356072 0.927088
141 2 0.0695341 0.100141 0.336311
142 2 0.263695 0.296336 0.219605
143 2 0.335544 0.265215 0.303489
144 2 0.25902 0.276588 0.421432
145 2 0.387778 0.325153 0.579128
146 2 0.00575219 0.56321 0.677761
147 2 0.992586 0.0156677 0.663491
148 2 0.344806 0.0784337 0.247489
149 2 0.278939 0.376219 0.508143
150 2 0.0518462 0.348432 0.491054
151 2 0.00326623 0.29344 0.162683
152 2 0.392329 0.75705 0.583889
153 2 0.0898147 0.0416187 0.592096
154 2 0.131825 0.165114 0.389848
155 2 0.372112 0.184798 0.551741
156 2 0.214457 0.175107 0.177825
157 2 0.768985 0.139765 0.058322
158 2 0.499387 0.190586 0.332924
159 2 0.224583 0.0944272 0.455454
160 2 0.788004 0.341744 0.531468
161 2 0.876045 0.184033 0.265318
162 2 0.514015 0.159244 0.0398952
163 2 0.2874 0.220048 0.287299
164 2 0.610846 0.228609 0.189896
165 2 0.246237 0.477906 0.591647
166 2 0.363253 0.188777 0.083959
167 2 0.137287 0.158465 0.789087
168 2 0.974295 0.42256 0.653918
169 2 0.361529 0.411029 0.698146
170 2 0.201342 0.0687495 0.353949
171 2 0.0876402 0.174958 0.251229
172 2 0.239428 0.343246 0.463957
173 2 0.258078 0.425064 0.368037
174 2 0.479353 0.101685 0.127435
175 2 0.0476937 0.414757 0.196468
176 2 0.4037 0.293418 0.307697
177 2 0.440421 0.393778 0.976706
178 2 0.316634 0.135153 0.16718
179 2 0.0416719 0.419747 0.879781
180 2 0.170805 0.109545 0.370772
181 2 0.287047 0.356147 0.569399
182 2 0.215553 0.233188 0.993411
183 2 0.573541 0.508846 0.549394
184 2 0.949713 0.191677 0.208835
185 2 0.256543 0.407753 0.027383
186 2 0.168937 0.133813 0.964067
187 2 0.941825 0.049718 0.202852
188 2 0.0760653 0.407278 0.300115
189 2 0.196707 0.0821232 0.636768
190 2 0.165666 0.341481 0.144678
191 2 0.0436504 0.429113 0.347075
192 2 0.256721 0.11356 0.449858
193 2 0.965903 0.0734317 0.751179
194 2 0.288419 0.50574 0.256201
195 2 0.484814 0.215757 0.446857
196 2 0.474384 0.857205 0.4084
197 2 0.0616287 0.0864448 0.165821
198 2 0.920873 0.205068 0.451868
199 2 0.249405 0.574117 0.927104
200 2 0.385756 0.385678 0.43131
201 2 0.256091 0.135776 0.0656372
202 2 0.148101 0.234199 0.66518
203 2 0.109366 0.472442 0.332444
204 2 0.514706 0.0661197 0.117404
205 2 0.487703 0.179385 0.39136
206 2 0.0304288 0.26222 0.0965516
207 2 0.197169 0.080944 0.196289
208 2 0.68078 0.861847 0.105976
209 2 0.903672 0.573671 0.517956
210 2 0.123102 0.102843 0.209987
211 2 0.506955 0.975088 0.186668
212 2 0.949871 0.870903 0.368624
213 2 0.957721 0.00906518 0.368767
214 2 0.419627 0.949458 0.717938
215 2 0.288357 0.194686 0.169426
216 2 0.903937 0.715193 0.41648
217 2 0.0921298 0.204473 0.155085
218 2 0.104817 0.409489 0.325074
219 2 0.962181 0.0605115 0.58038
220 2 0.986412 0.418687 0.164446
221 2 0.329273 0.272921 0.132319
222 2 0.100829 0.253033 0.0355664
223 2 0.205405 0.635882 0.721478
224 2 0.190853 0.877355 0.831033
225 2 0.799976 0.496323 0.537379
226 2 0.611902 0.21138 0.687285
227 2 0.422178 0.986579 0.334665
228 2 0.234656 0.280331 0.0746869
229 2 0.333614 0.139292 0.443836
230 2 0.362043 0.255686 0.27804
231 2 0.240453 0.542496 0.313474
232 2 0.955406 0.786912 0.971346
233 2 0.0835871 0.974254 0.150484
234 2 0.271621 0.916266 0.393108
235 2 0.184089 0.979253 0.10583
236 2 0.218985 0.866113 0.206523
237 2 0.0376561 0.909737 0.322492
238 2 0.220035 0.163537 0.984768
239 2 0.987473 0.108621 0.128929
240 2 0.90625 0.162445 0.402906
241 2 0.385362 0.288363 0.411306
242 2 0.00656979 0.441292 0.928245
243 2 0.392685 0.937339 0.279103
244 2 0.12035 0.16572 0.213961
245 2 0.344297 0.751354 0.902449
246 2 0.800744 0.385689 0.689403
247 2 0.978487 0.243202 0.459609
248 2 0.290409 0.234286 0.17062
249 2 0.457206 0.756827 0.301431
250 2 0.280849 0.171975 0.370984
251 2 0.502014 0.604285 0.969621
252 2 0.157875 0.742482 0.847423
253 2 0.155112 0.588212 0.340513
254 2 0.115387 0.173788 0.156564
255 2 0.411226 0.220942 0.274484
256 2 0.551874 0.0514096 0.00771251
257 2 0.412095 0.368826 0.374352
258 2 0.473601 0.0809874 0.787736
259 2 0.381467 0.55876 0.266858
260 2 0.366089 0.12671 0.281203
261 2 0.0352702 0.509012 0.985443
262 2 0.271137 0.295321 0.993276
263 2 0.604158 0.0830586 0.0789535
264 2 0.111327 0.185436 0.851921
265 2 0.368917 0.088598 0.27416
266 2 0.14017 0.508257 0.300282
267 2 0.928037 0.522995 0.0777211
268 2 0.204328 0.286072 0.969656
269 2 0.236846 0.396382 0.553341
270 2 0.231015 0.162063 0.88621
271 2 0.0717544 0.263911 0.260716
272 2 0.935024 0.255558 0.256372
273 2 0.596209 0.355849 0.171799
274 2 0.268355 0.170253 0.259383
275 2 0.357176 0.144583 0.24823
276 2 0.624313 0.600528 0.316099
277 2 0.646178 0.884601 0.364467
278 2 0.552819 0.168476 0.0386621
279 2 0.205748 0.391646 0.981316
280 2 0.0467438 0.130876 0.294681
281 2 0.0597243 0.144963 0.0432499
282 2 0.26167 0.744523 0.162746
283 2 0.421269 0.0365697 0.153252
284 2 0.263643 0.381723 0.315259
285 2 0.38118 0.139094 0.155737
286 2 0.923063 0.895953 0.498785
287 2 0.291185 0.240857 0.103835
288 2 0.683971 0.0864787 0.18231
289 2 0.821385 0.368783 0.181329
290 2 0.124561 0.750964 0.433949
291 2 0.0604852 0.795104 0.570168
292 2 0.428234 0.127755 0.180163
293 2 0.0869486 0.924417 0.974208
294 2 0.306762 0.214899 0.63957
295 2 0.181876 0.387282 0.271136
296 2 0.0924548 0.347546 0.301036
297 2 0.148342 0.355125 0.392615
298 2 0.176892 0.778802 0.428156
299 2 0.878077 0.358376 0.402939
300 2 0.153651 0.429713 0.574913
301 2 0.24372 0.407526 0.106012
302 2 0.150044 0.00937929 0.00382962
303 2 0.253931 0.234397 0.105781
304 2 0.1031 0.80095 0.331654
305 2 0.244684 0.208163 0.131159
306 2 0.402157 0.332551 0.365859
307 2 0.820117 0.605102 0.659275
308 2 0.478668 0.795132 0.598417
309 2 0.904324 0.355519 0.106139
310 2 0.289772 0.1163 0.926614
311 2 0.230402 0.449892 0.905976
312 2 0.956583 0.0601488 0.402922
313 2 0.131553 0.77361 0.144922
314 2 0.342995 0.030761 0.307616
315 2 0.713818 0.963304 0.33911
316 2 0.543937 0.750335 0.0991204
317 2 0.444864 0.0059374 0.624534
318 2 0.117307 0.561884 0.173482
319 2 0.14032 0.479033 0.491029
320 2 0.578461 0.396841 0.279515
321 2 0.202602 0.493165 0.329727
322 2 0.506901 0.877394 0.404032
323 2 0.495336 0.084971 0.420114
324 2 0.445912 0.13298 0.345197
325 2 0.405115 0.344542 0.942089
326 2 0.817975 0.450647 0.386728
327 2 0.192769 0.359465 0.996598
328 2 0.149248 0.306464 0.133815
329 2 0.0228365 0.329796 0.955493
330 2 0.144751 0.541886 0.758358
331 2 0.270345 0.341296 0.135145
332 2 0.334499 0.679854 0.928566
333 2 0.445404 0.361197 0.592154
334 2 0.976044 0.0401875 0.881565
335 2 0.333378 0.286628 0.096929
336 2 0.257497 0.337345 0.623979
337 2 0.214 0.641813 0.546292
338 2 0.31519 0.983825 0.201882
339 2 0.316163 0.445036 0.351948
340 2 0.227919 0.00050608 0.565519
341 2 0.076371 0.275818 0.987836
342 2 0.869978 0.294617 0.0288985
343 2 0.0892007 0.271811 0.869273
344 2 0.259402 0.330849 0.268531
345 2 0.511183 0.201353 0.2567
346 2 0.48611 0.74143 0.370172
347 2 0.624058 0.226063 0.919045
348 2 0.244835 0.265804 0.205748
349 2 0.464371 0.716787 0.239521
350 2 0.648822 0.150852 0.596977
351 2 0.997667 0.202414 0.0936306
352 2 0.998107 0.866469 0.490026
353 2 0.480301 0.589806 0.402334
354 2 0.39217 0.0445416 0.379675
355 2 0.0547444 0.343563 0.225223
356 2 0.296785 0.524831 0.441191
357 2 0.217008 0.718452 0.235749
358 2 0.106439 0.64122 0.615725
359 2 0.239774 0.5598 0.0858128
360 2 0.23485 0.506314 0.926752
361 2 0.272862 0.137955 0.281804
362 2 0.231235 0.703538 0.530461
363 2 0.973 0.887547 0.788818
364 2 0.0297817 0.850879 0.330301
365 2 0.143112 0.0655775 0.413046
366 2 0.408851 0.189731 0.500042
367 2 0.306814 0.764533 0.301887
368 2 0.025884 0.255412 0.895437
369 2 0.281509 0.407681 0.155572
370 2 0.973864 0.844763 0.353741
371 2 0.336946 0.727851 0.340988
372 2 0.23656 0.0701825 0.828388
373 2 0.0161648 0.014458 0.268601
374 2 0.501325 0.0132266 0.47315
375 2 0.427771 0.316802 0.239166
376 2 0.167439 0.100368 0.25755
377 2 0.139393 0.00223795 0.448097
378 2 0.979271 0.199165 0.00260954
379 2 0.879576 0.14661 0.18613
380 2 0.58844 0.150546 0.125654
381 2 0.395128 0.628881 0.0572088
382 2 0.392816 0.864812 0.727338
383 2 0.0118305 0.296533 0.0492072
384 2 0.532284 0.227087 0.279866
385 2 0.192151 0.270236 0.250567
386 2 0.639291 0.0403992 0.16788
387 2 0.195168 0.108834 0.170305
388 2 0.615515 0.249741 0.374293
389 2 0.476185 0.00864184 0.400251
390 2 0.939278 0.373845 0.0612463
391 2 0.229148 0.305411 0.369306
392 2 0.13797 0.208142 0.0236643
393 2 0.417383 0.540932 0.501118
394 2 0.0891902 0.0357492 0.200762
395 2 0.392463 0.402767 0.465447
396 2 0.196503 0.262089 0.506788
397 2 0.936584 0.783494 0.415271
398 2 0.334081 0.457694 0.876249
399 2 0.294863 0.0234403 0.272191
400 2 0.223629 0.288249 0.716169
401 2 0.241973 0.216629 0.372445
402 2 0.158016 0.390746 0.853911
403 2 0.3312 0.778378 0.218663
404 2 0.439 0.985313 0.464029
405 2 0.111058 0.286153 0.346374
406 2 0.940569 0.0861341 0.524345
407 2 0.0509766 0.483294 0.397406
408 2 0.390905 0.168702 0.131479
409 2 0.273523 0.0157383 0.849862
410 2 0.132413 0.00333195 0.610029
411 2 0.525509 0.971967 0.153744
412 2 0.945861 0.0995347 0.251729
413 2 0.531171 0.149059 0.355345
414 2 0.0600096 0.376991 0.731036
415 2 0.632698 0.763426 0.287389
416 2 0.532651 0.680176 0.405087
417 2 0.333115 0.0679262 0.301143
418 2 0.395213 0.19674 0.158053
419 2 0.56261 0.88214 0.446521
420 2 0.871748 0.463078 0.12197
421 2 0.06676 0.854869 0.231346
422 2 0.124632 0.50261 0.587372
423 2 0.0846017 0.791922 0.82511
424 2 0.998729 0.98627 0.250964
425 2 0.307541 0.0597742 0.150083
426 2 0.262118 0.806848 0.490395
427 2 0.380658 0.400964 0.56437
428 2 0.0652981 0.293372 0.0471596
429 2 0.0976902 0.27285 0.108778
430 2 0.114264 0.435779 0.990055
431 2 0.271311 0.437916 0.520636
432 2 0.631473 0.97327 0.500635
433 2 0.450407 0.134644 0.442868
434 2 0.108802 0.330128 0.188238
435 2 0.190376 0.131447 0.85046
436 2 0.31749 0.647344 0.190416
437 2 0.28685 0.00697001 0.210603
438 2 0.814359 0.586537 0.208389
439 2 0.800832 0.109652 0.311027
440 2 0.431726 0.0817316 0.0086409
441 2 0.40484 0.347889 0.159386
442 2 0.210576 0.540401 0.0115351
443 2 0.531919 0.221374 0.0654232
444 2 0.325341 0.520696 0.653775
445 2 0.242575 0.320335 0.708697
446 2 0.177068 0.214688 0.738641
447 2 0.113106 0.250485 0.917252
448 2 0.414066 0.0836398 0.208084
449 2 0.307187 0.305927 0.63539
450 2 0.116932 0.950131 0.425554
451 2 0.851751 0.41901 0.46789
452 2 0.304354 0.182299 0.61997
453 2 0.400801 0.459461 0.42579
454 2 0.0553969 0.340472 0.399473
455 2 0.158919 0.59277 0.196028
456 2 0.784702 0.605984 0.221612
457 2 0.103081 0.971779 0.949342
458 2 0.335737 0.261894 0.901779
459 2 0.347893 0.0999122 0.21486
460 2 0.404387 0.260922 0.630509
461 2 0.303931 0.205208 0.705118
462 2 0.569909 0.230674 0.285952
463 2 0.25362 0.376612 0.0491634
464 2 0.469336 0.361447 0.217428
465 2 0.336672 0.427967 0.265949
466 2 0.996743 0.335367 0.208204
467 2 0.42123 0.884947 0.372924
468 2 0.0790208 0.863158 0.443476
469 2 0.347406 0.179884 0.184107
470 2 0.779186 0.204829 0.308713
471 2 0.000629998 0.0593238 0.220142
472 2 0.510951 0.358882 0.487585
473 2 0.12507 0.355395 0.283533
474 2 0.139411 0.323398 0.907618
475 2 0.37521 0.68205 0.315236
476 2 0.132976 0.25289 0.44957
477 2 0.704663 0.110148 0.817745
478 2 0.438394 0.324973 0.941064
479 2 0.0882693 0.150223 0.103688
480 2 0.0304268 0.944418 0.61151
481 2 0.230784 0.25103 0.557218
482 2 0.275865 0.171209 0.332521
483 2 0.2536 0.144852 0.427918
484 2 0.589732 0.0120235 0.862407
485 2 0.536251 0.968887 0.429496
486 2 0.034629 0.356872 0.301186
487 2 0.4494 0.491814 0.279328
488 2 0.377448 0.148154 0.541197
489 2 0.160302 0.322707 0.624259
490 2 0.263902 0.0529984 0.967505
491 2 0.173795 0.215659 0.239944
492 2 0.978032 0.0742582 0.431378
493 2 0.94982 0.540647 0.23233
494 2 0.297654 0.571395 0.0877433
495 2 0.0717795 0.437648 0.176992
496 2 0.87531 0.758528 0.89958
497 2 0.699531 0.324611 0.0932299
498 2 0.456281 0.700017 0.560639
499 2 0.0254712 0.340274 0.010078
500 2 0.696984 0.0313517 0.376309
501 2 0.349326 0.319304 0.936143
502 2 0.720138 0.492873 0.12129
503 2 0.506908 0.130006 0.463192
504 2 0.446219 0.480756 0.491761
505 2 0.328131 0.263338 0.972897
506 2 0.192048 0.434629 0.119624
507 2 0.192742 0.399575 0.138009
508 2 0.0568099 0.057193 0.107099
509 2 0.738415 0.540894 0.448346
510 2 0.139281 0.135519 0.014913
511 2 0.372348 0.454874 0.212283
512 2 0.823307 0.367304 0.740188
513 2 0.69978 0.355012 0.355634
514 2 0.340711 0.0921382 0.997841
515 2 0.939984 0.289584 0.482221
516 2 0.594361 0.325105 0.968293
517 2 0.281096 0.148839 0.402164
518 2 0.0119055 0.108129 0.344872
519 2 0.25141 0.159823 0.48639
520 2 0.86402 0.419462 0.977328
521 2 0.944692 0.443969 0.666141
522 2 0.807261 0.292144 0.297233
523 2 0.899413 0.690535 0.364596
524 2 0.201125 0.434378 0.344444
525 2 0.477066 0.555878 0.216645
526 2 0.196753 0.284121 0.0691447
527 2 0.501011 0.265852 0.652126
528 2 0.974437 0.440459 0.972475
529 2 0.492031 0.326775 0.263947
530 2 0.0129184 0.518064 0.0672713
531 2 0.240418 0.698641 0.758774
532 2 0.177461 0.297947 0.326996
533 2 0.161166 0.185247 0.078771
534 2 0.286161 0.224818 0.443413
535 2 0.318187 0.140336 0.24215
536 2 0.0816085 0.636345 0.391189
537 2 0.833733 0.277026 0.171384
538 2 0.727905 0.958467 0.125043
539 2 0.0745209 0.153668 0.306463
540 2 0.333572 0.136803 0.300368
541 2 0.314779 0.712298 0.858408
542 2 0.976293 0.429724 0.063711
543 2 0.130745 0.310631 0.713245
544 2 0.498076 0.69803 0.241998
545 2 0.387012 0.584013 0.825795
546 2 0.332472 0.88098 0.24883
547 2 0.182715 0.0289521 0.402636
548 2 0.322243 0.0351702 0.013284
549 2 0.0890516 0.168445 0.878494
550 2 0.318085 0.172215 0.37136
551 2 0.033565 0.170906 0.0318976
552 2 0.0407025 0.0745183 0.136458
553 2 0.121541 0.125687 0.695964
554 2 0.525281 0.247488 0.416491
555 2 0.42065 0.384985 0.890814
556 2 0.282626 0.236089 0.52082
557 2 0.0831041 0.337055 0.579407
558 2 0.240802 0.389249 0.28611
559 2 0.948528 0.334185 0.622528
560 2 0.346859 0.983034 0.456093
561 2 0.594007 0.897158 0.623916
562 2 0.442368 0.410712 0.338062
563 2 0.341953 0.0808682 0.379751
564 2 0.168954 0.411024 0.40627
565 2 0.368633 0.426525 0.62392
566 2 0.604193 0.937154 0.670124
567 2 0.0772449 0.0135373 0.441723
568 2 0.745004 0.13563 0.424385
569 2 0.039416 0.394097 0.299863
570 2 0.547072 0.262297 0.224794
571 2 0.847835 0.267649 0.237819
572 2 0.854309 0.581764 0.466255
573 2 0.314892 0.369418 0.493075
574 2 0.0467814 0.54707 0.233739
575 2 0.311003 0.63756 0.44511
576 2 0.366651 0.64641 0.23878
577 2 0.167935 0.485515 0.313388
578 2 0.437965 0.380933 0.514194
579 2 0.325654 0.860386 0.618092
580 2 0.639945 0.909502 0.119479
581 2 0.386137 0.993851 0.974221
582 2 0.404641 0.2393 0.574203
583 2 0.381269 0.397345 0.603495
584 2 0.505336 0.979984 0.261132
585 2 0.0525708 0.183702 0.239824
586 2 0.255053 0.292629 0.343986
587 2 0.378434 0.200268 0.957823
588 2 0.0523428 0.57094 0.976741
589 2 0.977283 0.248305 0.922077
590 2 0.129793 0.829773 0.45617
591 2 0.478314 0.0228595 0.0819803
592 2 0.371325 0.529167 0.8247
593 2 0.46194 0.1918 0.532604
594 2 0.066009 0.242129 0.198319
595 2 0.25719 0.935396 0.624198
596 2 0.464451 0.202995 0.569186
597 2 0.282687 0.426952 0.466742
598 2 0.391293 0.994758 0.909183
599 2 0.819486 0.721376 0.192117
600 2 0.457343 0.202929 0.218085
601 2 0.375422 0.959001 0.210563
602 2 0.43472 0.18224 0.472938
603 2 0.286277 0.433148 0.976747
604 2 0.409614 0.387578 0.121977
605 2 0.125326 0.302181 0.245287
606 2 0.706896 0.0325104 0.891478
607 2 0.401701 0.115957 0.0492539
608 2 0.15631 0.0701934 0.278904
609 2 0.311326 0.111129 0.21885
610 2 0.936364 0.0210337 0.177042
611 2 0.00833265 0.226626 0.417103
612 2 0.157523 0.558467 0.0424849
613 2 0.140306 0.262837 0.341038
614 2 0.812158 0.665426 0.986623
615 2 0.156202 0.189099 0.909359
616 2 0.465073 0.240074 0.576178
617 2 0.309327 0.488005 0.546361
618 2 0.655202 0.66399 0.487211
619 2 0.284623 0.249158 0.413886
620 2 0.208448 0.162391 0.241458
621 2 0.200859 0.203148 0.0417569
622 2 0.287914 0.551696 0.177305
623 2 0.189955 0.161426 0.274415
624 2 0.968954 0.934855 0.23382
625 2 0.782322 0.277138 0.40329
626 2 0.938554 0.979233 0.273542
627 2 0.193619 0.815608 0.992361
628 2 0.379306 0.316646 0.159131
629 2 0.605987 0.786514 0.527239
630 2 0.0204063 0.953992 0.414476
631 2 0.160878 0.0981097 0.8091
632 2 0.369803 0.580955 0.0270433
633 2 0.181874 0.0949594 0.3354
634 2 0.994907 0.494842 0.622358
635 2 0.249212 0.114405 0.264745
636 2 0.416166 0.967929 0.269924
637 2 0.73962 0.230786 0.514328
638 2 0.216254 0.148646 0.0194106
639 2 0.150771 0.567345 0.822824
640 2 0.228739 0.877005 0.0472469
641 2 0.308121 0.123998 0.275293
642 2 0.335455 0.1856 0.341509
643 2 0.133707 0.684602 0.36512
644 2 0.220674 0.234162 0.492007
645 2 0.77131 0.470626 0.428983
646 2 0.365519 0.436725 0.558856
647 2 0.225685 0.225988 0.432388
648 2 0.972656 0.493551 0.203736
649 2 0.458741 0.049182 0.44664
650 2 0.480975 0.383595 0.114304
651 2 0.250661 0.204432 0.215944
652 2 0.949376 0.73091 0.0365807
653 2 0.162141 0.932206 0.0699531
654 2 0.103616 0.931458 0.00931049
655 2 0.883634 0.358556 0.704385
656 2 0.28094 0.433656 0.33845
657 2 0.250301 0.402801 0.252699
658 2 0.193903 0.545444 0.801485
659 2 0.37511 0.155131 0.190009
660 2 0.203407 0.336308 0.14999
661 2 0.327489 0.239109 0.330465
662 2 0.691741 0.60742 0.413696
663 2 0.194147 0.116645 0.463208
664 2 0.381869 0.313528 0.828016
665 2 0.337794 0.950664 0.0547832
666 2 0.878418 0.00343749 0.185502
667 2 0.318444 0.543128 0.467536
668 2 0.0528975 0.975617 0.563329
669 2 0.310514 0.0825841 0.062866
670 2 0.466033 0.261691 0.174654
671 2 0.99756 0.165116 0.136029
672 2 0.51793 0.231013 0.165687
673 2 0.0783982 0.230573 0.278945
674 2 0.199899 0.481034 0.481925
675 2 0.11286 0.675089 0.711354
676 2 0.0325116 0.674126 0.262932
677 2 0.470475 0.629066 0.454871
678 2 0.32384 0.119794 0.333573
679 2 0.579979 0.831038 0.353427
680 2 0.0365793 0.0138288 0.156975
681 2 0.0630741 0.372421 0.462636
682 2 0.143608 0.191212 0.1767
683 2 0.605908 0.655235 0.0856788
684 2 0.270993 0.602268 0.132738
685 2 0.0663715 0.185474 0.975734
686 2 0.855838 0.22914 0.556464
687 2 0.264815 0.685938 0.264971
688 2 0.512129 0.509254 0.429458
689 2 0.37708 0.979669 0.940471
690 2 0.592754 0.399696 0.448301
691 2 0.593593 0.668515 0.163574
692 2 0.0929695 0.383975 0.350039
693 2 0.507444 0.375731 0.958927
694 2 0.166648 0.801646 0.0131258
695 2 0.582292 0.180242 0.571275
696 2 0.587579 0.372277 0.226829
697 2 0.382521 0.322809 0.396123
698 2 0.279244 0.877865 0.269793
699 2 0.766877 0.147878 0.21026
700 2 0.376454 0.261677 0.18117
701 2 0.31366 0.80164 0.425477
702 2 0.389069 0.293749 0.767536
703 2 0.181647 0.119493 0.525803
704 2 0.148854 0.154346 0.235277
705 2 0.328275 0.286645 0.236613
706 2 0.505433 0.113159 0.730783
707 2 0.233976 0.227315 0.161449
708 2 0.254411 0.3513 0.336609
709 2 0.343679 0.957271 0.787179
710 2 0.111035 0.48351 0.296401
711 2 0.495905 0.110144 0.160484
712 2 0.513511 0.189521 0.9829
713 2 0.842011 0.602729 0.580317
714 2 0.0368975 0.607745 0.340664
715 2 0.251389 0.783286 0.27215
716 2 0.491844 0.363094 0.311963
717 2 0.280789 0.0850943 0.00701008
718 2 0.159563 0.26709 0.309575
719 2 0.979547 0.87453 0.723395
720 2 0.088922 0.133197 0.336398
721 2 0.164589 0.157198 0.815083
722 2 0.586997 0.245584 0.423211
723 2 0.454999 0.256126 0.118642
724 2 0.297368 0.281693 0.0164777
725 2 0.308236 0.45689 0.211843
726 2 0.360065 0.209778 0.164838
727 2 0.31423 0.364986 0.189523
728 2 0.034516 0.815735 0.551128
729 2 0.223559 0.397142 0.49379
730 2 0.141758 0.62221 0.181131
731 2 0.547152 0.326057 0.846885
732 2 0.914036 0.266641 0.0604123
733 2 0.516239 0.182095 0.366108
734 2 0.431055 0.378776 0.152827
735 2 0.526933 0.129081 0.100413
736 2 0.934421 0.0705617 0.144979
737 2 0.88702 0.0782247 0.234813
738 2 0.0101427 0.366197 0.380778
739 2 0.900133 0.315413 0.0203216
740 2 0.329351 0.607632 0.680914
741 2 0.437523 0.167888 0.359537
742 2 0.0294545 0.445223 0.0728035
743 2 0.458677 0.43088 0.257161
744 2 0.175628 0.208124 0.32368
745 2 0.265109 0.0155192 0.180542
746 2 0.0144479 0.352444 0.494426
747 2 0.365697 0.0176333 0.182113
748 2 0.417335 0.223721 0.142926
749 2 0.0804524 0.142116 0.0119795
750 2 0.111068 0.0243708 0.315516
751 2 0.182367 0.291258 0.195081
752 2 0.435478 0.559143 0.721009
753 2 0.97691 0.246134 0.358826
754 2 0.138903 0.567446 0.489942
755 2 0.204185 0.111079 0.307475
756 2 0.236204 0.95613 0.235857
757 2 0.294249 0.127297 0.866411
758 2 0.973676 0.235546 0.15973
759 2 0.074615 0.539647 0.53069
760 2 0.117015 0.22986 0.267607
761 2 0.450078 0.907939 0.0192817
762 2 0.358349 0.127151 0.417389
763 2 0.417233 0.324435 0.446818
764 2 0.312794 0.928744 0.337709
765 2 0.514363 0.682495 0.538971
766 2 0.0230218 0.35666 0.0434019
767 2 0.673936 0.335953 0.160679
768 2 0.398009 0.141892 0.296371
769 2 0.449208 0.397626 0.480432
770 2 0.618994 0.531946 0.169435
771 2 0.164405 0.419233 0.189446
772 2 0.483109 0.0325434 0.177194
773 2 0.25925 0.146748 0.152445
774 2 0.67344 0.218856 0.338355
775 2 0.198573 0.108561 0.878864
776 2 0.290088 0.00463764 0.305134
777 2 0.154077 0.258339 0.00904533
778 2 0.118619 0.330888 0.391415
779 2 0.433884 0.246186 0.344201
780 2 0.344518 0.239721 0.448267
781 2 0.311209 0.239902 0.136968
782 2 0.862191 0.137524 0.0545483
783 2 0.228862 0.479542 0.200224
784 2 0.491277 0.52997 0.0999275
785 2 0.376272 0.12193 0.874814
786 2 0.163355 0.501911 0.0187949
787 2 0.222969 0.859312 0.49024
788 2 0.231166 0.124354 0.37979
789 2 0.00799609 0.149608 0.494352
790 2 0.679932 0.351036 0.388623
791 2 0.221461 0.192233 0.448902
792 2 0.272643 0.128951 0.480025
793 2 0.440786 0.303419 0.301646
794 2 0.203489 0.596511 0.961775
795 2 0.273018 0.134726 0.55981
796 2 0.518807 0.242722 0.532348
797 2 0.272545 0.0645977 0.230438
798 2 0.429847 0.203857 0.406662
799 2 0.314265 0.562586 0.151011
800 2 0.504933 0.0983475 0.100259
801 2 0.297689 0.172258 0.233126
802 2 0.589049 0.48303 0.318042
803 2 0.163841 0.358776 0.32857
804 2 0.121083 0.626569 0.270137
805 2 0.437241 0.344194 0.527578
806 2 0.541276 0.368802 0.134923
807 2 0.52995 0.200748 0.222929
808 2 0.224371 0.0153021 0.243255
809 2 0.0453053 0.132144 0.40266
810 2 0.152432 0.270247 0.18516
811 2 0.0455631 0.689891 0.230531
812 2 0.218016 0.376592 0.526286
813 2 0.861201 0.940867 0.836284
814 2 0.947543 0.182902 0.361655
815 2 0.297912 0.938669 0.2813
816 2 0.152524 0.320335 0.0144447
817 2 0.529714 0.00977923 0.25979
818 2 0.992898 0.261731 0.180289
819 2 0.159344 0.904803 0.523802
820 2 0.199975 0.30062 0.162992
821 2 0.689029 0.513128 0.124796
822 2 0.116837 0.323263 0.35301
823 2 0.149925 0.918572 0.809541
824 2 0.640983 0.085668 0.380578
825 2 0.0865366 0.789999 0.542262
826 2 0.531496 0.765739 0.0432454
827 2 0.13815 0.258619 0.217831
828 2 0.0545661 0.279373 0.319175
829 2 0.366757 0.924566 0.10773
830 2 0.95592 0.402868 0.0128451
831 2 0.00324275 0.543801 0.726183
832 2 0.897095 0.696951 0.730163
833 2 0.9428 0.167523 0.411202
834 2 0.998254 0.456945 0.379378
835 2 0.460526 0.232228 0.995694
836 2 0.351126 0.21788 0.353057
837 2 0.956248 0.14111 0.170912
838 2 0.328178 0.928595 0.303202
839 2 0.479459 0.131485 0.325233
840 2 0.0959198 0.492987 0.981112
841 2 0.233986 0.213806 0.711519
842 2 0.012381 0.928886 0.0251779
843 2 0.0359812 0.379381 0.0998879
844 2 0.582282 0.969978 0.183685
845 2 0.697397 0.367846 0.509816
846 2 0.212044 0.939753 0.970183
847 2 0.989687 0.16947 0.733019
848 2 0.907983 0.225543 0.175626
849 2 0.160921 0.433778 0.342244
850 2 0.112889 0.295453 0.527326
851 2 0.0327286 0.206989 0.479677
852 2 0.485851 0.226536 0.337802
853 2 0.373126 0.968152 0.14544
854 2 0.0617353 0.12615 0.232055
855 2 0.880261 0.950194 0.533796
856 2 0.365493 0.265252 0.467064
857 2 0.235713 0.0367457 0.30106
858 2 0.25668 0.201641 0.565982
859 2 0.442728 0.365674 0.270118
860 2 0.04285 0.20539 0.048941
861 2 0.389859 0.297244 0.101585
862 2 0.493305 0.365813 0.248273
863 2 0.787037 0.640864 0.264784
864 2 0.180977 0.325046 0.211726
865 2 0.189693 0.175593 0.503345
866 2 0.362843 0.560208 0.423136
867 2 0.135246 0.784124 0.319417
868 2 0.497293 0.348687 0.366706
869 2 0.22847 0.384686 0.132303
870 2 0.176794 0.125962 0.285088
871 2 0.531437 0.26143 0.187742
872 2 0.0916587 0.36322 0.179598
873 2 0.5488 0.436163 0.330308
874 2 0.447579 0.90714 0.39195
875 2 0.194072 0.0480899 0.732
876 2 0.659336 0.123276 0.133634
877 2 0.0314497 0.808088 0.187474
878 2 0.185394 0.134988 0.0984919
879 2 0.68004 0.886775 0.478356
880 2 0.851129 0.779219 0.10667
881 2 0.190452 0.987895 0.484129
882 2 0.395204 0.629491 0.288648
883 2 0.314928 0.195486 0.27853
884 2 0.318106 0.285909 0.842403
885 2 0.0199342 0.302102 0.0122168
886 2 0.100669 0.155919 0.280218
887 2 0.297663 0.0421183 0.215002
888 2 0.309533 0.164412 0.425862
889 2 0.188536 0.00693862 0.191686
890 2 0.0425919 0.292321 0.204749
891 2 0.774961 0.901138 0.965854
892 2 0.262277 0.238448 0.264714
893 2 0.342448 0.207278 0.911704
894 2 0.0143019 0.458094 0.104936
895 2 0.206987 0.300835 0.267205
896 2 0.128549 0.394376 0.136859
897 2 0.928721 0.430075 0.0153407
898 2 0.283212 0.333038 0.439951
899 2 0.237295 0.920885 0.252475
900 2 0.220156 0.0696264 0.514549
901 2 0.178901 0.597216 0.509071
902 2 0.256539 0.0156406 0.0387444
903 2 0.192811 0.335952 0.426797
904 2 0.0598341 0.277072 0.954035
905 2 0.222214 0.209181 0.192256