ITEM: TIMESTEP
0
ITEM: NUMBER OF ATOMS
1000
ITEM: BOX BOUNDS pp pp pp
0.0000000000000000e+00 2.1158707884739954e+01
0.0000000000000000e+00 2.1158707884739954e+01
0.0000000000000000e+00 2.1158707884739954e+01
ITEM: ATOMS id element x y z fx fy fz c_PEa
1 H 9.00633 19.2169 2.743 -0.526723 -0.307537 -0.357582 1.40574
2 H 7.95692 13.7356 12.1328 -1.44752 -0.196966 0.292846 -0.19625
3 H 0.97529 20.4533 6.81672 0.242273 -0.244926 -0.982457 -0.186385
4 H 6.26773 8.14528 9.38544 -0.667433 0.359387 0.44625 0.418613
5 H 17.7713 2.65932 5.29234 -0.156481 0.00927955 -0.306861 -0.431765
6 H 11.146 15.7388 14.1328 -1.20331 -1.5812 0.386756 -0.107424
7 H 2.10274 8.77889 14.6229 -0.407598 -0.0417984 0.579595 0.13162
8 H 5.16074 7.99099 3.53353 0.108147 0.066252 0.59292 0.966565
9 H 3.30722 17.3187 4.02879 0.382237 0.228756 0.00469509 0.698161
10 H 9.941 17.8717 15.6736 0.417811 -0.541752 -0.274993 -0.0930104
11 H 21.1293 18.0288 11.7466 0.782937 0.104581 0.492413 0.319744
12 H 16.4276 11.4874 9.41883 0.804199 -0.212243 0.541042 0.00555244
13 H 5.61311 17.0155 19.7735 -0.989077 0.0667212 0.556499 0.776947
14 H 18.6716 20.3534 12.7735 0.17103 0.948285 0.342253 0.988604
15 H 7.6683 4.44008 0.332688 0.333744 -0.312225 -0.174117 -0.17775
16 H 0.298382 13.1781 11.7544 0.0410161 -0.00587964 -0.184638 0.102297
17 H 20.2491 9.66034 10.9825 1.00902 0.897035 0.260881 -0.18366
18 H 2.71229 11.2201 12.8138 -0.933949 -1.30673 -0.699023 -0.193007
19 H 12.9625 5.18348 19.2101 -0.0942251 -0.390063 0.0544545 0.0529488
20 H 16.3076 14.9569 2.47478 -0.573318 0.464503 0.307508 0.106475
21 H 7.77811 8.3807 18.2361 0.618495 -0.0855677 0.0732544 -0.154749
22 H 21.0908 14.632 5.89084 -1.58507 0.618684 -0.450744 0.59891
23 H 7.18592 0.718548 17.1919 0.614616 0.401732 -0.293577 0.338889
24 H 4.34926 13.3977 6.11804 0.51513 -0.67897 -0.436686 0.202903
25 H 20.7406 5.70704 15.6073 0.635982 0.0422915 0.0379785 -0.267166
26 H 9.61514 4.1061 5.61934 -0.290803 -0.477254 0.109553 0.807469
27 H 8.3502 0.0312126 4.52201 -0.623468 0.189243 0.054786 0.484197
28 H 10.6822 15.0887 5.06847 -1.06014 -0.22243 -2.70257 0.382335
29 H 14.774 15.4019 4.80294 -1.08306 0.56597 -2.06841 1.53037
30 H 11.0765 0.72558 8.26716 0.269852 -0.142672 -1.36621 0.48133
31 H 7.01343 16.2531 3.77576 -0.877117 -0.542134 0.0213957 0.248962
32 H 17.4634 18.2402 10.9876 -1.13784 0.834294 0.109889 2.61354
33 H 1.39557 11.5587 4.52131 -1.29558 -0.725958 0.382659 -0.0582095
34 H 9.44928 16.1723 18.617 0.184063 0.0862511 -0.649115 0.684465
35 H 4.38984 20.0444 0.756931 -0.438859 1.03013 0.735358 0.656935
36 H 18.8354 7.49426 10.8906 -1.04249 0.111858 -0.455446 -0.2062
37 H 7.49611 19.5872 5.58901 -0.0656106 0.133274 0.299163 0.0547543
38 H 14.7095 13.8457 17.1994 1.47683 0.0871368 0.0878181 2.83999
39 H 16.9199 0.00200072 13.1587 -0.30493 1.61638 0.752066 -0.163495
40 H 6.25336 1.71195 12.4755 0.103574 0.202245 1.09056 1.23751
41 H 6.55789 6.35283 8.79087 1.54087 0.0679355 -0.859155 0.347229
42 H 13.4873 20.8958 17.1903 1.12469 -1.16761 2.09998 -0.240552
43 H 14.503 11.7159 4.31899 0.00372803 0.633168 0.12819 0.0390427
44 H 11.2253 16.5618 17.4565 -0.638199 -0.406369 0.264325 0.714302
45 H 1.75747 8.49928 5.44253 -0.554391 0.490777 -0.31801 -0.0425381
46 H 6.8268 3.66676 17.4411 -0.0782509 0.582795 -0.807487 -0.195999
47 H 12.6322 14.4829 15.3601 0.0897101 -0.305942 1.54544 1.26442
48 H 20.3259 12.1501 13.4879 0.108127 -0.711122 -0.181099 -0.462968
49 H 15.1442 0.269141 5.08569 -1.07762 -0.196524 0.769567 -0.473595
50 H 5.59558 5.31703 7.18757 -0.51356 0.0242768 -0.394684 1.11791
51 H 15.7566 19.2944 0.241159 4.32421 0.340853 0.286279 1.72558
52 H 2.83335 4.46359 1.10044 0.715941 0.750817 -0.545993 0.135514
53 H 0.539502 16.2963 7.1467 0.819373 0.0072597 -1.48373 -0.0285772
54 H 18.6854 13.2625 2.13552 -1.05066 -0.86457 1.17476 0.160939
55 H 1.69478 7.46081 17.534 -0.961612 -0.552838 -0.952565 0.557741
56 H 3.07319 18.3911 8.81533 -0.378818 0.261618 0.266793 0.0535648
57 H 15.3831 11.3171 13.0731 0.85664 0.712902 0.922081 -0.367275
58 H 3.90812 8.48519 12.6992 -0.367232 0.469233 1.55448 0.192029
59 H 19.1363 14.0717 11.0506 0.509938 0.0709586 -0.0343705 0.61167
60 H 15.0384 14.3195 15.2203 0.306935 2.09342 0.681516 0.946127
61 H 14.1134 3.17846 15.01 -0.379737 0.14708 0.0928652 0.402042
62 H 6.40413 9.41506 3.4208 0.477574 -0.156053 0.395488 0.842117
63 H 20.7669 4.85594 4.60734 -1.59677 0.0325685 3.11723 0.330411
64 H 4.22404 11.8583 4.01004 -0.00957404 -0.4367 0.422946 0.247036
65 H 3.71159 1.586 1.17491 -0.367754 -1.41767 0.0545679 0.291108
66 H 14.4236 6.57832 18.6897 0.678044 0.063479 0.791846 -0.416231
67 H 13.392 7.31791 9.04385 0.19948 0.243015 0.121731 0.756119
68 H 20.5483 1.38372 1.99221 -0.165331 0.904383 -0.264811 -0.136066
69 H 1.5054 13.7399 9.5449 -0.445445 -0.833845 -0.0734849 -0.525172
70 H 8.57835 6.13634 16.6396 0.369676 -0.545762 0.0584684 -0.00540907
71 H 7.45849 9.01478 6.98306 -0.51641 -0.756915 -0.0153645 1.27754
72 H 0.951016 16.0046 15.9552 -0.443936 -0.180192 -0.869403 0.416827
73 H 13.2483 12.3264 13.4943 0.129343 0.0344851 0.462795 -0.263876
74 H 20.9283 14.5725 10.5946 0.364035 0.893581 0.178109 0.143108
75 H 10.072 6.32586 2.22021 -1.19083 0.496521 0.743783 0.141474
76 H 16.8336 12.2141 15.1364 0.291738 0.570986 -0.435169 0.253382
77 H 11.4583 3.4808 20.9366 0.307161 0.214483 0.279942 -0.303104
78 H 3.09169 18.7214 18.5528 1.45405 0.88171 -0.0931567 1.22467
79 H 8.81474 3.21782 2.745 0.0562795 0.165925 -0.348862 0.329035
80 H 20.9859 12.4412 16.8386 -0.590352 -0.101647 -0.186399 0.463191
81 H 13.6611 20.7435 11.8838 1.61005 -0.667604 1.75193 0.244251
82 H 4.96685 12.2501 7.56033 0.365689 0.495668 0.203708 0.0907634
83 H 18.9849 18.3318 7.88245 -2.71898 0.39064 -2.49944 0.168926
84 H 17.0697 6.29547 19.3624 -0.425201 -0.162234 -0.190945 -0.0396879
85 H 15.824 3.84582 14.6973 -0.366566 -0.430648 -0.658491 0.348296
86 H 3.72169 6.02532 19.7297 0.583583 -0.719395 -0.742518 -0.016474
87 H 13.2669 18.4557 21.0126 0.69306 -0.196188 0.0471266 0.518601
88 H 4.86463 5.77383 14.6996 -0.98911 -0.179813 -0.926542 0.344671
89 H 19.6551 19.8904 10.2096 -0.201385 1.16066 0.433484 0.552801
90 H 7.16451 5.47051 13.0175 0.30602 0.823281 1.28196 0.780559
91 H 11.6602 19.9387 5.88898 0.264843 0.415363 0.59122 0.821775
92 H 13.2328 15.8501 12.3861 0.192977 -2.07025 -1.80903 0.704532
93 H 3.24445 14.9126 21.0888 0.293416 0.649744 -0.25426 0.146618
94 H 10.517 0.11962 20.9893 -0.240321 -1.06779 0.990058 0.104285
95 H 16.1048 3.29751 9.83508 -0.031862 -0.0841003 -0.54481 0.450885
96 H 18.8511 4.44281 20.7294 -0.604319 0.375854 0.0450159 -0.0722055
97 H 9.626 3.88449 7.48142 -0.210419 0.378241 -0.222152 0.533196
98 H 12.3212 13.8288 11.4072 0.634915 -0.0158558 -0.742534 -0.483815
99 H 5.47101 8.64539 11.2505 0.384837 -0.0723235 -0.409868 0.138129
100 H 17.4175 13.9807 16.792 -0.141803 0.545661 -0.0321304 0.262742
101 H 14.0224 18.7998 10.9796 -0.0345805 0.615751 -1.13431 0.142625
102 H 15.4339 7.66339 12.9781 -1.54726 -0.345613 -0.460154 -0.125341
103 H 17.7628 16.4893 7.25515 1.23555 1.01719 0.151749 1.33604
104 H 14.5563 11.6511 2.34299 0.929458 -0.157665 0.769259 0.106464
105 H 11.417 16.3336 11.5837 0.924516 1.52387 -0.00148411 -0.363184
106 H 16.8178 12.5875 19.9141 -0.767172 -0.804407 0.84128 -0.286869
107 H 17.2371 0.821632 6.4638 -0.740321 -1.2284 0.860461 -0.218673
108 H 15.931 12.1603 11.4151 1.55482 1.96012 1.61501 0.171788
109 H 9.99791 7.40942 16.2935 -0.371928 -0.57557 0.723568 0.170928
110 H 19.4873 9.43767 3.8214 0.648399 -0.554493 0.387635 0.203009
111 H 5.35317 11.5162 18.9524 -0.242615 0.577931 -0.298817 0.285231
112 H 12.6459 2.49202 2.29715 -0.18075 0.636314 -0.647973 -0.318006
113 H 9.21289 3.14321 18.8181 0.122121 -0.600997 -1.0235 -0.0476063
114 H 4.22923 16.2341 12.016 0.820765 0.241369 -0.896205 -0.0767869
115 H 1.23239 1.84862 14.7246 -0.415945 -0.374226 -0.0947186 0.271908
116 H 2.67292 4.38298 9.3839 -0.873724 0.707746 -0.297343 -0.0731474
117 H 5.4892 1.029 6.73195 0.275876 -0.39919 0.15933 0.666774
118 H 16.8412 8.78845 9.23942 0.763217 0.570042 0.0088983 -0.128589
119 H 11.6485 0.276095 14.0549 -0.38971 1.09856 -0.926822 0.0721449
120 H 8.54826 10.8802 1.01353 0.385835 -0.303028 -0.0336078 0.453254
121 H 15.1262 2.23631 4.1365 0.953307 0.0923902 -0.708466 0.143745
122 H 16.2921 4.88775 20.6468 0.829874 -0.235093 -0.0792857 -0.0251373
123 H 12.6579 17.9214 3.09671 -1.05169 0.207347 -0.735245 0.821866
124 H 3.43987 10.5523 20.9907 -0.778646 0.732723 0.438031 -0.0771898
125 H 0.354858 2.13278 20.8822 -0.00824026 -0.913697 -0.161189 0.514092
126 H 15.5428 14.3768 0.54019 -0.294151 0.601009 -0.564716 -0.117687
127 H 17.1389 18.0817 20.6753 -0.92372 1.33672 -2.46552 1.26154
128 H 14.3459 15.3174 19.3315 0.480338 0.420396 0.185085 -0.113131
129 H 9.95947 6.51852 9.11715 0.532016 -0.673926 0.300488 0.306571
130 H 9.04731 7.91357 4.13635 -1.12672 0.934213 0.654183 0.639056
131 H 18.9464 0.0446977 16.7187 0.0195259 0.249801 -0.547108 1.17464
132 H 1.14852 3.82349 10.8486 -0.343453 -0.110096 0.861221 -0.00310849
133 H 12.9758 15.3778 4.59036 -0.650622 0.868572 0.106032 1.08427
134 H 15.9586 10.7811 5.39015 -0.238575 -0.825591 -0.799643 0.175489
135 H 12.5073 8.04306 14.0969 -0.623217 0.0590083 -0.0854988 0.262761
136 H 11.4289 5.38163 5.01373 -0.839628 0.017968 -0.759331 0.428263
137 H 2.41713 19.1494 1.69115 1.1728 0.940748 -0.628736 5.37866
138 H 17.9151 11.1491 7.35191 0.0534181 -0.985281 -0.12522 0.233811
139 H 20.3907 18.7827 4.79539 -0.308132 -1.25043 0.153558 0.5482
140 H 8.55898 16.2764 10.6431 0.0597785 -0.551922 -0.174426 0.0784926
141 H 16.0178 20.4244 11.0848 0.0341828 -0.154631 -1.05992 0.199845
142 H 2.58275 5.34096 11.2712 -0.689433 0.412215 -0.61797 0.0796134
143 H 20.0914 3.26736 20.1596 -0.483861 -1.01595 -1.44102 0.150196
144 H 17.9103 4.73912 3.10932 -0.925576 0.0154549 -0.596776 0.0858985
145 H 15.7832 15.2559 11.4252 -1.07603 0.167978 0.148136 0.776926
146 H 0.184629 16.0832 2.34446 0.371761 -1.15752 0.826087 1.67174
147 H 17.9649 15.2289 0.948098 -0.409066 -0.546809 0.336055 -0.0397469
148 H 12.999 6.42565 13.0919 -0.200816 -0.513957 1.04216 1.70315
149 H 1.89751 16.5262 17.5145 1.16812 -0.0904681 -0.662576 0.579183
150 H 3.24316 20.9892 15.4932 -1.12433 0.622213 -0.816787 0.790881
151 H 5.49823 6.22887 0.164405 0.597435 -0.0541618 0.857526 -0.308133
152 H 16.6022 9.1458 13.9662 0.968626 -0.533297 0.270025 -0.116069
153 H 12.724 17.2955 6.14018 -1.01021 -0.27599 0.373384 1.39022
154 H 1.34735 10.4418 2.86507 -0.00123082 -0.475349 -0.25662 -0.204309
155 H 20.6622 7.6343 3.58096 0.228561 1.28233 0.456833 0.0317153
156 H 7.66418 6.25333 3.66674 0.941729 0.514208 -1.09561 0.514144
157 H 0.0133689 4.3396 9.28425 0.750956 1.01102 1.85882 -0.124667
158 H 3.27855 2.69872 7.88426 0.592665 0.102227 0.239555 0.0355757
159 H 17.2014 2.81729 15.7029 1.02778 0.512022 0.231663 0.0419329
160 H 6.75566 9.99567 12.5467 -0.338367 0.306233 -0.136653 0.171605
161 H 16.5743 6.67899 3.96073 0.263163 -0.500536 0.0274649 0.401027
162 H 19.9355 0.963938 10.2269 0.355084 -0.792234 0.187805 -0.229765
163 H 20.8455 0.757921 12.6777 -0.0638874 0.316915 -0.759204 0.459814
164 H 3.60256 6.26866 9.88662 -0.0605026 -0.0974868 -0.944803 0.0766459
165 H 8.0697 0.088299 1.94599 -0.537574 0.39601 0.681447 0.476788
166 H 5.39527 6.55976 5.54805 0.204645 0.232333 0.351942 1.32662
167 H 2.51685 12.2814 5.73969 -1.56014 -0.57543 0.678309 -0.514051
168 H 0.957208 13.4269 20.464 1.20068 -0.836703 0.691574 0.231809
169 H 1.68134 7.31993 20.5111 1.21027 0.0239003 -0.846591 0.62463
170 H 14.101 0.130027 13.5834 0.00890678 0.252785 -0.774296 0.328332
171 H 6.7 14.7959 7.46014 0.355719 -0.173186 0.523145 0.0569744
172 H 6.70199 7.01955 11.6325 0.596639 -0.449101 -0.286651 0.0529907
173 H 2.4878 0.375607 7.82419 0.568806 -0.235875 -0.865899 0.120175
174 H 11.735 19.3836 19.9355 -0.132462 0.13593 0.664824 -0.243291
175 H 0.368069 8.24185 7.50674 -0.795258 0.240239 -0.257729 0.0182694
176 H 2.4027 4.44266 3.18992 1.18912 -0.402141 0.502789 0.198868
177 H 7.20872 18.2415 10.0483 -0.955391 0.859538 0.461268 0.236633
178 H 20.339 14.7462 12.5985 -0.724292 -0.175739 1.42381 0.405452
179 H 10.2306 4.95215 10.7447 0.821447 1.37697 1.07006 0.675741
180 H 2.00197 5.21326 5.66564 -0.435903 0.894964 -1.11809 -0.103457
181 H 16.9174 20.3931 20.4048 0.00144838 -0.0421804 -0.821645 0.619966
182 H 2.29918 20.8765 11.5226 -0.287701 0.0418573 0.515121 -0.045973
183 H 15.5274 6.26662 11.7531 0.733298 -0.251789 0.39918 -0.079895
184 H 8.51149 0.274704 14.8024 -0.352185 -1.04974 -0.192546 -0.121957
185 H 10.5517 21.1564 18.0536 0.217267 0.723899 0.911179 0.111171
186 H 0.187428 13.1462 4.74769 -1.06126 0.763148 0.0466249 0.0426201
187 H 8.62134 20.6384 18.742 -0.068344 0.0337305 0.708733 -0.129964
188 H 20.8215 10.2814 1.38728 -0.159794 -0.105713 1.36546 0.188064
189 H 19.3323 11.7045 11.3984 1.24358 0.210731 -0.186253 -0.403577
190 H 1.63096 13.5492 15.8047 -0.815231 -0.394801 1.13902 -0.488248
191 H 3.36577 6.91426 4.76659 0.0583212 0.330848 0.569254 0.151827
192 H 18.5974 10.0529 11.8044 -0.734749 0.190175 -0.452636 -0.35291
193 H 9.16439 16.6972 12.9011 0.244908 0.929047 -0.0101989 -0.670479
194 H 19.134 16.4394 4.06496 0.944602 0.111045 0.355802 1.04365
195 H 18.5805 5.63911 8.30541 -0.0431056 0.319262 0.81745 0.0997097
196 H 19.1685 8.35902 12.8271 -0.124177 -0.473502 0.647527 -0.333075
197 H 15.9882 4.75517 1.30763 0.366014 -0.929796 0.330347 -0.0192497
198 H 0.357354 3.55598 18.9578 -0.0308627 -0.181412 -0.435548 0.329852
199 H 8.55373 15.9443 15.8069 -0.644778 0.191115 -0.757114 -0.393645
200 H 7.58016 1.84822 3.99652 -0.242682 -0.4912 -0.332596 0.530227
201 H 12.647 3.33287 16.2414 1.0271 -0.543773 0.0372471 0.510303
202 H 14.2308 5.64066 9.9867 -0.323297 0.0478628 0.486118 0.822389
203 H 4.47889 8.85609 19.325 0.840049 0.03963 -0.237099 -0.00476162
204 H 16.4726 14.3161 4.38666 1.82638 -0.228589 -0.467054 0.265422
205 H 7.92633 13.838 0.876117 1.49116 0.0598228 -0.196166 0.576794
206 H 18.2075 10.7064 13.5292 -0.23713 0.109672 0.948078 -0.344132
207 H 19.5439 16.4419 2.0227 -1.1978 -0.797803 1.4597 1.04654
208 H 18.466 16.4142 20.0233 -2.18414 -1.71459 -1.12512 0.518296
209 H 12.5264 19.725 1.73394 -1.12524 -0.326868 0.000547616 0.691706
210 H 3.98424 14.2072 8.0724 1.6026 -0.240713 -0.172924 -0.60427
211 H 18.1823 15.1576 5.60144 1.82385 0.705193 -2.10594 1.28731
212 H 7.20043 12.8454 5.5912 -0.756109 0.0872257 0.0260981 0.476675
213 H 3.411 15.0688 4.58232 -0.151739 -0.0268585 -0.887836 -0.316372
214 H 20.747 15.8028 18.6755 0.089635 -1.74236 -1.37432 1.05249
215 H 13.5998 9.83526 3.38647 -0.150622 -0.979572 0.813704 0.14369
216 H 19.3665 1.22075 19.7826 -0.464114 0.759193 1.39974 0.404753
217 H 9.4374 4.99378 13.051 -0.960177 -0.303015 -0.866683 0.421746
218 H 4.23357 18.8853 12.2983 -0.134961 -0.17878 -0.384588 -0.0385131
219 H 19.052 12.1795 3.53071 1.19727 0.442572 0.150153 -0.0703331
220 H 18.817 18.1717 2.31161 0.390308 -1.23316 3.32262 0.450326
221 H 20.3324 0.745235 5.40654 0.0808337 1.65174 1.16356 -0.0606923
222 H 10.068 0.306265 15.9493 0.728488 -1.08483 -0.673678 -0.033539
223 H 5.27207 7.52039 15.9061 -0.0324434 1.14631 3.21547 -0.0558423
224 H 14.1807 16.8038 8.58885 -0.781006 1.13255 1.06883 0.62257
225 H 3.50809 15.4379 13.9072 0.149229 1.19 -0.850403 -0.193308
226 H 10.5606 10.1099 6.32755 -0.0206091 -0.174723 -0.593046 0.861011
227 H 18.975 10.197 20.5185 -0.878529 0.0135943 1.01408 -0.878838
228 H 10.3082 7.66513 5.50772 1.51764 0.819851 -0.305608 0.731498
229 H 5.15551 16.4159 9.50956 -0.246419 1.02368 0.606405 -0.292868
230 H 4.62168 1.43188 14.6002 -0.213336 -0.23105 -0.271954 0.71596
231 H 20.9667 10.4388 20.0208 1.05239 0.0583934 -0.441946 0.143066
232 H 8.33557 10.2693 13.5328 -0.0521861 -2.05849 2.80679 -0.41819
233 H 11.1955 16.9932 4.80173 0.0248777 0.227468 0.661155 -0.0456248
234 H 18.8933 3.16284 12.1809 0.642864 -0.516082 0.341347 0.283936
235 H 10.6306 9.01108 17.1352 -0.267218 0.722009 0.459404 0.14918
236 H 19.0738 16.1938 13.2172 -0.459065 0.460269 0.260484 0.687386
237 H 10.5141 14.411 7.04338 -0.847263 0.0985654 0.96671 0.144055
238 H 5.58931 19.1433 6.71086 -0.139816 0.052054 -0.756958 0.115649
239 H 13.4376 2.63849 5.14379 0.470528 0.554959 0.201366 -0.0813315
240 H 9.05292 1.81904 7.8699 -0.682271 -0.282837 -1.37154 1.19509
241 H 19.9946 4.59883 13.6922 -0.411636 -1.06156 -0.179569 0.334216
242 H 0.382055 11.8347 18.4799 0.0404656 0.341193 0.661235 0.278363
243 H 8.6267 18.5805 11.2289 0.36711 0.493138 2.21884 -0.0377293
244 H 13.9088 10.8333 6.09567 -0.965968 -1.3822 0.217359 0.0301017
245 H 18.2943 7.36159 9.07547 -0.260219 0.107445 0.163998 -0.369029
246 H 12.1769 9.06923 0.6221 -0.801754 -0.0166821 -0.805255 0.333371
247 H 13.4979 9.60734 12.2009 0.226411 -0.678582 0.562837 -0.403429
248 H 16.0342 7.76287 20.4406 -0.355149 0.66157 0.283156 -0.000935544
249 H 12.2187 17.3722 9.82479 0.0348163 -0.422782 -0.54467 -0.0861598
250 H 9.45386 12.3308 16.1002 -0.128025 0.568251 -0.266554 0.718172
251 H 6.83216 19.8933 9.05352 0.936711 0.697193 0.23365 0.115254
252 H 4.91405 12.2429 10.7025 -0.0130797 0.366211 -0.321521 0.0345997
253 H 2.80085 5.02255 17.5337 -0.357506 -0.11745 0.273732 0.306118
254 H 3.9753 8.88018 2.23192 -0.433374 0.245843 0.115914 0.0915415
255 H 14.4764 0.0795326 15.6646 3.62668 0.791473 0.291415 -0.241252
256 H 13.9794 12.0504 11.3956 -0.61939 -0.131466 -0.203898 -0.175133
257 H 12.9687 10.5472 9.94388 -0.810143 -0.486326 0.378403 0.108299
258 H 7.12838 3.41902 6.43001 0.386624 0.000908646 0.364446 1.12276
259 H 1.25684 15.4054 12.5748 -1.15549 1.01751 0.166445 -0.314733
260 H 4.3387 13.6834 13.8212 0.845012 -0.0991309 -0.833346 -0.090596
261 H 10.2372 20.1855 13.5129 -1.10473 -0.536122 -0.31533 0.152048
262 H 9.73375 17.0746 8.42535 0.275981 -0.0742428 -0.0472328 -0.0557993
263 H 14.9981 4.47743 17.6343 -0.166491 0.987518 -0.422335 -0.230405
264 H 0.442069 19.7666 15.2981 -0.308598 -0.345111 -0.112993 1.12995
265 H 19.4388 6.16645 3.92775 -0.892682 -0.471452 0.985534 0.303516
266 H 11.5332 15.9707 6.86333 0.238959 0.374758 0.59007 0.989195
267 H 16.2132 12.5347 4.10404 0.877864 -2.23287 -2.04526 -0.158899
268 H 7.18009 14.3023 10.4746 -0.356377 -0.03537 -0.417602 0.30043
269 H 5.9521 9.83803 15.8122 0.382961 -0.109438 0.681154 0.31563
270 H 15.9935 16.846 18.5461 0.282777 0.334895 0.0783976 0.3923
271 H 6.67421 13.352 13.9509 0.0264069 0.206474 0.297306 -0.35043
272 H 9.77132 19.6965 16.9996 -0.0676591 -0.326128 -0.220399 0.393247
273 H 2.29071 12.2623 18.0588 0.11388 0.680054 0.00219117 1.32403
274 H 11.2116 18.4369 13.5362 -1.20077 -0.355093 -1.55032 1.33163
275 H 10.6433 15.864 0.347905 -1.21465 0.32774 -0.646759 1.99733
276 H 12.8992 8.77612 10.6502 -0.424135 0.223638 -0.259185 -0.0509871
277 H 7.3068 3.62084 19.627 -0.759841 -1.27717 0.42726 -0.242221
278 H 10.2407 7.74775 10.4191 0.357754 -0.129351 0.694668 0.117146
279 H 5.03766 4.99331 9.73364 0.383355 -0.985797 0.823582 0.432266
280 H 15.8217 16.7204 20.4072 -0.180015 0.976963 0.809448 0.477579
281 H 10.7506 3.37545 11.6666 -0.631589 -0.00779993 -0.255015 0.802728
282 H 16.1423 9.87665 7.30443 1.34873 -0.976351 -0.687175 -0.235904
283 H 3.6819 20.4042 13.6682 0.418065 -0.344811 0.407149 0.505002
284 H 14.0687 9.40892 20.0615 -0.534031 -0.793086 -0.868513 0.0947423
285 H 20.8943 9.34738 15.1189 0.108987 -0.0760486 -0.298924 0.105689
286 H 7.07889 5.2451 18.6143 -1.6968 -0.105286 0.0357744 -0.0555914
287 H 12.4855 1.28521 17.467 -0.172702 0.312198 0.00701896 -0.0113509
288 H 10.5461 12.1514 20.3122 0.862741 -0.363647 -0.174187 1.74823
289 H 17.5783 16.9724 16.2673 0.685634 -0.571357 0.275839 1.24283
290 H 12.9145 13.4785 1.7099 0.87179 -0.170778 0.541911 0.900882
291 H 6.94105 17.0072 21.0122 0.287559 0.468999 0.282208 1.85383
292 H 15.2803 17.1637 2.82759 -0.326354 0.0798511 -0.944218 1.10299
293 H 2.7639 15.5767 1.90993 0.824055 -1.54487 0.682553 0.433025
294 H 14.5052 16.3398 15.4559 0.171085 -1.01432 0.621501 0.997821
295 H 7.92014 9.22589 20.2165 0.0184361 -0.041598 -0.108289 -0.252973
296 H 3.13778 20.2988 10.0197 0.830544 0.455706 -0.433192 -0.393966
297 H 11.8749 1.41858 4.92802 -0.478565 -0.302676 0.713611 0.479477
298 H 18.3161 1.87251 7.87678 -0.0685083 -1.59443 0.34293 -0.335292
299 H 9.61762 2.36843 4.13431 -0.25313 0.162789 0.236801 0.415443
300 H 8.88636 5.93144 18.5575 0.936453 0.985666 -0.0576052 -0.0967157
301 H 1.42745 19.2404 10.9984 0.363273 -0.207328 -0.477685 0.23243
302 H 21.1522 5.05305 20.6331 -0.791196 -0.236598 -0.6016 0.182421
303 H 11.5788 0.0723961 3.59695 -1.86097 -1.94307 1.02281 -0.222998
304 H 20.5444 5.73072 17.7677 0.581213 -0.491776 2.47487 -0.126914
305 H 18.1419 20.5737 3.04058 0.876541 1.3398 1.9818 0.220235
306 H 21.0008 6.30837 7.16478 -1.09529 1.10483 0.129777 -0.262954
307 H 12.557 3.79208 13.7049 0.891525 0.265465 0.032619 -0.0270092
308 H 15.4101 4.49124 6.02107 0.641365 0.113182 -0.209197 0.129473
309 H 9.90597 11.0159 11.9001 0.937284 -0.428077 -0.814964 0.0604939
310 H 2.75531 12.8182 14.1045 -1.32863 -2.76783 1.09038 -0.106348
311 H 19.8753 3.48247 7.18652 -2.54087 2.02669 -4.21086 -0.544441
312 H 10.4832 8.32406 20.8995 -0.354674 0.0534985 -0.364773 0.373292
313 H 3.14636 3.49416 5.13988 0.70925 0.278914 -0.62682 0.318096
314 H 15.3115 20.7283 2.85093 0.333434 -0.756297 -0.690321 0.0391829
315 H 16.7314 9.55755 11.1055 0.106353 0.111287 0.406633 -0.439168
316 H 20.2267 12.1066 0.588987 0.0968439 0.294144 0.510813 -0.267448
317 H 16.5903 14.0485 14.1835 0.443618 1.31143 -0.0543261 0.209234
318 H 0.0274622 10.4975 8.81289 -0.382721 0.314811 0.166837 -0.0960939
319 H 2.36324 4.17565 15.831 -1.16991 -0.129904 0.952159 0.605406
320 H 6.46796 18.7501 20.0117 -0.730665 -0.277191 0.425141 1.26176
321 H 20.4002 2.61463 8.89599 0.680221 -1.26383 0.615798 -0.378657
322 H 6.38704 12.0905 16.9523 0.072406 0.00615917 0.341803 0.246336
323 H 9.28664 1.9378 16.5866 0.255821 0.131762 0.104433 -0.0901741
324 H 17.1761 8.52803 2.18002 0.76475 -0.184343 1.68427 0.157226
325 H 13.9053 9.01968 1.38817 -0.292204 0.438338 -0.820903 0.431762
326 H 15.3035 6.57749 1.13689 1.07427 -0.0192271 -0.347111 0.0513628
327 H 20.3787 8.16398 16.9245 0.728178 0.641064 -0.49629 0.251547
328 H 0.43837 2.86605 5.53494 1.43327 -1.37628 -0.0871564 -0.212582
329 H 9.34458 10.7976 17.7844 -0.0342083 -0.422132 -0.755551 0.960622
330 H 17.6073 6.48061 12.0209 -0.0337547 0.917416 1.36999 -0.113677
331 H 5.08898 3.93715 20.0172 0.262464 0.030253 -0.804196 0.0346727
332 H 15.2581 17.4002 7.10002 0.82778 1.82593 0.295039 0.522147
333 H 14.471 11.6089 20.743 -0.263465 1.31366 0.349528 0.195502
334 H 16.793 18.3647 13.3582 1.40353 0.0108511 -0.819478 0.373128
335 H 18.6195 6.80251 17.8927 -0.43168 1.25747 -0.340098 -0.248662
336 H 1.66024 7.07922 10.9638 -0.256952 0.114871 1.23841 -0.0885194
337 H 0.30855 17.5709 3.85692 -1.31471 -1.02666 1.43545 1.27688
338 H 17.1835 5.33287 7.11414 0.19886 -0.125288 -0.0904709 -0.200905
339 H 9.63386 13.9249 20.4605 -0.982432 0.94249 0.715266 1.56485
340 H 5.55461 8.77591 5.30795 -0.600213 -0.282996 -0.00627404 1.14932
341 H 15.705 2.59251 6.28387 -0.896363 -0.795756 0.612839 0.0198117
342 H 12.9679 11.2458 18.2615 -0.986706 -0.182719 0.83722 0.28572
343 H 3.41427 8.74971 0.403112 0.199586 -1.37734 0.168101 0.276868
344 H 17.3769 19.3402 8.50491 -1.02793 0.303661 0.939157 0.167644
345 H 14.0886 7.74913 4.00978 0.144625 0.587993 0.784967 2.76704
346 H 19.6916 8.88278 6.38651 -0.193161 -1.00241 -0.252544 0.217169
347 H 6.74658 16.41 10.574 0.121045 0.26869 0.47124 0.165816
348 H 10.2225 13.2809 5.36512 -0.237269 -0.476668 0.0045499 0.204284
349 H 10.458 18.1925 10.4289 0.0405555 -0.221279 -0.352154 0.314781
350 H 2.6506 10.6576 6.60256 -0.058149 -1.6357 0.60689 -0.256752
351 H 11.6616 17.5302 0.485414 0.751389 -1.14056 -0.2196 0.378817
352 H 11.0398 11.1066 16.5315 -0.383893 -0.871202 0.286423 0.421493
353 H 7.48423 10.8981 15.8944 0.792776 -0.344071 -0.135716 -0.0680069
354 H 18.7001 7.84865 15.9604 0.374015 0.045247 -0.51426 -0.280577
355 H 6.94566 20.2191 16.1091 -0.454571 0.0842031 -0.0246756 0.402688
356 H 10.7567 9.44256 14.9262 -0.704253 0.830182 -0.251341 -0.480566
357 H 1.51439 0.761385 3.89846 0.401676 -0.917186 0.328578 0.0801364
358 H 5.55694 16.1738 18.0747 0.38169 0.985173 -0.626104 0.387387
359 H 17.428 20.5589 15.5921 -0.488656 0.435443 0.171987 0.250614
360 H 10.0321 9.51927 19.1067 -0.851627 -0.184959 0.337997 0.131014
361 H 15.0634 0.850898 0.444592 0.141213 0.0562305 -0.107608 0.0490994
362 H 15.4038 19.7472 7.14323 0.144779 0.410977 0.798912 0.426479
363 H 9.14892 9.4615 10.9266 1.13208 -0.485182 -0.00667052 -0.222909
364 H 9.74734 16.5023 6.69225 -0.253381 0.838211 -0.0626736 -0.0136188
365 H 8.94054 18.9772 9.37133 0.335169 0.566103 0.317706 0.419943
366 H 9.62721 11.0184 9.13873 -0.649411 -0.512598 0.292531 0.646296
367 H 17.9862 12.3977 18.0675 0.13748 0.178459 -0.500556 0.0311322
368 H 9.40451 5.95077 5.73309 -0.247834 0.615242 0.393226 -0.177741
369 H 11.6042 11.5438 11.5022 0.337707 -0.00679784 -0.97905 0.00527826
370 H 6.8297 5.42745 10.326 -0.0955187 0.0650209 0.291002 0.65043
371 H 2.57382 12.8982 3.64598 0.391597 0.887085 -1.4156 -0.0170724
372 H 14.2562 4.22653 2.63082 0.532134 -0.417564 -0.402334 -0.125205
373 H 5.95089 20.2306 2.19207 0.300849 -0.4434 0.688412 0.445862
374 H 13.6026 12.2903 9.23518 -1.28699 -0.13128 0.667822 0.135296
375 H 17.437 10.0806 18.8007 0.171108 -0.507633 -1.08584 -0.00640221
376 H 12.9012 7.90762 5.63932 -0.692514 -0.321034 0.030761 1.57848
377 H 18.7804 5.02521 15.6243 -0.927364 0.116502 0.462214 -0.470179
378 H 15.4225 5.54067 15.228 0.136132 -0.278721 0.28321 -0.0208235
379 H 11.5154 9.78835 12.8908 1.60246 0.177361 0.229475 -0.229765
380 H 16.3685 10.088 20.4061 -0.404091 -0.719288 0.253783 -0.0255063
381 H 16.9023 5.28891 13.9085 -0.248133 0.241014 0.0145327 -0.045594
382 H 20.1201 13.4995 8.87136 0.301903 -0.144967 -0.404737 -0.0924428
383 H 10.1655 19.7517 19.1298 -0.716529 -0.119992 0.156069 0.317943
384 H 13.3172 2.83433 8.05743 -1.19087 -0.163171 -0.105531 2.11852
385 H 13.6518 0.618761 3.54282 0.0813525 -0.31688 -0.276481 0.155777
386 H 11.509 0.98818 1.80333 -0.89694 0.362837 -0.749636 0.228005
387 H 2.78915 18.7821 6.29228 0.360585 0.159359 0.118765 0.619206
388 H 16.3987 12.7881 2.06209 0.0830516 -0.887685 -0.0508137 0.0381778
389 H 5.00907 16.8694 2.58732 -0.159387 -0.263707 0.119739 0.392172
390 H 2.34254 12.2458 1.45987 -0.661792 0.0769212 0.124231 -0.0256314
391 H 19.3543 20.4539 5.92973 -0.591758 -0.636831 0.12526 -0.0152752
392 H 18.0778 10.7757 2.70718 -1.16388 0.242789 0.460886 -0.484578
393 H 2.96476 9.63895 16.8353 0.246336 0.932402 0.0189897 0.12952
394 H 5.51683 14.3483 20.4467 0.743327 0.885546 0.446976 0.373929
395 H 9.00006 2.98055 14.475 -0.065722 -0.441252 -0.824109 -0.238582
396 H 10.9167 4.8581 19.0556 0.291765 0.619719 -0.576739 0.0542343
397 H 12.3155 8.22227 16.8896 0.58627 -0.414721 -0.82539 0.133244
398 H 12.214 10.3699 1.9355 -0.853741 -0.756028 1.39179 0.017558
399 H 11.9774 13.7791 13.4478 -0.354973 -0.919545 0.589792 0.151675
400 H 8.12451 20.8886 11.5188 0.336456 -0.955776 0.158181 0.436823
401 H 5.23846 10.8328 14.2111 0.0553411 0.451559 0.227157 0.166164
402 H 18.7823 1.25992 3.69389 -0.158087 0.428383 0.0934722 -0.273765
403 H 4.77175 16.7907 6.0134 0.316764 -0.372277 1.73952 -0.154823
404 H 10.1448 12.7157 3.40092 -0.362963 0.620917 0.10439 0.36483
405 H 12.3021 20.8166 15.7552 -2.08788 0.506319 0.0184275 0.0567109
406 H 9.148 11.0819 5.71476 0.484178 0.834445 -0.572291 1.50258
407 H 14.7716 10.6714 10.5094 -0.801205 -0.260399 0.14505 -0.335824
408 H 15.7395 1.28549 9.66156 -0.0436568 0.199927 0.457671 0.618968
409 H 2.41032 16.9662 15.1991 1.10564 0.912588 -0.36855 0.0381325
410 H 2.18969 16.4606 11.2221 -0.00483013 0.973803 0.658235 0.0336436
411 H 1.46243 14.4617 14.1489 -1.71579 1.35571 0.388002 0.231426
412 H 1.34536 17.652 10.1235 1.95493 -0.275238 -0.775645 -0.0216064
413 H 15.4911 19.8235 13.2481 0.108969 0.460119 -0.677297 0.321113
414 H 15.0731 12.0971 7.62374 0.121036 -6.0615 3.02129 -0.481691
415 H 20.0917 16.1492 16.465 -1.29432 -0.772006 -0.277614 1.04215
416 H 10.7489 2.4196 14.3578 0.323042 0.37748 0.522676 -0.141344
417 H 18.3791 4.89625 12.4422 -0.148131 0.1056 -0.624837 0.278099
418 H 1.87535 2.48181 4.3184 0.172007 -0.602714 -0.353306 0.528576
419 H 17.116 2.18904 18.2717 0.0110705 0.805853 0.0605333 0.375134
420 H 10.1204 14.9785 17.1435 -0.269322 1.1138 0.155489 0.407828
421 H 17.9298 10.4332 4.75524 -0.622827 -0.382454 -0.562692 0.104729
422 H 3.49979 20.5981 17.4638 0.276538 -0.563309 0.590106 1.06984
423 H 20.6935 6.10758 11.6428 0.718487 0.347518 0.0362991 -0.477512
424 H 3.85438 14.1896 16.6148 -0.332839 -0.989115 -0.544796 0.577525
425 H 19.0152 18.5089 19.1998 0.184949 -0.347196 -1.01666 2.69305
426 H 6.35244 7.3004 2.33303 -0.287934 -0.0984172 -0.0770611 0.480548
427 H 9.62513 5.12582 0.486374 0.704926 0.744692 1.02944 -0.437189
428 H 3.09843 7.06425 16.2135 0.151341 0.0724985 0.343902 -0.390433
429 H 10.5309 19.2937 8.09961 0.355158 -0.501584 -0.682162 0.225391
430 H 8.27491 17.8797 4.14334 -0.16768 0.670927 -0.0186289 0.308447
431 H 8.32984 6.02937 20.3886 -1.00808 0.711098 0.101181 0.08072
432 H 14.5043 8.92413 8.34142 -0.0338635 -0.336769 0.258326 0.117232
433 H 11.5696 6.65714 20.1094 0.505972 -0.431008 0.204878 0.00907798
434 H 6.43231 18.422 4.4022 -0.200553 0.554481 -0.711409 -0.117754
435 H 15.0515 3.15287 13.0892 -0.287801 0.319269 0.0319356 0.204072
436 H 15.8805 5.33129 9.17388 0.419602 -0.711058 0.0332864 0.313799
437 H 14.2244 16.81 10.9661 -0.563781 -0.561077 -1.67443 1.24306
438 H 6.19499 6.33587 16.9085 0.0159514 0.643236 1.33951 -0.105202
439 H 9.96416 9.12785 3.0006 -0.829943 0.752392 0.150691 0.368482
440 H 3.45045 6.46655 12.9868 -0.154879 0.593086 -0.376433 0.0113936
441 H 6.92101 12.1668 11.2616 0.0913355 -0.668072 -0.144064 -0.121183
442 H 12.6295 3.429 9.76943 0.689099 -0.253267 -0.343461 1.36157
443 H 19.7947 8.40722 18.6436 0.351567 0.576846 0.30299 0.00371133