LAMMPS (2 Apr 2025)
  using 1 OpenMP thread(s) per MPI task
#timer timeout 0 every 1
log ${rundir}/log_npt_${system}.dat append
log /u/vld/spet5633/Silicon/a-Si_potential/DFT_1200eV/Testing/Paper/l-SiH/1,000_structures/NVT_2.58/Hconc-50/6/log_npt_${system}.dat append
log /u/vld/spet5633/Silicon/a-Si_potential/DFT_1200eV/Testing/Paper/l-SiH/1,000_structures/NVT_2.58/Hconc-50/6/log_npt_SiH.dat append
