/u/vld/spet5633/Silicon/a-Si_potential/DFT_1200eV/Testing/Paper/surfaces/amorphous/anneals/1/cleaved_surface.data (written by ASE) 

2502 	 atoms 
2  atom types
0.0      42.803955704057834  xlo xhi
0.0      42.803955704057834  ylo yhi
0.0      41.395048984753593  zlo zhi


Atoms 

     1   2     0.77990223092953848      1.9321203558725766      10.761087155995702
     2   2     0.21062445031421123      3.4586195412352412      13.362533809701006
     3   2        2.37947591159964      3.0778017306688383      11.948468333414445
     4   2      2.8198722535813689      2.3370871126753738        14.1019375732931
     5   1       5.058805222185045      1.7063140928413167       11.99275060156843
     6   2      4.5818915017523318      3.0326090622709172      10.995616966725768
     7   2      6.0353137234040304      1.1292799888921381      13.224093975604216
     8   2      7.7549443314349116      1.8772145832916227      10.039151411253332
     9   2      8.1810350895052064      1.6908778481577733      12.398723659305015
    10   2      5.4239976716929954      4.1719400896954291      12.920882980864327
    11   2      8.2707910895523398      4.1482207488712497      10.233633648648436
    12   1      9.6527518210565546      1.5850432033087405      11.737609226861526
    13   2      11.705855655655489      3.0687051854422909      12.198104235343656
    14   2      11.303298969655414     0.86139923380696659      11.529266453826546
    15   1      15.953863648064445      2.0538774959570838      10.468978035670654
    16   2      15.049965291614882      2.4322123809164951      11.586377377752214
    17   2      13.296592576602109      3.6151694309293512      10.643994281565352
    18   2      14.557134032126992     0.47387150325226213      12.793128217857678
    19   2      18.105464461056499      1.8292964840275547      13.516067965450969
    20   2      18.191156165495713       4.093926200480241      13.192741405884441
    21   2      20.881092310473782      4.1212497714847096      13.693403943560787
    22   1      17.594249436220267     0.78703414136339422      10.370009504137638
    23   2      17.868464920241721     0.33785024763361909      11.748054590108685
    24   2      21.111477077439041      1.5622054923252375      10.086463678870045
    25   1      2.2256414848359776      4.5460734247728976       11.72330078248727
    26   2      3.1711612944250254       6.555457296702218      10.611750306582442
    27   2       4.226840757950006      6.1713224403664055      12.761153066197478
    28   2     0.35685401787178112      5.9650416205406813      13.434139108608537
    29   2     0.83956778900994999      6.3950910029693713      11.173189563494217
    30   2     0.33602514235712272      8.4369289907495322      13.925579493398899
    31   2      6.1404090830760598      7.2615602524151281      12.107659311408129
    32   2      7.6836074644967871      4.6027957915682416       13.35401401113668
    33   2      4.6901650116787703      8.4500847038856115      10.736630563357485
    34   1      8.4772638471730879      7.1946936616200787      13.485925812464419
    35   2      6.7107062982593897       5.890849336761403      10.326428095146888
    36   2      9.7283008993424787      4.4222866814460975       12.15288623229376
    37   1      8.7480560893190926      7.1179392984649414      10.695180977852349
    38   2      9.9129693697847614      7.5122971487662147      13.322736353206039
    39   2      11.426528114990861      5.9327291743965462      14.074956186613843
    40   2      12.398123445656335      6.9673208226821064      12.189462767591801
    41   2      10.252248040648068      7.1626159199592125      11.031965173562892
    42   1      10.652212799063717      8.3361688390677706      10.193075186356007
    43   2      13.629201125321055      5.9551753791117177       10.55859982075631
    44   2      15.895819019817358      4.3054560292550388       12.69382173262753
    45   1      15.672810490477067      5.4244797750247207      11.726917651946252
    46   2      14.901563541521861      7.9942458989712675      10.461739331454067
    47   2      15.882460642826008      7.3144709656422027      14.245649676504629
    48   1      17.563916596689282       6.443504205876275      11.908447856077021
    49   2      17.725823093545269      7.5515744877829922      12.879743874951179
    50   2       20.69726324398864      7.1265590524310802      11.150536295226283
    51   2      19.883637992257835      4.9274768444278187      11.745564100962804
    52   2      21.229350252423409      6.3204783205336872      14.220391124773936
    53   1     0.78763880285762178      10.504079382784198      12.322861970273603
    54   2      2.5383972163874455      11.872095577219813      11.391705931303964
    55   2      2.9919818416301531      9.6393736894855291      11.824625647771455
    56   2      2.4913684678693366      9.3208521266890649       14.06571884661961
    57   2      4.8295620730236042       12.03395325549857      11.257730796751428
    58   2      7.9870901828728433      10.051875458840881      11.276030284631801
    59   2      6.9160994377923313      9.1646464305815485       13.17669388186018
    60   2      5.4524018482512027      10.896181138944359      13.231857989501647
    61   1      8.2650723948922273      8.7999942367567545      10.525963052534635
    62   1      10.905781016930714      10.877343000057596      10.492441019180418
    63   2      10.653669914809724      9.6385831038009435      13.657802166664082
    64   2      9.9737685970365941      10.973062214647754      11.874344977067693
    65   2       12.76732443808149      9.1629247328966983      12.899233022213879
    66   1      16.532397199031081      10.271962580809017        12.2054841860403
    67   2      13.546263961519031      11.009161793158954       11.75269384877906
    68   2      15.555177640258604      10.154235639185563       11.09957209977652
    69   2      13.358906762990129      12.814345317362617      13.224109093188263
    70   1      17.298860979918874      20.102955633934741      27.552687853087058
    71   1      21.340091875052952      8.7603193046358196      13.319561336352956
    72   1      18.336792171504271      10.345738354569756      13.419896540510539
    73   2      20.279967756907961      10.913374411657431      11.863192605251443
    74   2      19.093158553693243      8.8584301566913357       11.50725302849203
    75   2      2.0353458801337161      12.941122755625337      13.369720687363076
    76   2      1.0389911026040237       14.86983216205066      12.603679245594867
    77   2      1.8746232663231239      16.667164747924925      11.300949815025209
    78   1      3.5690016452479192      16.152582463300895      13.763857742589142
    79   1      5.1111505635587529      13.440344983400342      11.680246198328728
    80   1       5.011020013824294      15.160463254428063      12.889714253565774
    81   2      7.8267004356617056       13.74701972887021      13.737810147689466
    82   2      6.4016260191399033      15.030981694792503      12.363841441723217
    83   2      5.9953861322481785      15.091718096173233      10.000000000000002
    84   2      7.3862619313114344      17.052378773562939      13.012705684920984
    85   2      9.6208074973354485       16.76186142733663      10.764629827819101
    86   1      12.195901755252828      15.762517329525835      13.934723298466665
    87   2      9.7523761937649684       13.19735405659751      12.520116801931476
    88   2      10.260546235096898      14.535048647336319      10.725129717815411
    89   2      12.498281896682913      14.641587165301281      10.168524592206355
    90   2      12.724895267465591       16.65846882710095      12.737355130013487
    91   1      15.003484866538999      15.688398517623497      14.043198147717543
    92   1      16.570086074510403      16.097341264722093       12.12183331193363
    93   2      13.886968523102528      14.705672219434652       11.97783259591365
    94   2       16.03426427059895      15.092451979499934      11.143572814053053
    95   2      16.831131615529586       13.03819729085229      13.707643115162229
    96   2      17.509175107694325      13.386735908778896      11.523943867415113
    97   2      19.797015037690269      13.269755589018319      11.891706656249189
    98   2      20.456389614083218      14.543189152516726      13.714070042096845
    99   2      2.7767565575536297      20.013702342176217      10.046974197275752
   100   2      18.708130401824118       19.43882072471256      30.565068080550471
   101   1      3.1186748358616243      21.218459970000609      10.915965561427104
   102   2      3.7070005509787936      18.202703699059658      11.271170888957084
   103   2     0.55902589343458264      20.195765095690867      10.663639721984991
   104   1     0.65066625597222028      20.988754571283245      11.923083293438346
   105   1      4.6958914061602144      20.630984251461104      13.083263524430663
   106   1      5.2674771225001136      20.632676812034806      10.639780697641319
   107   2      7.5717820258191173      17.842951832078779       10.82452840576541
   108   2      7.8136393824262571       19.94836679203614      12.475807783629547
   109   2      4.3851455789841518      19.193686386930796      13.309133593930436
   110   2      8.0382107174844819      20.014187483416123      10.084814822367658
   111   2      10.604696095970654      17.734411464828042      12.634282320183186
   112   2      11.872781175946781      20.134715756519714      13.755353890342807
   113   2      10.159823878672468      19.958406932434062      12.068109441149133
   114   2      9.4923269636330563      20.948986032238366      14.222831407175377
   115   1      12.646820186999802       17.18350575897675      11.254182240603898
   116   2      12.241750007371346      21.011237615059876      11.495146015185545
   117   1      12.744894877878416      19.967428149780904      10.544509301559044
   118   2      14.975083290724688      18.508010532535415      11.729727129897313
   119   2      13.643127627416778      18.528473392867113       13.75933409883924
   120   2      15.481337189560756      20.711978758079866      11.119658413757366
   121   2      20.979562976169976      20.405793967174112       10.09537064150676
   122   2      17.217002278832666      20.547675056079779      12.844174769765791
   123   2      17.266007145716895       18.27957764769149      11.974570393474281
   124   1      17.719474333515901      17.444629605613564      13.251401918708289
   125   2       19.48947139457692      19.903485539954406      14.221539086159435
   126   2      19.526017642720024       20.72875836614956      11.927610137465871
   127   2      17.740080285219207      20.996378778147616      10.198000149566932
   128   2      3.2421188666251015      2.8367132469290337      17.558312995446883
   129   2      3.5728529985499202    0.083211382706051079      14.675855641031838
   130   2     0.20326354189214338      1.2005342262607213      16.368019094615626
   131   2      2.0623800240437498      3.7867654822450008      15.791868979011349
   132   2      2.4720373134842317     0.76567481576613738      16.590241881234871
   133   2      5.4418588718279892      2.8801586173202893      16.905827026788891
   134   2      7.3050443732089381      2.1929152139460983      18.062277427856486
   135   2      8.2625826088739149       1.342281841077146      16.127554977205023
   136   2      5.0792312512054991      2.6318848645792623      14.633366576609555
   137   2      10.443311496966816     0.79500065625708194       16.56121688965889
   138   2      8.7451556846979681      2.8593832063260427      14.433841815166833
   139   2      10.747888187827865      3.9345740383786527      15.109994946100572
   140   2      10.855054875198627      2.0276813203653492      18.472500752412294
   141   2      11.700392579496505     0.50714089234695625      14.729525141341769
   142   2       12.46839633583286      2.6266397084241273       14.29501575347291
   143   2      13.603154387105519      3.0714991763529911      17.469604398170247
   144   1      16.864725599352191       1.744396394283092      14.343767311148726
   145   2      15.407809396816067      4.1796510373231737      18.327484100700232
   146   2      14.520438494272396      2.7201162893503747      15.362809136797818
   147   2      15.137682512191859     0.51733446688441109      16.107479258414426
   148   2       14.02353386253075     0.86430156892266985       18.14367381395018
   149   2      19.734325885667843      1.0021560462498218      14.935959380013008
   150   1      20.174822145998743      2.0165593666032278      15.919221420244369
   151   1       17.25024027433507      1.8668020410411537      17.829339763874813
   152   2      20.594669008375149      3.9365975140114888      16.926059681167789
   153   1      19.919169786444236       1.162780867916414      18.303434136195612
   154   2      3.4893384740857427      7.3280155130874984      14.608424729014239
   155   2       1.739341792175372      6.0295398815643884      15.324320320966226
   156   2     0.18413210312062944      6.4368705166398961      17.016858014561237
   157   1      4.1633887615038985      5.1525932531733654      15.806829267454152
   158   2      3.3033436829338045      6.9616256957838232      18.354514264373879
   159   2      5.5079998405723778      5.1631378950625084      16.455128793286946
   160   2       7.201217170072435      6.0025289719468704      15.094222642859219
   161   2      7.3995474115664335      8.3378542478104691      15.370964426383646
   162   2      5.1827777201274952       7.829105825201947        16.0737933329697
   163   2      7.3341937541669324      8.0115779287225966      17.802707340747496
   164   2      5.5742440105668694      6.5692300366661209      18.320681643622805
   165   2      8.4758886214731959      6.0324285218834746      17.004405254309592
   166   1      9.8681257840032508      6.4569460125789098      16.656271195921097
   167   2      11.839170609622439      4.5133157941529971      17.092395844552353
   168   2      13.106648487373347      5.9965866593388606      15.694179049552201
   169   2      16.850123915715891      5.0966099972849834      16.738293871734282
   170   2      15.150896975303366      5.0287256553429973       14.82009563902872
   171   2      16.678739199162454      7.4014116598796482      16.419045767472454
   172   1      13.424187262925129      7.7312172187373012       15.65802675854713
   173   2      15.634709077537977      8.0146731602538903      18.393096530811693
   174   2      19.055654138881696        6.87597061345779      14.653433765584044
   175   2      18.771792353198268      4.6636485582834073      15.458777130185297
   176   2      19.273341878252175      7.7449043326523581      18.334975202881864
   177   2     0.38464229377493564      12.152863381329002      14.865039805125452
   178   2       2.237174300326918       9.615399477334325      17.640999874405903
   179   2      1.1643351965236894       11.63060603236231      17.015999347029062
   180   2      3.9673380416619062      10.897791277422591      15.006640868672729
   181   2     0.12071350611099221      8.6731866928501109      17.525967354388264
   182   1       6.710853041658531      11.652494317439681      15.813929962713493
   183   2      4.4271061424546261       9.772926794764583      16.969911205417723
   184   2      7.3252261613202494      11.627161267285482      14.445636554088495
   185   1      8.8688922153302894      8.7185386458648821      15.467748481712258
   186   1      9.9054191352281347      9.1054090395020459      17.590375165494422
   187   1      11.641832297980233      9.2287346335164173      16.557217686414447
   188   2      9.2616637922984921      12.083221255390537      17.055446372923988
   189   2      9.6742196572234889       11.25786703919934       14.94803600831883
   190   2      12.118783613786205      9.9185261044119315      17.773005443407705
   191   2      11.428527809223432      12.126615257354333      17.856456827482567
   192   2      14.185150255214127      8.7526333943381225      14.598417883407294
   193   2      15.084269731932396      10.479266834477619      15.772500299167447
   194   2      14.354892594553331      9.8802715110703723         17.863062807376
   195   2      14.789031667016076      12.676817964526361       15.07134899160371
   196   2      18.163304558312674      11.369945620992972      14.474270303473361
   197   1      19.505944086383636      11.941058972104603      14.706219724524987
   198   2      19.030203104943965      8.5658242846093184      16.207217877539172
   199   2      17.344962957061036      10.216137235832079      16.252857568520454
   200   2      19.018542375432041      12.492714245352195      18.056880668540469
   201   2      17.396308600907037      10.987912725724147      18.471221889450465
   202   2      20.923209029013375      9.9303069325193096      15.846711003762005
   203   2      20.918493062985636      11.958536243146712      16.918929992666996
   204   2      3.5343747507566201      13.152209090829967      15.190750024492608
   205   2      3.8121927289501412      16.604115447058749      16.809135324120806
   206   2      2.0193693358377933      13.776934093756564      16.822830481213622
   207   2      2.6922857790703238      16.745040409402378      14.813317739964543
   208   2      3.3014603338563102      15.043738273919798      18.415712012203738
   209   1       1.090836744916178      16.303447391946253      17.615278149270495
   210   2     0.53832964234753056      16.086167699292865      14.463127249847346
   211   2      0.0100929602522913      14.296426676206442      15.780526610752339
   212   1      4.6551933011383735      13.987842121941204      14.701373428717059
   213   1      5.8074428893381747      15.253312835621273      14.982639793266179
   214   2      5.9204073665169821      16.380115632337041      15.954279018541925
   215   2      7.4847894618036097      15.431646997542087      17.395852858511326
   216   2      4.6219016127833408      13.312240575690597      17.632235147575607
   217   2       11.26656841931106      13.041690054563409      14.316565917427894
   218   2      9.3141510916017349      16.933575837636042      14.363578752233575
   219   2      8.7264281964890049      14.116099965167667      15.991377942077767
   220   2      10.599549549806255      15.173538112444058      15.142595345665072
   221   2      12.683931627848446      13.486099179653582      16.346114676910169
   222   2      12.293061541799958      15.877362405583007      16.530812343538738
   223   2      15.543197637918361      16.244604190666745      15.334159102722573
   224   2      15.759536274233874      14.259562218366154      16.515089101795319
   225   2      18.294440550929714      14.672326462637292      14.553269979508276
   226   2      18.051646202457412       14.14915364795106      16.783571516167346
   227   2      18.900010483266581       15.97646265009285      17.900166048293087
   228   2      17.772061079073904      16.916220549484315      14.901132263396775
   229   2      20.860273130323858      16.019394728879419      16.677694176937049
   230   2      20.953713643611906      19.108217068510459      30.932405606420676
   231   2     0.48023556432162057         19.558543659603      14.862931942401016
   232   2       2.781916400080144      19.103053609174356      14.946791545804565
   233   2      1.9041444047183134      19.279156066898821      18.338680373670726
   234   2      3.7650827958561091      18.877042740771497      17.094041854814229
   235   2     0.45238592358693336      17.480645591405125      18.233138363071603
   236   2       7.766969670104614      19.754165938586659      15.393530462939005
   237   2      6.1740354171206411      18.276295665651368      14.514149763498626
   238   2      5.4920770130281813      19.764305951946774      18.425355983690984
   239   2      6.6972883996765917       21.02934334160015      16.972484074161738
   240   2      8.4142031854706421      17.235649669187829      18.449999583561006
   241   2      9.0752609707881327      18.132037236660974      16.392742110268728
   242   1      11.690897404312979      19.417442965016473      15.566746928218816
   243   2      10.435956084698645      21.329955136875277      17.810450637180359
   244   2      10.960868632124644      19.274627984447719      16.899020721197211
   245   2      12.524241294097049      19.506404851691673      18.549141074237255
   246   2      15.699224717536179      19.610973562573186      14.386409746289939
   247   2      14.237606549011836      19.790157481949414      17.034478643871381
   248   2       13.84568006293931       17.65718926977237      15.948570576423169
   249   2      15.704194310420162       21.09251053058928      18.291185622480285
   250   1      16.763306647080221      18.120044503146939      18.069831470244175
   251   2      14.443066474524532       21.31126511217014      15.264587004320795
   252   2      17.613855740472829      19.913875725219693      15.673903175306034
   253   2      17.903058396335062      17.941076352135653      17.130912375457552
   254   1      19.392285639021683       20.29148318815054      16.932443536617782
   255   2      20.040676769468316      18.917797292192429       16.98955732559358
   256   2      20.135992280652371      17.689489416018016       14.95657183923646
   257   2      2.1778894321899971      1.8421339753308277      19.367246999840866
   258   2      2.0407913880671709      3.4293236097410529      21.107877852731644
   259   2     0.35703703578360962      1.1174764814535338      22.699815125474998
   260   2    0.068797008557401382      1.2250876174938592        18.6373604260604
   261   2      3.5588132289520997     0.34381328908877384      20.385518206222102
   262   2      4.7225018083504269      4.1225213300980892      20.701395618718422
   263   2      5.1532070168361335      1.9030306401346555      21.109860505245003
   264   2      6.8219454270566589     0.82353357541287275       19.95562439171767
   265   1      7.2214082072330594      4.1184013143813596      22.679980564847664
   266   1      9.4712871590385816      1.7256084569019312      18.989391310146942
   267   1      8.7661233929629212      3.3254503166167644      21.217025034106442
   268   2      8.8516895572411123     0.26457663849619062      21.028912150414072
   269   2      11.628101097594351      3.2648268418760584      20.423648174378936
   270   2      9.8226161834785675      2.3020360933007216      21.467826359951818
   271   2      12.018958204247159    0.062491445454000497      18.935892938818611
   272   2      16.782166137425914      2.4969919229218362      19.112105594326891
   273   1      13.058279493150687       2.811988867323457      20.353276119254346
   274   2      15.431795522534484      0.7736529362830179      19.965518418064931
   275   1      15.048545402164018      3.4985813351056927      22.304138529640749
   276   2      16.383580935717323      3.0566098078113146      22.820239302818745
   277   2      14.607057589161316     0.18032224484250042      22.147664131967453
   278   2      20.266239792296886      2.5367468001793161       18.74148487062962
   279   1      19.195616614305212     0.23180877458330282      20.837132241987476
   280   2      20.744523247274895      1.4675540998551972      22.819462270896782
   281   2      18.651251424886215      3.6575442815269876      19.837944659949429
   282   2      20.917692827508287     0.15628537217482646      20.956984562356027
   283   1      19.584781477955808      2.3249617977561057      22.394240627963494
   284   2       3.005453896982071      4.6798972186851335      19.068533743565794
   285   2       2.297733287593029      7.2485087923715819      20.391898053136654
   286   2     0.68404678173936484      5.1257484523879588      18.833817946540357
   287   2       2.091835365154135      5.5937494026495385      22.014333868461627
   288   2      4.1015387581141711      4.9273452557104997      22.817840303930762
   289   2      8.2515405468979228      4.2993345841374708      18.580491209645039
   290   2      6.4484504102935691      7.1042620817606021      21.544513492268372
   291   2      8.3666282422147624      7.1494460426242483      22.780659777999809
   292   2      6.5983298334469733      5.3100053322020555      20.017391443394828
   293   1      8.6434418197403069       6.394083691515104      20.099695411869728
   294   2      11.958708212006941      4.7953505836441996       22.14572278766423
   295   2      10.087084251275691      6.8047954920731923      19.902148752272744
   296   2      10.545321409360323      4.7299410610056194      18.973785929213232
   297   1      12.540622332176515      7.0809239651451055      20.225541549211147
   298   2      10.499782538087807      6.6376839598681707       22.15153915724845
   299   2       13.44367797746664      6.2585867132155091      21.100952896610316
   300   2      17.130044690652038      6.1795717529066136      20.836106668982641
   301   2      15.183882058413829       6.060113734514732      19.632254026473802
   302   2      13.994752336206036      7.6478808414526123      22.840323137715288
   303   2      18.237313368490856      5.6871404373365388      18.725428970784918
   304   2      20.665099528689048      7.0841696803436554      21.824017823035533
   305   2      21.106190391791095      7.2432985972869588      19.580262808380365
   306   2      17.583281488356505      8.3258399408935251      21.555167678036089
   307   2      18.031467585328514      4.3625384832009049      21.918182538355349
   308   1      2.3166237239835934      9.8313858814033015      19.161943931617664
   309   2       1.903089022442598      10.671171871447655      22.299425887299385
   310   2      2.0474654399798964      11.641168554395033      20.146743991045568
   311   2      3.1726285034502086      8.7991696328967564      21.788908793140742
   312   2      4.2395585235108273      12.152965184383747      19.590112674330001
   313   1      7.6367512069824723      9.6483788812681777      20.865767784631579
   314   1      4.8948397418065559      11.650709645130485      22.064176760370358
   315   2      5.3050298311763457      8.9791324360739111      20.784300389736732
   316   2       5.579027524075685      10.337955307508434      18.874459093002656
   317   2      5.6023819778046686      10.429155185752498      22.532910682185843
   318   2      7.5724740446909369      11.602477131894945      18.611030570614254
   319   1      6.7434780981432869      12.523644735867892      21.284604433195845
   320   2      9.2610302909076729      8.6877242602889364      18.860531516121757
   321   2      8.7414157880287018      10.432629206655918      20.237520852380484
   322   1      11.794619816758203       9.126327342430173      21.616085247895303
   323   1      11.621337546520316      9.2163442150619552      18.982370675583656
   324   2      9.5564557172066404      11.346340057559507      22.163579454197798
   325   2      11.692274495246538      12.261319862332977       22.17675287126535
   326   2      15.237331007305031      11.644752122235026      18.983346156703426
   327   1      13.832008421278026      9.5009918927496138      20.436863481361144
   328   1      14.823730481049047      11.545979747194359      20.412983490773101
   329   2       14.39859545292121      9.6396031128924786      21.800707868786318
   330   2      16.529172586093697      10.219437161144809      22.219265349848214
   331   2       17.56274600826271      12.165469385530455      21.443234590769109
   332   2      17.602389596303361      8.9105719934791967      19.353166323500826
   333   2      19.790950178265717      11.141189988541436      21.127299329031288
   334   1      20.284293181449481      11.698476392135527      22.429230087227957
   335   2      19.585730774974778      9.0917316975400055      22.340243906591539
   336   1     0.46278354474904254      14.490169980386138      19.364772251453068
   337   2      1.7069542760798195       14.88301879882245       20.13043052780991
   338   2      1.6139285693033794      13.279474212631518      21.760878390408983
   339   2      1.2383908145144296       16.65829763208697      21.535953570762238
   340   1      4.9812912654838755      15.438883532642119      20.750584571695562
   341   2      4.5389866043057925      16.547293962038335      19.798605983837476
   342   2      7.2282923375924693       15.48704925788183       22.26202233936224
   343   2      5.6959780391207193       13.56590616650387      20.926482208410874
   344   2      6.6273493348183825      13.744232131466893      18.724983095148673
   345   2       11.98963770907401       16.26855866642574      18.767727882526515
   346   1      8.6703976897167738      14.054076547306902      19.296341987982579
   347   2       8.838558582922202      13.675932009126234      22.415679445746278
   348   2      11.545560624781471      12.982397191800294       19.99702959860069
   349   2      9.6929081071916166      14.345747595479123      20.360795994819014
   350   2      10.050173164880054      16.611943109181542       20.01035811789561
   351   2      15.036589323995868      13.883917630798848      18.619468941569277
   352   1      14.313041922674477      14.121801680363067      22.496486998091164
   353   2      16.757639862884933      14.035318312277571      20.180088376632259
   354   2      13.146392201336566      14.547545337609854      19.697310418331238
   355   2      13.736917113064102      15.585516230357161      21.647495298944115
   356   2      16.020712877381957      15.708525509734589      21.599127002996138
   357   2      21.085510367187439      13.898402345559495      22.585571502242242
   358   2      19.983788501838507      13.259804246778929      20.001604023028712