LAMMPS data file via write_data, version 2 Apr 2025, timestep = 565000, units = metal

1000 atoms
1 atom types

-0.22793147936441116 27.112563397489836 xlo xhi
-0.22793147936441116 27.112563397489836 ylo yhi
-0.22793147936441116 27.112563397489836 zlo zhi

Atom Type Labels

1 Si

Masses

1 28.0855

Atoms # atomic

320 1 1.7093335134693501 1.557439979704296 5.4660122862973015 0 0 0
694 1 1.4062323213622985 3.431994355394443 3.929866827660523 0 0 0
34 1 0.4436235186518236 3.7302456112122178 1.9108430857570453 0 0 0
197 1 3.851840320336936 2.671665297075933 5.690150499415981 1 0 0
972 1 1.092586587272384 0.038110596439032585 0.24999326133742134 0 1 0
714 1 12.898081271727838 12.060973383911366 4.248262901393575 0 0 0
549 1 4.845981982368464 1.097419919446449 2.0983572619549413 0 0 1
354 1 4.673565412890322 3.001590691191788 3.486967866104464 0 0 0
967 1 5.963725405763351 0.3695215724968204 4.149978532099438 0 0 0
122 1 8.442633862765282 0.6895908707110886 3.977680380839516 0 0 0
943 1 8.435987954299952 4.059521981783608 6.206936589793601 0 1 0
655 1 5.910273807171984 2.052723978406048 0.20325280144397911 0 0 0
261 1 5.476719026241501 1.1393515395615073 6.4268658320005265 0 1 0
786 1 10.054475666297693 -0.12206484347640867 6.284478526834019 0 0 1
521 1 5.509908884327973 4.306777079772922 0.2754709266629093 0 0 0
126 1 8.92025560808006 4.1431022153119965 2.2120993953384627 0 1 0
312 1 9.083808711445327 2.895730471003168 4.201998342860925 0 0 0
379 1 8.97283379214941 0.19463061827159317 1.591525712628142 1 0 0
170 1 11.35531897152297 3.1038203840623764 4.548564101183475 0 0 1
256 1 12.320725832015519 2.211272247730253 2.745124043731431 0 0 0
859 1 11.195880652467904 0.5314685687249247 1.5681158501728096 0 1 0
128 1 13.248550992422194 3.7803612967511793 1.1045655824051215 0 0 1
258 1 12.747780748100423 2.808561999564054 6.26957970153189 -1 1 0
131 1 9.694981471958592 3.6340289008158617 -0.011161437224043697 0 1 0
129 1 9.547934732835985 11.109418386881371 -0.19962570494473642 0 0 1
526 1 3.1690365037566917 4.727492358031428 3.004285909085361 0 0 0
836 1 3.2867139342620417 4.855155880973472 0.6297836261129726 0 0 1
907 1 0.18790558489034997 5.141367892639471 4.809338946348683 1 0 1
346 1 1.7127049803037062 7.828762625262716 2.0096881916185256 1 0 1
49 1 3.1789231738677 8.662203320274253 3.4930473053282065 1 0 0
429 1 2.7368626301342056 7.00995262510057 0.13746767423268896 0 0 0
726 1 0.013300433545907958 6.163907238534403 2.6784991526858883 1 0 1
19 1 4.28698186909947 6.738091235724929 3.8662547323637186 0 0 0
638 1 6.577002030206542 4.266341183350326 2.3903984903739515 0 1 1
814 1 4.925584186684421 6.625472119037564 6.099213815135621 0 0 0
127 1 7.875582227746037 7.068893707271023 4.248938541593574 0 0 0
483 1 6.318873715049208 6.497866276968464 2.6173517712933854 0 0 1
419 1 6.650168909383082 7.849189819577328 0.8488110489469789 0 0 1
230 1 7.219357710277027 6.067689849285589 6.210844492405167 0 0 0
356 1 12.569666991946132 6.849665230455786 5.815171121988464 0 0 0
946 1 9.756374371504503 6.192124623228593 3.098041766185743 0 0 1
953 1 11.477102996053913 5.3838257959886935 4.164167910602986 0 0 0
281 1 10.82941778285182 8.0561202838409 2.079178124471928 0 0 0
407 1 13.04010627989921 7.860954175619199 1.8108284230011202 0 0 0
467 1 13.16919164383375 5.6593612823491855 2.4572471347853218 0 1 1
266 1 10.02058133850959 8.771326669810394 -0.04597326940279367 0 0 1
491 1 0.5933583495258066 9.784453231640246 1.1319635132573325 1 0 1
289 1 2.090285214905611 12.514390312156934 1.9026235644560212 0 0 0
671 1 1.7392430094818276 9.493555480518335 5.213589913715307 1 0 0
302 1 3.165615859267216 11.22170493243524 5.272797852430659 0 0 0
665 1 3.9367446127437935 12.013316873166666 3.2787177460917047 0 0 0
854 1 2.081396948994105 11.1234857862969 -0.039911993817432406 0 0 0
564 1 4.199144679611882 10.318710458141025 -0.014256659480692602 0 0 0
55 1 2.117546384256252 13.003541315385647 6.469472101226632 0 0 0
29 1 0.029976433111594536 11.401488324506653 2.6474662982664263 1 0 0
784 1 4.677418901459318 9.982947988966902 2.298741024047044 0 0 0
591 1 7.492670892687835 10.340698405890482 6.096573192702142 0 0 0
405 1 8.119247208766515 9.384741694627632 4.120522163692875 0 0 0
642 1 7.51855173282804 11.838240244653859 0.7846636024593314 0 0 1
860 1 8.14069994524046 12.542024235991313 6.065436764912284 0 0 1
980 1 6.965970202892005 9.793537619470264 2.075140974725876 0 0 0
579 1 10.543365002128779 9.568622995490239 3.813381016409828 0 1 0
931 1 11.678716063945112 9.093140611931982 5.808549117096598 0 0 0
840 1 8.989379369031083 13.2108498944344 4.0208862853968235 0 0 0
765 1 11.39187061579813 12.199216330061502 0.8968812042927208 0 0 1
41 1 10.745940980202224 11.940705810294952 3.3054857937767856 0 1 0
936 1 5.1461083959852 10.537099367916387 6.484805568155868 0 0 0
298 1 1.3126892132734393 1.8035458450282267 9.714332063639963 0 0 0
938 1 1.3671034635768242 2.842808262200805 12.932718903807267 1 0 0
535 1 3.4104309041502123 0.7471638273622714 9.738685603312906 0 1 0
487 1 1.5983017446236616 3.933257829330829 10.812919301567083 0 0 0
130 1 0.29449274005281356 1.158716026875801 11.765196264132816 1 0 0
146 1 0.2477456854907174 1.6722073394727976 7.444974727142515 1 1 0
648 1 5.158428243145787 1.7461035829798666 10.590519609796408 0 0 0
808 1 6.2638167337710815 3.28849552647282 9.21796722237612 0 0 0
518 1 5.070758908212672 2.8416024724003153 12.614510902897775 0 0 0
498 1 7.9586449035913525 3.2722708215079797 10.875151214307833 0 1 0
240 1 7.247231213864206 2.353043859951613 7.399875848789869 0 1 0
23 1 7.2586526885972695 2.406250987847001 13.015566052833133 0 0 0
856 1 7.519322209746642 0.019049047075301112 13.28063499093041 1 0 0
831 1 8.927987050148044 0.7682136829705397 8.131285625725088 0 0 0
14 1 6.800618606734405 0.1044249648033928 11.021223798095077 0 1 0
636 1 9.71870985125607 2.4685846627757946 9.551084435553213 0 1 0
838 1 10.999608210818694 2.4537863748905253 11.57125766042339 1 1 0
193 1 11.457404473311142 0.3323406446186764 12.279555826049378 0 0 0
789 1 12.79512376254327 3.887014396534026 10.308068761956193 0 1 0
359 1 9.998658691284124 4.3151179304814535 8.086733542504874 0 0 -1
81 1 12.212548300085261 4.164899108532247 8.161012112172973 0 0 1
806 1 12.480037088581128 0.5415011106713229 6.753836477645774 0 0 1
843 1 12.710663653415196 11.762020889727273 12.263061912152187 0 0 0
167 1 1.3651511737670758 6.000716918985592 6.771533405285828 0 0 0
914 1 3.448579534681273 4.869873871393657 6.893063272835866 1 0 0
414 1 0.32071558031954817 7.079858974890807 11.743446355407219 1 0 0
955 1 3.477411343225884 5.419733156139728 10.722608531698413 0 0 0
629 1 2.484326233284792 7.618997992664716 11.080920196062008 0 0 0
107 1 1.1321985364975107 8.360149851652633 7.223717734139671 0 0 0
315 1 11.319659406570057 11.532313632128298 8.608591445284421 0 0 0
13 1 4.49359818276084 8.541690418304674 7.492108055114043 0 0 0
409 1 4.844242816771465 5.085727062435344 12.51875807868199 0 0 0
392 1 6.794300326008352 6.452907578631606 12.455445530955018 0 0 0
182 1 4.832237721732845 5.231843421542253 8.864590777171246 0 0 0
285 1 8.025821532073712 7.294509739857574 7.994117805859661 0 0 0
603 1 5.934071577608211 7.29979115098432 8.99167989051168 1 0 0
675 1 6.1406381220094595 8.378668394112376 11.109534492788043 0 0 1
942 1 8.612784172906498 5.533149588272182 11.380854767459459 0 0 0
513 1 12.6534049283823 5.777582463310394 11.872611035458549 -1 1 0
824 1 9.690662527478182 6.333601904914707 9.497101363718262 0 0 -1
688 1 11.619615223502306 7.628240118773147 9.253333034837492 0 1 0
48 1 10.411033864881757 5.474691534609797 12.745462191728043 0 1 0
639 1 13.147542910213241 6.207565406889042 8.032429437671016 0 0 0
720 1 12.97915167110026 8.101185516153338 11.223816265762029 0 0 0
254 1 2.722258156024513 8.911009362484828 8.941171755063197 0 0 0
748 1 4.159270514469516 8.83697510105376 12.318784702492948 0 0 0
817 1 0.6728112606468089 12.64879980840506 12.82683697684504 1 0 0
156 1 2.5328680839673634 11.158506190905188 9.87209721883233 1 0 0
233 1 3.317480859133712 12.946328197148164 8.451991643867723 1 0 0
728 1 3.905429695636591 11.03613669851685 11.679093659811494 1 0 0
381 1 0.2963625133246611 11.921860704996979 10.492223104090277 1 0 0
572 1 10.787297074939273 9.380092960759825 7.961901369060149 0 0 1
969 1 5.427583984774833 12.256704521146059 8.050814207304622 0 0 0
654 1 6.766982805445031 12.152247743337208 9.946192722667522 0 0 1
509 1 7.648561096374695 9.896257891127085 10.251957672054775 1 0 0
64 1 8.521176242978232 9.480501438748366 7.959832781163616 0 0 0
819 1 5.923376595557551 12.39121528286254 12.003811958415648 0 0 1
998 1 7.679639079616645 11.655405065886939 13.36395094001215 0 0 0
178 1 13.322960539279993 12.600983082960207 8.022747914185594 0 -1 0
179 1 9.71381984365298 12.916519236066195 7.796442115684885 0 0 0
279 1 12.721151796320797 9.60075139204287 13.025808357240333 0 0 0
475 1 10.884292234471904 11.983768859787853 10.842756461537878 0 0 0
716 1 9.328949593755162 10.351704992153401 12.003142287620406 0 0 0
58 1 2.9352425798047714 12.523818799174279 13.27926127812233 0 1 0
161 1 2.7386959493426564 2.5571358586175115 16.304355802788265 0 0 0
920 1 2.8524073338042055 0.8648168165566881 17.89612916130431 0 1 0
466 1 3.2636627355728614 2.2348219901835233 14.080196359593646 1 0 0
234 1 0.45914686226934476 2.934890589889358 16.196334416523055 0 0 0
343 1 1.8708910526554994 1.954010696805124 19.82104522025967 0 1 -1
145 1 0.05536449619451361 4.194342307001089 14.10557937268158 1 1 0
821 1 0.08089746935864495 3.1920180454421576 19.61108704625518 0 1 0
651 1 3.3354408525583845 -0.16813739564990055 13.880132916977372 1 0 0
125 1 5.059059162986971 0.4027156511478691 18.68142680282829 0 1 0
386 1 6.115659030416404 2.6031910005258743 18.961830343425202 0 1 0
866 1 8.222687690311645 1.715946382753026 18.810890509201602 0 1 0
202 1 8.584470371128182 3.0870510835953295 14.790377528938714 1 1 0
480 1 10.092337812956977 9.329839525143637 19.379387827031426 0 0 -1
413 1 9.205990272362362 1.5539301188225896 16.583038616262844 0 1 0
908 1 10.984420029952915 2.8922103809284563 17.323491029138175 0 0 0
165 1 11.185723892818357 2.388804133873607 19.670874864936923 0 0 0
979 1 12.695764414874379 2.840285660983708 14.594318900560136 0 0 0
46 1 10.644961003517619 -0.017207655987967613 19.89935603639357 0 1 0
68 1 10.609236492662992 3.377861000522552 13.639823130245746 0 0 0
37 1 -0.12316162308981404 7.491877739862421 19.308797550353216 0 0 0
816 1 13.204891068134387 0.6954488986100303 13.629094807075898 -1 0 0
762 1 10.458923153033657 9.36712784605243 13.658189731954959 0 0 0
611 1 -0.08695250602249704 7.441039825222618 15.406627854912543 1 0 0
239 1 3.820635093978308 4.709967580429313 16.533667735335385 0 0 0
515 1 2.4494322249155047 6.219340812633764 17.93045332594175 0 0 0
538 1 3.729566434789411 5.92246723660001 14.472002205678516 1 0 0
104 1 0.09659261846532086 6.291949776515809 17.37788781403485 1 0 0
501 1 1.2332802291230252 6.19739596424397 14.001298898977483 1 0 0
701 1 2.823540908246413 8.51038534635174 17.812274127318933 0 0 0
593 1 10.823702403381901 12.662583018642627 15.523825693335318 0 0 0
583 1 4.326819875400405 8.241887241830796 14.62728111607277 0 0 0
28 1 6.079216303618977 4.590979127351658 17.44706639237442 0 0 -1
460 1 8.089495959068202 4.870871539684391 16.072453092953094 0 0 0
245 1 7.82436594006731 6.783179695868303 14.621905138832114 0 0 -1
33 1 6.994573922739365 6.2034679251124345 18.962321322054663 0 0 0
637 1 6.5274061532214835 8.531466308071359 15.620536411663686 0 0 0
777 1 6.796925766109952 8.45218113979243 18.14756244909711 0 0 0
919 1 9.17002029478758 5.458349003655394 19.411082684657508 1 1 0
621 1 9.99526342150405 5.025501917571279 17.301558711056856 0 1 -1
24 1 10.309814110866657 7.100756490895249 14.37129878626605 0 0 0
135 1 11.149654894227076 6.7561873401325885 16.53066771970591 0 0 0
10 1 13.339937992062739 6.21868402912219 17.23913132474919 0 1 0
555 1 1.3004949136232629 13.203287517123117 19.601756615428346 0 0 0
213 1 0.3498097311966386 12.842785206031431 17.492174742862353 1 0 0
132 1 3.4417053705697027 13.217608829440426 18.96966669229188 0 -1 0
559 1 3.6217321064087544 11.681158486519372 15.41224095319471 0 0 0
262 1 2.8101577475342534 9.591534119998256 15.760492221628507 0 0 0
307 1 1.2523806759266947 9.46538189192963 19.253366215467384 0 0 0
548 1 0.5138911657295223 9.64878661525408 15.699303058093227 1 0 0
756 1 2.511129347491335 13.191311051330706 16.746018605899934 0 0 0
441 1 4.6827945757916805 9.276729008980016 18.9444611879245 1 0 0
873 1 7.476775131817814 10.638706433281593 15.491475845110012 0 0 0
902 1 4.845278096015183 11.559301227680733 18.724828359584276 0 0 0
339 1 5.616286873145487 12.157500100063201 16.483193713683765 0 0 0
662 1 7.976042030209497 10.279473126700745 19.148489935233478 0 0 0
389 1 8.619911633891313 12.703308530234414 19.462268936962293 0 -1 0
590 1 10.812584225927635 8.86913592855077 17.15244154720512 0 -1 0
761 1 9.830501634534688 10.382997437314978 15.688926996900822 0 0 0
468 1 13.015718485857859 9.794497940431993 17.029782984451685 0 0 0
895 1 12.854933578944259 11.724332652176756 18.33829858975348 0 0 0
243 1 13.339670045687997 3.1721093838654038 20.26910308665517 0 0 -1
857 1 2.804612099204801 5.834544748766725 20.255663915580296 1 0 0
301 1 11.538155345417616 10.848980445302345 20.00085174053434 0 0 0
595 1 0.8091872860172735 1.6760162642096836 24.223359079540923 1 1 -1
380 1 2.067910682189118 1.451237698752629 26.088376543100388 1 0 0
763 1 0.7630253877246227 3.8399118555578475 23.52600343431413 0 0 0
91 1 3.3770479970836678 3.488880363620317 21.105191932471246 1 1 0
810 1 0.30299854130473025 0.5134275653800466 20.985837615041756 0 1 0
225 1 3.1548766102067916 4.231164253578357 23.413622117130377 0 1 0
297 1 3.9496645578552663 0.4421210313779901 22.290937967620046 1 0 0
44 1 1.6109064918612142 0.08542436156107858 22.74251245634486 0 1 0
341 1 4.4904844353687725 1.3883462100386745 25.713860770790163 0 1 0
490 1 7.039523544238462 0.1359869715270064 23.31403367273408 0 1 0
235 1 5.013667459417588 3.188874113663849 24.368613215245382 0 0 0
157 1 6.722285790928497 2.3903974827549574 22.878815715873845 0 0 -1
194 1 5.654625321916988 3.524682429903667 21.024597898031107 1 1 -1
635 1 8.585255100564149 0.3440484217645191 25.040605930268704 0 0 0
248 1 9.080616508053234 3.0799662104512286 22.707706962285563 0 0 -1
199 1 10.924375146171839 -0.1727990681571131 22.28118985269366 0 0 0
740 1 13.250387289224587 0.17239477534470715 22.400705798159947 0 0 0
73 1 12.020215980337591 1.9843627322531812 25.355561988035305 0 0 0
679 1 10.318149160191084 1.4395804620207389 23.866609726578343 0 0 -1
401 1 11.846071094230442 4.001654265983668 26.567235393567575 0 0 -1
88 1 13.414088115936826 3.825321647965528 22.60956003578355 0 1 0
512 1 12.532608242262619 0.4697547029377762 26.93372888864577 0 0 -1
18 1 9.337422507931715 3.2161770298673007 20.380933296082468 0 0 0
437 1 0.19100289513125152 8.05691063698815 22.447674694832113 0 0 0
220 1 0.6715265531463609 6.953319342237252 26.244614860235295 0 0 0
744 1 3.503231553861944 6.655143479694148 23.45998026609916 0 0 0
485 1 1.6125833717595242 7.853489113860386 24.19223073220461 1 1 0
393 1 0.7918020283395344 6.2964683644377875 21.065228629337543 1 1 0
684 1 0.02367466791933387 4.69338640402963 25.644712694280145 0 1 0
69 1 4.4114097427609655 6.879496543076097 21.55987047179993 0 0 0
507 1 6.173235368852277 5.042915333775835 25.499374707495022 0 0 -1
550 1 8.296838309861723 7.4468080591758925 26.414878917753253 0 0 -1
423 1 5.381878973719262 7.163521753943455 24.750559587433496 0 1 -1
984 1 8.302409627018177 6.744047877443666 22.450387937956684 0 0 0
241 1 6.467131007480704 5.841196738203151 21.321548785550597 0 0 0
75 1 7.527521470343926 8.154137245497159 24.29584509738376 0 0 0
53 1 8.509092347381443 5.305944076320472 25.844526407369916 1 0 0
171 1 4.679888841077136 8.088586781644036 26.873196409312545 0 0 0
983 1 9.832168607272568 7.337652397996972 20.784871979589585 0 0 0
618 1 9.687915863614665 5.163739318561851 23.71473319120795 0 0 -1
833 1 11.930867704227355 7.54685552819059 21.94107099192177 0 1 -1
842 1 12.592588917150131 5.891322672936753 25.51153182902354 -1 0 0
211 1 11.910151402975131 8.214874769709994 25.886429033918695 0 0 0
141 1 11.964184978632897 5.537267036667775 23.310842330730114 0 0 0
848 1 0.32548039819830055 12.21164693873698 21.475279948729685 0 0 0
444 1 1.387804268155386 10.060730597691572 21.578466081076048 0 0 0
168 1 2.255450470549288 10.085452994191536 23.935220770235453 1 0 0
134 1 0.9808871587527102 11.583261088629694 25.222736646260973 0 0 0
237 1 4.50222211914803 9.944790807916288 23.492084052175016 0 0 0
737 1 4.70639060064769 9.185898877247213 21.192570995042708 0 0 0
72 1 5.416517481759099 13.06467570625446 23.136274209195797 1 0 -1
465 1 5.595422543316547 12.006583912339558 21.02331878497912 0 0 0
39 1 7.796724448195093 10.299793098971772 23.35885235244392 0 0 0
456 1 6.803718497979369 10.01556846726336 21.230762687716403 0 0 -1
877 1 6.100316975639139 11.36664740520164 24.430316427867155 0 0 0
493 1 5.786181478924367 12.090798195696676 26.652900526176005 0 0 0
264 1 11.536180654508575 9.224901632123526 23.66744274411659 0 0 -1
433 1 9.67728178077439 12.341185759882055 25.136098860559994 0 0 0
823 1 10.228480968982915 12.35019242383081 21.34313058109478 0 0 0
45 1 10.007134115054821 10.946272581934524 23.370777063709323 0 0 0
666 1 1.6031062687806066 3.5388599438199067 27.047234428550333 1 1 0
739 1 8.211260349964427 1.6392702026119526 26.956221095095778 0 0 -1
664 1 2.366166721275207 14.665200399506034 1.4016488215645575 1 0 1
656 1 1.3928165940795607 15.674706280211037 3.4535489856666945 1 0 0
574 1 2.8363306399015418 14.836656039094233 5.050107213799869 1 0 0
27 1 7.189624673225676 24.123581822209463 6.525177152848228 0 0 0
316 1 0.9438559755881615 18.025151136669813 3.924378778704474 0 0 1
921 1 4.4170909140216805 15.549984300023187 0.9030172566181909 0 0 1
616 1 4.877910214761339 13.98545593779681 4.33712475917887 0 0 0
580 1 5.9176258727234785 15.13222038897659 2.7000022672116475 0 0 0
584 1 6.5106514134469435 17.189898795683796 3.667481438737832 0 0 0
699 1 6.12953598278113 17.872385371574673 5.791507035826895 0 0 0
294 1 6.1476753714584325 13.730141305705322 6.441280685131383 1 0 1
520 1 7.785976546315707 13.785269378185866 2.042808440539349 1 0 0
236 1 4.503177849090266 17.98134675680005 0.5093531463288433 0 0 0
162 1 8.864422292948888 17.04237471324876 4.285537900175092 0 0 0
646 1 9.089123063433673 15.046653938866935 0.32981766053980643 0 0 1
628 1 10.503148158920762 16.53655636479231 1.3219229026520336 0 0 1
42 1 10.28640755179752 15.141656187747031 4.692103105402676 1 0 1
845 1 11.83495253304521 15.854230142301287 3.1081162423683732 0 0 0
960 1 12.682237920341596 17.60370385072319 4.521339860890999 0 0 0
329 1 12.182566072291953 17.578437544102545 0.12450447176295865 0 0 0
722 1 13.060526296542799 13.572886116303264 5.9039926092093955 0 0 0
962 1 1.2334293701488905 19.631699666636532 2.3684356023567372 1 0 1
952 1 2.3030523634908806 21.37480101834723 3.412689703344053 0 0 0
273 1 2.315147456281957 19.0643521425992 0.3286332239132631 0 0 0
398 1 2.393008554183393 18.778724821826987 5.690013659280172 1 0 0
415 1 1.432722557034297 22.22819906695503 5.554751581012767 1 -1 0
332 1 8.525504635000017 18.371282170813046 6.189061296176307 0 0 0
780 1 4.552172502616686 19.623642847106346 5.375542034123233 0 0 0
90 1 4.760799692103045 20.508527621562624 3.287540185298473 0 0 0
443 1 5.927309001017143 18.877268253122615 2.122709717863557 0 0 0
105 1 8.343497643521578 21.481601510462173 3.521645161593618 0 0 1
26 1 8.12648336877629 19.736399085278517 1.9118356186675811 0 0 1
766 1 6.145344781190707 22.274405270986282 3.18381202974947 0 0 0
334 1 13.226045000281628 19.35383684416885 1.3875666640783824 0 -1 0
324 1 8.708601086214474 20.639918770565636 5.684585736822347 0 0 0
357 1 9.823979312164656 18.342737327254483 2.6433367576379907 0 0 0
284 1 11.877511002527196 19.380600751738505 3.363682065738678 0 -1 1
596 1 12.128169874546055 21.380163960805202 4.224549612825086 0 -1 1
153 1 13.285305442904368 21.176935581634613 0.06709062154191997 0 0 1
208 1 10.972390468336874 21.185680046519582 6.25295343341422 0 0 0
373 1 11.690762015400269 22.575331744187025 0.8806148436777996 0 0 1
554 1 3.3763418193543915 23.403597053575094 6.391657354982556 0 -1 0
864 1 3.12180660456802 26.993927524064873 1.332910831963415 1 -1 0
567 1 3.223416564578572 23.082628466283655 0.25964834931615816 0 0 1
910 1 1.6393801339682963 26.57497576960559 4.875094511320986 0 0 0
59 1 2.723370584441334 25.49960995261279 3.0843386962018116 1 -1 0
52 1 2.0126851615052677 23.348845049628146 2.255899619440179 1 -1 0
363 1 8.396600102447891 25.28608447613685 1.6780246170850681 0 -1 0
947 1 5.037350521033893 25.682021346716052 3.691581019843948 0 -1 1
1 1 5.369197067925511 23.664457563044365 4.988959909735041 0 0 1
844 1 5.99341683936449 25.22080746727343 1.7039694009706012 0 -1 0
781 1 5.487663777102437 23.01004692166631 1.149686622688064 0 0 1
447 1 10.647870668772667 22.674489888059025 2.9962731374207565 1 0 0
8 1 11.869417424348269 25.89152538677343 2.757846804537776 0 0 0
427 1 9.46925858557715 24.944718790305533 5.890390426494804 0 0 0
71 1 12.424242024086931 24.7151143621344 0.7816469448691361 0 -1 1
452 1 9.898153773450113 24.808865000553226 3.438426366250401 0 0 0
585 1 8.465175112159923 20.88445258371347 -0.12786425774680976 0 -1 0
35 1 13.225995401238105 24.049610960397008 6.57140917118969 0 0 1
598 1 3.2344163158185886 15.043198440977504 9.630140014707788 1 0 1
489 1 0.998342662995441 15.53630772514927 9.652804454062863 1 0 0
311 1 0.5262423813341426 16.633049807862147 11.54968011149063 1 0 0
893 1 0.28272401253334944 16.71299609326669 7.690226822920962 1 -1 0
292 1 4.173653570031571 16.662078053768056 8.131643958563169 0 0 1
83 1 2.675899047769442 17.587432180122956 11.853076860072294 1 0 0
257 1 0.2515814343378738 14.942326774998602 13.340510463847256 0 0 0
322 1 4.28085583593797 15.753173350570162 11.57408565190386 1 0 0
884 1 4.619156914662624 14.194430230038662 13.166446695650754 0 0 0
110 1 6.028773101256884 16.010615914537507 7.021020107208551 0 0 0
965 1 7.4979660445299485 15.824956469438945 8.795641703876225 0 0 0
210 1 6.381812099844164 16.494124725007055 10.90038338843003 0 0 0
185 1 8.124104007209585 16.76369333691737 12.42853298480452 1 0 0
425 1 8.217529372333924 13.836166216344822 9.36116384537973 0 0 0
686 1 9.071233019459855 17.583958457822607 8.075376294204412 0 0 0
807 1 10.03120414917032 13.984541865469247 10.934612342551752 0 0 0
286 1 12.321047528173803 16.878478184246287 11.963123875231112 0 0 0
594 1 11.1635258738178 16.54649228881907 7.994594562775175 0 0 0
351 1 11.681407089040832 15.573557850324654 10.122216939653724 0 0 0
177 1 9.436924502699927 14.841523001247143 12.975190684897438 1 0 0
835 1 12.829176350799539 17.811459725444745 6.905630064518098 0 0 0
172 1 13.2783861291576 26.965079277686815 8.913446034678241 -1 0 1
911 1 2.1070464668516093 21.059267458344664 8.927122388251538 1 0 0
809 1 2.920181478792434 19.42281047476288 10.230243569560232 0 0 0
282 1 3.909815107633002 20.489198929946955 12.161748281597186 1 0 0
223 1 3.9689963256781935 22.32366861003679 8.439939048500198 0 -1 0
690 1 1.1899278732182936 20.289444292580736 6.897876016247915 0 0 0
417 1 0.9323382066886503 22.345674220919225 10.460505630283803 0 0 0
321 1 4.676111218213586 18.9213685099048 8.77711886462181 0 0 0
180 1 6.190887654385685 20.50101447281242 11.88155566863126 0 0 0
542 1 5.145804786995404 20.65391680495926 7.290644447408355 1 0 0
510 1 6.505910768920135 18.62021887652617 10.237399791439897 0 0 0
828 1 7.2954723080884545 21.63248148447106 7.183292171325382 0 0 1
730 1 8.579012069105135 21.619334529546148 9.1557308838335 0 -1 0
426 1 7.023551999876375 22.356639317588662 10.897624710372563 0 0 0
149 1 8.69978872614637 19.2852692559142 9.58509143247405 0 0 0
876 1 9.650056532433505 25.120874374017692 10.334540065455947 0 0 1
619 1 12.783738073822018 20.323399736358656 9.891699582818303 0 0 0
779 1 11.601673627894924 18.991585190511465 11.615094856403669 0 0 0
481 1 12.723407503062967 20.135070930219317 7.655825995848463 0 0 0
898 1 9.36323576572955 18.808629193475152 11.716671512819453 0 -1 0
173 1 2.6559785089529355 22.45989687288892 12.155238194785593 1 0 0
30 1 0.2041883766477437 24.59750326921237 10.093416297538864 1 0 0
383 1 0.9256767739394784 26.029815202391895 11.673014309907925 0 0 0
738 1 3.378095261344867 26.447405485300397 11.651710959425408 0 -1 0
166 1 0.36738706663374776 25.362085416249116 7.953054598611461 1 -1 0
418 1 2.526507337656346 25.63000233497976 6.810292866315648 0 -1 0
370 1 4.334923144277053 26.792302971048237 7.865370605330455 0 -1 1
758 1 4.164203157075007 24.204263764009067 11.74074469993377 0 0 0
692 1 6.142680848591479 25.153504806102912 8.332177941030832 0 -1 0
818 1 8.023909139559862 26.31884144920936 9.398456189748133 0 0 0
164 1 5.380841606361384 23.63642772245281 9.890675728270075 0 0 0
609 1 7.358686151101647 23.421362366737018 13.032106360456542 0 0 0
966 1 11.722341263905813 26.17915418619706 10.66227175631206 0 -1 0
775 1 11.955251952243664 22.33382926062539 10.54283550518233 0 0 0
500 1 10.399151329110797 23.129839744276527 9.178391056916503 1 -1 0
900 1 10.984418505746026 23.481140759435952 6.990918857345235 0 -1 0
11 1 11.032841149507385 22.505491767231398 12.716398491668357 0 -1 0
188 1 13.329415919894089 24.271343480241814 10.768423290260753 0 -1 0
438 1 9.45515193970935 24.387875995225873 12.619771574907617 0 -1 0
927 1 2.401270205856382 16.757973256447197 6.6904511566002975 0 0 0
308 1 7.964487574561824 19.81420914465315 13.2697165294344 0 -1 0
445 1 11.060980706738397 14.510772766803049 6.790772441882902 -1 0 1
16 1 2.723722013016972 16.899714142503626 18.55840888803228 0 0 0
608 1 2.592526906403468 15.50504235781829 16.52120163115441 0 0 0
461 1 0.80285699966077 15.934240093604942 15.414084975691317 0 0 0
136 1 1.4001533142773293 15.48660997853593 19.97043276991673 0 0 0
973 1 12.936085743451681 23.222998594962508 14.067887970397212 0 0 0
553 1 4.645459654677899 15.508180145631208 15.124454209346156 0 -1 0
247 1 6.005045969716018 14.614270696547766 16.717094921135644 0 0 0
725 1 5.338586100097768 14.762664231077755 18.91043562137502 0 0 0
138 1 4.890013329739315 16.911852452326695 19.356170935813516 0 0 0
768 1 8.334018188753614 14.819694282132684 16.432842216680893 0 0 0
434 1 5.106005702015944 17.77820820931597 14.790997969657294 0 0 0
918 1 7.401750730617775 17.961487882652794 14.271085192304575 0 0 0
336 1 11.720281966663906 23.514618154270952 19.70188025404225 0 0 -1
86 1 8.920204779658501 17.045041743737613 15.896957396440403 0 0 0
114 1 9.615123831974815 16.477591579265614 19.41598121486185 0 0 0
622 1 9.577246580775457 14.34388795246179 18.298044458671882 0 -1 0
820 1 11.291944644351032 16.940380003321412 15.634552099138407 1 0 0
813 1 12.55446500927876 15.509366122420758 17.169046327006463 0 0 0
265 1 12.01390920763854 16.44714868421795 19.08745543342701 0 0 0
560 1 11.491183180318867 15.654254851219463 13.749321942125666 0 0 0
755 1 11.65301950327309 13.554794253998969 17.44739958335817 0 0 0
916 1 0.5594399905864933 21.560361808742773 14.613684180373662 1 0 0
218 1 2.9892567688040335 19.871022754215993 17.162845363466513 0 0 0
270 1 1.9339785254260735 19.004892623706187 18.931239579288754 0 0 0
93 1 1.681057887625102 19.575935813464216 15.183114738538599 0 0 0
212 1 2.8239661727285625 22.24195783820161 17.457570097570397 0 0 0
982 1 3.35287700095101 18.867740399981766 13.748076655524244 0 0 0
992 1 8.556430351630455 18.044469590621627 18.121884742368298 0 0 0
799 1 6.338710226745217 18.474934340440317 18.493233362943055 0 0 0
773 1 5.234166116487444 19.26296894677841 16.610532185805646 0 0 0
673 1 7.975944920259602 21.759048665113948 14.617180866126118 1 0 0
950 1 5.953704075751961 21.47739348826176 15.942930676205435 0 0 0
20 1 6.531440917028907 20.45164657429009 19.680975837497474 0 0 -1
988 1 6.253396363508784 22.3847405149771 18.37063691893332 1 -1 0
917 1 8.87706616792494 20.753622855203513 20.15762685813778 0 -1 0
96 1 9.557583081956711 20.281742176135914 17.973906324142924 0 0 -1
397 1 12.755025462316244 18.677619276040367 19.137986394523658 0 0 0
385 1 12.431796019426239 19.043143544213418 15.64052394528646 0 -1 0
660 1 11.802388282004902 20.11919545193874 17.675318145718748 0 0 -1
586 1 9.472724187994814 22.167710641664986 16.343582395714815 0 0 0
721 1 11.983680853634558 20.347645033311316 13.573330135778995 0 -1 0
849 1 12.60853849185984 22.4170974745469 17.85348427649778 0 -1 0
295 1 0.6794977041609395 22.804042864298886 18.211936691093978 0 0 0
3 1 1.9928701179593142 23.305332886265674 14.237625672452275 0 0 0
727 1 2.0581618715375236 26.10722336361151 17.21002125480866 1 0 0
961 1 0.14438762845065833 25.209351233436582 18.099940944074337 1 0 0
391 1 1.362694317328908 26.778961113093562 15.205935659488885 1 -1 0
924 1 4.090494143567862 24.958369942892926 17.08427598419676 1 0 0
681 1 12.574242496314968 13.446616741622888 14.045263426517842 0 0 0
552 1 4.137421457405841 23.308687630479568 15.525628697091365 0 0 0
422 1 4.29692166376708 23.445144724798812 18.86686563667618 0 0 0
796 1 5.374503817168763 24.510020421457913 13.786410253702972 0 0 0
565 1 5.636690007439294 26.684686577129938 14.533939035599142 1 0 0
997 1 8.315860189650328 23.376479238527047 18.099551942960545 0 0 0
685 1 8.018588873685186 25.57118261401372 17.504126090791768 1 -1 0
327 1 5.912875139324379 26.511232028572792 16.83252775193198 0 0 0
74 1 11.569005749769047 25.63343642836544 16.732385279151174 0 0 0
634 1 9.60669122246442 26.614735161198567 15.974828188044391 0 0 0
47 1 11.647634080807718 23.43206278461719 16.133792834278125 0 0 0
872 1 11.923676368419763 25.75611154555939 18.948401219029943 0 0 0
805 1 9.585848381163043 26.63132784253739 13.647009170808992 1 0 0