 vasp.6.5.0 16Dec24 (build Jan 20 2025 08:32:48) complex                         
 executed on        HPECrayEX_GCC date 2025.07.22  13:01:30
 running  128 mpi-ranks, with    1 threads/rank, on    1 nodes
 distrk:  each k-point on  128 cores,    1 groups
 distr:  one band on NCORE=  16 cores,    8 groups


--------------------------------------------------------------------------------------------------------


 INCAR:
   SYSTEM = a-Si SPC
   NCORE = 16
   ISTART = 1
   ICHARG = 1
   ISPIN = 1
   ISYM = 1
   EDIFF = 1E-6
   NELM = 150
   EDIFFG = -0.01
   NSW = 0
   ISIF = 2
   IBRION = -1
   PREC = Accurate
   ENCUT = 1200
   KSPACING = 0.23
   KGAMMA = .TRUE.
   METAGGA = SCAN
   LASPH = .TRUE.
   LDIAG = .FALSE.
   LMIXTAU = .TRUE.
   ADDGRID = .TRUE.
   ALGO = Normal
   ISMEAR = 0
   SIGMA = 0.1
   LORBIT = 11
   NEDOS = 2000
   LWAVE = .FALSE.
   LCHARG = .FALSE.

 POTCAR:    PAW_PBE H 15Jun2001                   
 POTCAR:    PAW_PBE Si 05Jan2001                  
 POTCAR:    PAW_PBE H 15Jun2001                   
   SHA256 =  030f79b5d3ab3cf0e668861823c8fb652ff669f3e15e46930bd03bfd63a607b6 H/POTCAR              
   COPYR  = (c) Copyright 15Jun2001 Georg Kresse                                                    
   COPYR  = This file is part of the software VASP. Any use, copying, and all other rights are regul
   COPYR  = If you do not have a valid VASP license, you may not use, copy or distribute this file. 
   VRHFIN =H: ultrasoft test                                                                        
   LEXCH  = PE                                                                                      
   EATOM  =    12.4884 eV,    0.9179 Ry                                                             
                                                                                                    
   TITEL  = PAW_PBE H 15Jun2001                                                                     
   LULTRA =        F    use ultrasoft PP ?                                                          
   IUNSCR =        0    unscreen: 0-lin 1-nonlin 2-no                                               
   RPACOR =    0.000    partial core radius                                                         
   POMASS =    1.000; ZVAL   =    1.000    mass and valenz                                          
   RCORE  =    1.100    outmost cutoff radius                                                       
   RWIGS  =    0.700; RWIGS  =    0.370    wigner-seitz radius (au A)                               
   ENMAX  =  250.000; ENMIN  =  200.000 eV                                                          
   RCLOC  =    0.701    cutoff for local pot                                                        
   LCOR   =        T    correct aug charges                                                         
   LPAW   =        T    paw PP                                                                      
   EAUG   =  400.000                                                                                
   RMAX   =    1.123    core radius for proj-oper                                                   
   RAUG   =    1.200    factor for augmentation sphere                                              
   RDEP   =    1.112    radius for radial grids                                                     
   RDEPT  =    0.926    core radius for aug-charge                                                  
                                                                                                    
   Atomic configuration                                                                             
    2 entries                                                                                       
     n  l   j            E        occ.                                                              
     1  0  0.50        -6.4927   1.0000                                                             
     2  1  0.50        -3.4015   0.0000                                                             
   Description                                                                                      
     l       E           TYP  RCUT    TYP  RCUT                                                     
     0     -6.4927494     23  1.100                                                                 
     0      6.8029130     23  1.100                                                                 
     1     -4.0817478     23  1.100                                                                 
  local pseudopotential read in
  atomic valenz-charges read in
  non local Contribution for L=           0  read in
    real space projection operators read in
  non local Contribution for L=           0  read in
    real space projection operators read in
  non local Contribution for L=           1  read in
    real space projection operators read in
    PAW grid and wavefunctions read in

   number of l-projection  operators is LMAX  =           3
   number of lm-projection operators is LMMAX =           5

 POTCAR:    PAW_PBE Si 05Jan2001                  
   SHA256 =  79d9987ad8750f624c4d6acb2a16d13abf6a777132adc04dc6c8399be72b42bb Si/POTCAR             
   COPYR  = (c) Copyright 05Jan2001 Georg Kresse                                                    
   COPYR  = This file is part of the software VASP. Any use, copying, and all other rights are regul
   COPYR  = If you do not have a valid VASP license, you may not use, copy or distribute this file. 
   VRHFIN =Si: s2p2                                                                                 
   LEXCH  = PE                                                                                      
   EATOM  =   103.0669 eV,    7.5752 Ry                                                             
                                                                                                    
   TITEL  = PAW_PBE Si 05Jan2001                                                                    
   LULTRA =        F    use ultrasoft PP ?                                                          
   IUNSCR =        1    unscreen: 0-lin 1-nonlin 2-no                                               
   RPACOR =    1.500    partial core radius                                                         
   POMASS =   28.085; ZVAL   =    4.000    mass and valenz                                          
   RCORE  =    1.900    outmost cutoff radius                                                       
   RWIGS  =    2.480; RWIGS  =    1.312    wigner-seitz radius (au A)                               
   ENMAX  =  245.345; ENMIN  =  184.009 eV                                                          
   ICORE  =        2    local potential                                                             
   LCOR   =        T    correct aug charges                                                         
   LPAW   =        T    paw PP                                                                      
   EAUG   =  322.069                                                                                
   DEXC   =    0.000                                                                                
   RMAX   =    1.950    core radius for proj-oper                                                   
   RAUG   =    1.300    factor for augmentation sphere                                              
   RDEP   =    1.993    radius for radial grids                                                     
   RDEPT  =    1.837    core radius for aug-charge                                                  
                                                                                                    
   Atomic configuration                                                                             
    6 entries                                                                                       
     n  l   j            E        occ.                                                              
     1  0  0.50     -1785.8828   2.0000                                                             
     2  0  0.50      -139.4969   2.0000                                                             
     2  1  1.50       -95.5546   6.0000                                                             
     3  0  0.50       -10.8127   2.0000                                                             
     3  1  0.50        -4.0811   2.0000                                                             
     3  2  1.50        -4.0817   0.0000                                                             
   Description                                                                                      
     l       E           TYP  RCUT    TYP  RCUT                                                     
     0    -10.8127223     23  1.900                                                                 
     0     -7.6451159     23  1.900                                                                 
     1     -4.0811372     23  1.900                                                                 
     1      2.4879257     23  1.900                                                                 
     2     -4.0817478      7  1.900                                                                 
  local pseudopotential read in
  partial core-charges read in
  partial kinetic energy density read in
  atomic valenz-charges read in
  non local Contribution for L=           0  read in
    real space projection operators read in
  non local Contribution for L=           0  read in
    real space projection operators read in
  non local Contribution for L=           1  read in
    real space projection operators read in
  non local Contribution for L=           1  read in
    real space projection operators read in
    PAW grid and wavefunctions read in

   number of l-projection  operators is LMAX  =           4
   number of lm-projection operators is LMMAX =           8

 -----------------------------------------------------------------------------
|                                                                             |
|               ----> ADVICE to this user running VASP <----                  |
|                                                                             |
|     You have a (more or less) 'large supercell' and for larger cells it     |
|     might be more efficient to use real-space projection operators.         |
|     Therefore, try LREAL= Auto in the INCAR file.                           |
|     Mind: For very accurate calculation, you might also keep the            |
|     reciprocal projection scheme (i.e. LREAL=.FALSE.).                      |
|                                                                             |
 -----------------------------------------------------------------------------

 -----------------------------------------------------------------------------
|                                                                             |
|               ----> ADVICE to this user running VASP <----                  |
|                                                                             |
|     You enforced a specific xc type in the INCAR file but a different       |
|     type was found in the POTCAR file.                                      |
|     I HOPE YOU KNOW WHAT YOU ARE DOING!                                     |
|                                                                             |
 -----------------------------------------------------------------------------

  PAW_PBE H 15Jun2001                   :
 energy of atom  1       EATOM=  -12.4884
 kinetic energy error for atom=    0.0000 (will be added to EATOM!!)
  PAW_PBE Si 05Jan2001                  :
 energy of atom  2       EATOM= -103.0669
 kinetic energy error for atom=    0.0001 (will be added to EATOM!!)


 POSCAR:  H Si
  positions in cartesian coordinates
  No initial velocities read in


 exchange-correlation table for SCAN
   RHO(1)=    0.500       N(1)  =     2000
   RHO(2)=  100.500       N(2)  =     4000



--------------------------------------------------------------------------------------------------------


 ion  position               nearest neighbor table
   1  0.879  0.195  0.008-  31 1.54
   2  0.447  0.257  0.549-  11 1.52
   3  0.425  0.449  0.340-   8 1.49
   4  0.166  0.743  0.573-  54 2.33  19 2.34  30 2.34  14 2.70
   5  0.519  0.923  0.142-  48 2.36  39 2.40  37 2.41
   6  0.115  0.697  0.992-  54 2.29  22 2.30  24 2.35  17 2.56
   7  0.651  0.608  0.766-  65 2.23  42 2.36  27 2.50  67 2.54
   8  0.339  0.416  0.414-   3 1.49  11 2.35  47 2.42  50 2.56
   9  0.960  0.252  0.391-  49 2.30  72 2.38  23 2.46  29 2.56
  10  0.898  0.495  0.900-  12 2.36  65 2.39  43 2.39  55 2.40
  11  0.356  0.257  0.462-   2 1.52  69 2.30   8 2.35  61 2.37  16 3.12
  12  0.982  0.565  0.698-  54 2.27  46 2.36  10 2.36  20 2.38
  13  0.324  0.105  0.945-  44 2.35  16 2.36  39 2.43
  14  0.087  0.840  0.343-  34 2.29  63 2.38  24 2.50   4 2.70
  15  0.399  0.858  0.753-  40 2.26  19 2.30  39 2.35  58 2.42
  16  0.282  0.104  0.682-  21 2.25  13 2.36  61 2.37  69 2.38  11 3.12
  17  0.961  0.677  0.133-  43 2.31  35 2.34  63 2.36   6 2.56
  18  0.523  0.733  0.475-  71 2.32  40 2.39  60 2.42  27 2.42
  19  0.258  0.869  0.635-  15 2.30  21 2.33   4 2.34  36 2.45
  20  0.040  0.426  0.588-  62 2.37  12 2.38  28 2.46  49 2.50
  21  0.169  0.999  0.690-  16 2.25  19 2.33  66 2.37  34 2.40
  22  0.227  0.587  0.025-   6 2.30  38 2.42  50 2.44  52 2.44
  23  0.950  0.088  0.457-  53 2.25  25 2.31   9 2.46  34 2.55
  24  0.142  0.849  0.069-  45 2.28   6 2.35  66 2.37  14 2.50
  25  0.885  0.100  0.700-  23 2.31  31 2.31  51 2.37
  26  0.813  0.998  0.066-  53 2.23  37 2.32  51 2.52
  27  0.489  0.619  0.671-  58 2.38  18 2.42  47 2.42   7 2.50
  28  0.080  0.461  0.318-  50 2.25  72 2.40  43 2.43  20 2.46
  29  0.132  0.212  0.389-  70 2.24  72 2.27  69 2.43   9 2.56
  30  0.265  0.636  0.459-  50 2.31   4 2.34  71 2.36  47 2.40
  31  0.930  0.221  0.857-   1 1.54  55 2.28  25 2.31  56 2.40
  32  0.721  0.545  0.192-  65 2.25  57 2.33  60 2.50
  33  0.644  0.877  0.775-  67 2.32  37 2.33  68 2.35  40 2.40
  34  0.091  0.984  0.447-  14 2.29  70 2.33  21 2.40  23 2.55
  35  0.830  0.720  0.995-  41 2.31  17 2.34  65 2.38  59 2.48
  36  0.330  0.867  0.379-  71 2.30  45 2.30  48 2.41  19 2.45
  37  0.667  0.941  0.019-  26 2.32  33 2.33   5 2.41  41 2.58  67 3.07
  38  0.268  0.472  0.835-  47 2.41  22 2.42  62 2.46
  39  0.391  0.953  0.973-  15 2.35  45 2.38   5 2.40  13 2.43
  40  0.520  0.882  0.592-  15 2.26  18 2.39  33 2.40  48 2.43
  41  0.717  0.787  0.145-  35 2.31  60 2.38  37 2.58  64 2.61  67 2.63
  42  0.746  0.681  0.581-  46 2.35   7 2.36  68 2.37  60 2.54
  43  0.956  0.518  0.157-  57 2.26  17 2.31  10 2.39  28 2.43
  44  0.170  0.111  0.027-  70 2.35  13 2.35  66 2.40  56 2.50
  45  0.296  0.854  0.120-  24 2.28  36 2.30  39 2.38  52 2.45  71 3.03
  46  0.891  0.629  0.499-  42 2.35  57 2.36  12 2.36  63 2.45
  47  0.352  0.531  0.615-  30 2.40  38 2.41   8 2.42  27 2.42
  48  0.457  0.972  0.381-   5 2.36  36 2.41  40 2.43  61 2.44
  49  0.884  0.371  0.508-   9 2.30  55 2.41  57 2.46  20 2.50
  50  0.222  0.523  0.285-  28 2.25  30 2.31  22 2.44   8 2.56
  51  0.930  0.973  0.855-  25 2.37  66 2.42  59 2.43  26 2.52
  52  0.350  0.695  0.091-  71 2.27  58 2.33  22 2.44  45 2.45
  53  0.836  0.023  0.318-  26 2.23  23 2.25  64 2.36
  54  0.051  0.702  0.750-  12 2.27   6 2.29   4 2.33  59 2.63
  55  0.857  0.352  0.781-  31 2.28  10 2.40  49 2.41
  56  0.083  0.252  0.948-  31 2.40  72 2.42  62 2.44  44 2.50
  57  0.847  0.503  0.342-  43 2.26  32 2.33  46 2.36  49 2.46
  58  0.447  0.718  0.880-  67 2.32  52 2.33  27 2.38  15 2.42
  59  0.909  0.812  0.793-  51 2.43  68 2.44  35 2.48  54 2.63
  60  0.656  0.682  0.329-  41 2.38  18 2.42  32 2.50  42 2.54
  61  0.347  0.095  0.431-  16 2.37  11 2.37  48 2.44  70 2.67
  62  0.147  0.361  0.764-  69 2.36  20 2.37  56 2.44  38 2.46
  63  0.942  0.766  0.359-  17 2.36  14 2.38  64 2.43  46 2.45
  64  0.808  0.866  0.369-  68 2.32  53 2.36  63 2.43  41 2.61
  65  0.758  0.576  0.944-   7 2.23  32 2.25  35 2.38  10 2.39
  66  0.090  0.979  0.928-  21 2.37  24 2.37  44 2.40  51 2.42
  67  0.602  0.749  0.919-  33 2.32  58 2.32   7 2.54  41 2.63  37 3.07
  68  0.775  0.839  0.628-  64 2.32  33 2.35  42 2.37  59 2.44
  69  0.226  0.252  0.611-  11 2.30  62 2.36  16 2.38  29 2.43
  70  0.183  0.079  0.293-  29 2.24  34 2.33  44 2.35  61 2.67
  71  0.385  0.720  0.344-  52 2.27  36 2.30  18 2.32  30 2.36  45 3.03
  72  0.069  0.309  0.210-  29 2.27   9 2.38  28 2.40  56 2.42

  LATTYP: Found a simple tetragonal cell.
 ALAT       =    14.5307357155
 C/A-ratio  =     0.5948095256
  
  Lattice vectors:
  
 A1 = (  14.5307357155,   0.0000000000,   0.0000000000)
 A2 = (   0.0000000000,  14.5307357155,   0.0000000000)
 A3 = (   0.0000000000,   0.0000000000,   8.6430200172)


Analysis of symmetry for initial positions (statically):
=====================================================================
 Subroutine PRICEL returns:
 Original cell was already a primitive cell.
 

 Routine SETGRP: Setting up the symmetry group for a 
 simple tetragonal supercell.


 Subroutine GETGRP returns: Found  1 space group operations
 (whereof  1 operations were pure point group operations)
 out of a pool of 16 trial point group operations.


The static configuration has the point symmetry C_1 .


Analysis of symmetry for dynamics (positions and initial velocities):
=====================================================================
 Subroutine PRICEL returns:
 Original cell was already a primitive cell.
 

 Routine SETGRP: Setting up the symmetry group for a 
 simple tetragonal supercell.


 Subroutine GETGRP returns: Found  1 space group operations
 (whereof  1 operations were pure point group operations)
 out of a pool of 16 trial point group operations.


The dynamic configuration has the point symmetry C_1 .


 Subroutine INISYM returns: Found  1 space group operations
 (whereof  1 operations are pure point group operations),
 and found     1 'primitive' translations


----------------------------------------------------------------------------------------

                                     Primitive cell                                     

  volume of cell :    1824.9070

  direct lattice vectors                    reciprocal lattice vectors
    14.530735716  0.000000000  0.000000000     0.068819640  0.000000000  0.000000000
     0.000000000 14.530735716  0.000000000     0.000000000  0.068819640  0.000000000
     0.000000000  0.000000000  8.643020017     0.000000000  0.000000000  0.115700299

  length of vectors
    14.530735716 14.530735716  8.643020017     0.068819640  0.068819640  0.115700299

  position of ions in fractional coordinates (direct lattice)
     0.879404887  0.195093356  0.008038972
     0.447226495  0.257148714  0.549206179
     0.424828455  0.449335129  0.339649798
     0.165770684  0.742632735  0.573499771
     0.518788597  0.922568565  0.141649562
     0.114942563  0.696509812  0.991626665
     0.650974609  0.607819189  0.765919781
     0.338995912  0.415769037  0.414349382
     0.959972039  0.251941820  0.390784702
     0.898316524  0.495269485  0.900068493
     0.356201510  0.257168672  0.461847825
     0.982476062  0.564943865  0.697841725
     0.324480473  0.105405537  0.945346648
     0.087414707  0.839647781  0.342611725
     0.399099544  0.858346077  0.752502017
     0.282120608  0.103934173  0.681790623
     0.961272731  0.676650528  0.133230051
     0.523493796  0.732942929  0.474744938
     0.257883019  0.869391629  0.635026876
     0.039933215  0.426381714  0.588426267
     0.168879267  0.998827608  0.690112945
     0.227431705  0.586902148  0.024804293
     0.949821143  0.087768440  0.457224441
     0.141985240  0.848828321  0.068898255
     0.884786583  0.100375509  0.700360521
     0.812732420  0.998380281  0.065841801
     0.489105998  0.619394653  0.671334787
     0.080440524  0.460958077  0.317652857
     0.131746942  0.212391861  0.388675485
     0.264950108  0.635600301  0.458897468
     0.929959795  0.221041113  0.857221201
     0.721119715  0.545002686  0.191657545
     0.644040342  0.876535108  0.774878455
     0.091420010  0.984162143  0.446642492
     0.829882274  0.719646975  0.994896458
     0.329592396  0.867003588  0.379109385
     0.666754952  0.940509845  0.018907511
     0.268071079  0.472019458  0.834661957
     0.391339442  0.953138249  0.972682000
     0.519736244  0.881586470  0.591737609
     0.716846016  0.787344855  0.145294121
     0.745956723  0.681052233  0.581081612
     0.956221369  0.518194684  0.156572587
     0.170279059  0.111187763  0.027323667
     0.295714552  0.853728279  0.120283188
     0.890932177  0.628588268  0.499099851
     0.351888583  0.530879520  0.615187746
     0.457369133  0.972380221  0.380784725
     0.883795580  0.371495298  0.508215877
     0.221519410  0.522649379  0.285143387
     0.929712044  0.973453807  0.855479912
     0.349790272  0.694968252  0.091105886
     0.835594304  0.023253399  0.317902769
     0.050923299  0.702104849  0.749625708
     0.856715052  0.351786730  0.780780328
     0.082759746  0.251664477  0.948038994
     0.847348699  0.503481045  0.341665297
     0.446978056  0.717878310  0.879690199
     0.908728936  0.811603778  0.793154475
     0.656006701  0.681659910  0.328594634
     0.346939763  0.095119754  0.430779981
     0.146944383  0.361422856  0.763584949
     0.941755481  0.765756134  0.358800511
     0.808121504  0.866363565  0.368965939
     0.757614770  0.576141509  0.944298403
     0.090316143  0.979296594  0.928363001
     0.602226217  0.748654453  0.918750620
     0.775122487  0.838760008  0.627974943
     0.225513702  0.251831708  0.611441370
     0.183069877  0.078642267  0.292715971
     0.384910999  0.720397109  0.343710878
     0.069469297  0.308772390  0.210450745

  ion indices of the primitive-cell ions
   primitive index   ion index
                 1           1
                 2           2
                 3           3
                 4           4
                 5           5
                 6           6
                 7           7
                 8           8
                 9           9
                10          10
                11          11
                12          12
                13          13
                14          14
                15          15
                16          16
                17          17
                18          18
                19          19
                20          20
                21          21
                22          22
                23          23
                24          24
                25          25
                26          26
                27          27
                28          28
                29          29
                30          30
                31          31
                32          32
                33          33
                34          34
                35          35
                36          36
                37          37
                38          38
                39          39
                40          40
                41          41
                42          42
                43          43
                44          44
                45          45
                46          46
                47          47
                48          48
                49          49
                50          50
                51          51
                52          52
                53          53
                54          54
                55          55
                56          56
                57          57
                58          58
                59          59
                60          60
                61          61
                62          62
                63          63
                64          64
                65          65
                66          66
                67          67
                68          68
                69          69
                70          70
                71          71
                72          72

----------------------------------------------------------------------------------------


 -----------------------------------------------------------------------------
|                                                                             |
|           W    W    AA    RRRRR   N    N  II  N    N   GGGG   !!!           |
|           W    W   A  A   R    R  NN   N  II  NN   N  G    G  !!!           |
|           W    W  A    A  R    R  N N  N  II  N N  N  G       !!!           |
|           W WW W  AAAAAA  RRRRR   N  N N  II  N  N N  G  GGG   !            |
|           WW  WW  A    A  R   R   N   NN  II  N   NN  G    G                |
|           W    W  A    A  R    R  N    N  II  N    N   GGGG   !!!           |
|                                                                             |
|     The requested file  could not be found or opened for reading            |
|     k-point information. Automatic k-point generation is used as a          |
|     fallback, which may lead to unwanted results.                           |
|                                                                             |
 -----------------------------------------------------------------------------



Automatic generation of k-mesh.
 Grid dimensions derived from KSPACING:
 generate k-points for:    2    2    4

 Generating k-lattice:

  Cartesian coordinates                     Fractional coordinates (reciprocal lattice)
     0.034409820  0.000000000  0.000000000     0.500000000  0.000000000  0.000000000
     0.000000000  0.034409820  0.000000000     0.000000000  0.500000000  0.000000000
     0.000000000  0.000000000  0.028925075     0.000000000  0.000000000  0.250000000

  Length of vectors
     0.034409820  0.034409820  0.028925075

  Shift w.r.t. Gamma in fractional coordinates (k-lattice)
     0.000000000  0.000000000  0.000000000

 
 Subroutine IBZKPT returns following result:
 ===========================================
 
 Found     12 irreducible k-points:
 
 Following reciprocal coordinates:
            Coordinates               Weight
  0.000000  0.000000  0.000000      1.000000
  0.500000  0.000000  0.000000      1.000000
  0.000000  0.500000  0.000000      1.000000
  0.500000  0.500000  0.000000      1.000000
  0.000000  0.000000  0.250000      2.000000
  0.500000  0.000000  0.250000      2.000000
  0.000000  0.500000  0.250000      2.000000
  0.500000  0.500000  0.250000      2.000000
  0.000000  0.000000  0.500000      1.000000
  0.500000  0.000000  0.500000      1.000000
  0.000000  0.500000  0.500000      1.000000
  0.500000  0.500000  0.500000      1.000000
 
 Following cartesian coordinates:
            Coordinates               Weight
  0.000000  0.000000  0.000000      1.000000
  0.034410  0.000000  0.000000      1.000000
  0.000000  0.034410  0.000000      1.000000
  0.034410  0.034410  0.000000      1.000000
  0.000000  0.000000  0.028925      2.000000
  0.034410  0.000000  0.028925      2.000000
  0.000000  0.034410  0.028925      2.000000
  0.034410  0.034410  0.028925      2.000000
  0.000000  0.000000  0.057850      1.000000
  0.034410  0.000000  0.057850      1.000000
  0.000000  0.034410  0.057850      1.000000
  0.034410  0.034410  0.057850      1.000000
 


--------------------------------------------------------------------------------------------------------




 Dimension of arrays:
   k-points           NKPTS =     12   k-points in BZ     NKDIM =     12   number of bands    NBANDS=    176
   number of dos      NEDOS =   2000   number of ions     NIONS =     72
   non local maximal  LDIM  =      4   non local SUM 2l+1 LMDIM =      8
   total plane-waves  NPLWV = ******
   max r-space proj   IRMAX =      1   max aug-charges    IRDMAX= 405562
   dimension x,y,z NGX =   168 NGY =  168 NGZ =   98
   dimension x,y,z NGXF=   336 NGYF=  336 NGZF=  196
   support grid    NGXF=   672 NGYF=  672 NGZF=  392
   ions per type =               3  69
   NGX,Y,Z   is equivalent  to a cutoff of  19.22, 19.22, 18.85 a.u.
   NGXF,Y,Z  is equivalent  to a cutoff of  38.44, 38.44, 37.70 a.u.

 SYSTEM =  a-Si SPC                                
 POSCAR =   H Si                                   

 Startparameter for this run:
   NWRITE =      2    write-flag & timer
   PREC   = accura    normal or accurate (medium, high low for compatibility)
   ISTART =      1    job   : 0-new  1-cont  2-samecut
   ICHARG =      1    charge: 1-file 2-atom 10-const
   ISPIN  =      1    spin polarized calculation?
   LNONCOLLINEAR =      F non collinear calculations
   LSORBIT =      F    spin-orbit coupling
   INIWAV =      1    electr: 0-lowe 1-rand  2-diag
   LASPH  =      T    aspherical Exc in radial PAW
 Electronic Relaxation 1
   ENCUT  = 1200.0 eV  88.20 Ry    9.39 a.u.  41.04 41.04 24.41*2*pi/ulx,y,z
   ENINI  = 1200.0     initial cutoff
   ENAUG  =  400.0 eV  augmentation charge cutoff
   NELM   =    150;   NELMIN=  2; NELMDL=  0     # of ELM steps 
   EDIFF  = 0.1E-05   stopping-criterion for ELM
   LREAL  =      F    real-space projection
   NLSPLINE    = F    spline interpolate recip. space projectors
   LCOMPAT=      F    compatible to vasp.4.4
   GGA_COMPAT  = T    GGA compatible to vasp.4.4-vasp.4.6
   LMAXPAW     = -100 max onsite density
   LMAXMIX     =    2 max onsite mixed and CHGCAR
   VOSKOWN=      0    Vosko Wilk Nusair interpolation
   ROPT   =    0.00000   0.00000
 Ionic relaxation
   EDIFFG = -.1E-01   stopping-criterion for IOM
   NSW    =      0    number of steps for IOM
   NBLOCK =      1;   KBLOCK =      1    inner block; outer block 
   IBRION =     -1    ionic relax: 0-MD 1-quasi-New 2-CG
   NFREE  =      0    steps in history (QN), initial steepest desc. (CG)
   ISIF   =      2    stress and relaxation
   IWAVPR =     10    prediction:  0-non 1-charg 2-wave 3-comb
   ISYM   =      1    0-nonsym 1-usesym 2-fastsym
   LCORR  =      T    Harris-Foulkes like correction to forces

   POTIM  = 0.5000    time-step for ionic-motion
   TEIN   =    0.0    initial temperature
   TEBEG  =    0.0;   TEEND  =   0.0 temperature during run
   SMASS  =  -3.00    Nose mass-parameter (am)
   estimated Nose-frequenzy (Omega)   =  0.10E-29 period in steps = 0.13E+47 mass=  -0.483E-26a.u.
   SCALEE = 1.0000    scale energy and forces
   NPACO  =    256;   APACO  = 10.0  distance and # of slots for P.C.
   PSTRESS=    0.0 pullay stress

  Mass of Ions in am
   POMASS =   1.00 28.09
  Ionic Valenz
   ZVAL   =   1.00  4.00
  Atomic Wigner-Seitz radii
   RWIGS  =  -1.00 -1.00
  virtual crystal weights 
   VCA    =   1.00  1.00
   NELECT =     279.0000    total number of electrons
   NUPDOWN=      -1.0000    fix difference up-down

 DOS related values:
   EMIN   =  10.00;   EMAX   =-10.00  energy-range for DOS
   EFERMI =   0.00;   METHOD = LEGACY      
   ISMEAR =     0;   SIGMA  =   0.10  broadening in eV -4-tet -1-fermi 0-gaus
   EFERMI_NEDOS =   21; number of points for ismear=-14 and -15

 Electronic relaxation 2 (details)
   IALGO  =     38    algorithm
   LDIAG  =      F    sub-space diagonalisation (order eigenvalues)
   LSUBROT=      F    optimize rotation matrix (better conditioning)
   TURBO    =      0    0=normal 1=particle mesh
   IRESTART =      0    0=no restart 2=restart with 2 vectors
   NREBOOT  =      0    no. of reboots
   NMIN     =      0    reboot dimension
   EREF     =   0.00    reference energy to select bands
   IMIX   =      4    mixing-type and parameters
     AMIX     =   0.40;   BMIX     =  1.00
     AMIX_MAG =   1.60;   BMIX_MAG =  1.00
     AMIN     =   0.10
     WC   =   100.;   INIMIX=   1;  MIXPRE=   1;  MAXMIX= -45

 Intra band minimization:
   WEIMIN = 0.0000     energy-eigenvalue tresh-hold
   EBREAK =  0.14E-08  absolut break condition
   DEPER  =   0.30     relativ break condition  

   TIME   =   0.40     timestep for ELM

  volume/ion in A,a.u.               =      25.35       171.04
  Fermi-wavevector in a.u.,A,eV,Ry     =   0.875379  1.654226 10.425980  0.766288
  Thomas-Fermi vector in A             =   1.995041

 Write flags
   LWAVE        =      F    write WAVECAR
   LDOWNSAMPLE  =      F    k-point downsampling of WAVECAR
   LCHARG       =      F    write CHGCAR
   LVTOT        =      F    write LOCPOT, total local potential
   LVHAR        =      F    write LOCPOT, Hartree potential only
   WRT_POTENTIAL= false  ! write potential to hdf5 file
   LELF         =      F    write electronic localiz. function (ELF)
   LORBIT       =     11    0 simple, 1 ext, 2 COOP (PROOUT), +10 PAW based schemes


 Python interface
   PLUGINS active      =      F    recompile with -DPLUGINS to activate

 Dipole corrections
   LMONO      =      F    monopole corrections only (constant potential shift)
   LDIPOL     =      F    correct potential (dipole corrections)
   IDIPOL     =      0    1-x, 2-y, 3-z, 4-all directions 
   EPSILON    =  1.0000000 bulk dielectric constant
   LVACPOTAV  =      F  vacuum potentials using an averaging scheme for the charge density
   VACPOTFLAT =  0.1000000 required flatness to determine vacuum potential

Coulomb truncation method
  LTRUNCATE          =      F  Coulomb kernel truncation to be used
  IDIMENSIONALITY    =      3  Dimensionality of cutoff (0 molecules / 2 surfaces)
  ISURFACE           =     -1  Direction of surface normal
  LCOARSEN           =      F  Coarsen the charge grid before padding, preferred


 Exchange correlation treatment:
   METAGGA = SCAN    functional components
   XC_C    = 1    coefficients multiplying the functional components
   LIBXC   =     F    Libxc                    
   VOSKOWN =     0    Vosko Wilk Nusair interpolation
   LHFCALC =     F    Hartree Fock is set to
   LHFONE  =     F    Hartree Fock one center treatment
   AEXX    =    0.0000 exact exchange contribution

 Parameters of functionals:
   SCAN:
     P1 =  0.000000E+00
     P2 =  0.000000E+00
     P3 =  0.000000E+00

 Accuracy and mixing parameters for tau-dependent meta-GGA functionals:
   LMAXTAU = 6
   LMIXTAU = T

 Van der Waals corrections
   IVDW    =     0    specifies the selected vdW correction

 Linear response parameters
   LEPSILON=     F    determine dielectric tensor
   LRPA    =     F    only Hartree local field effects (RPA)
   LNABLA  =     F    use nabla operator in PAW spheres
   LVEL    =     F    velocity operator in full k-point grid
   CSHIFT  =0.1000    complex shift for real part using Kramers Kronig
   OMEGAMAX=  -1.0    maximum frequency
   DEG_THRESHOLD= 0.2000000E-02 threshold for treating states as degnerate
   RTIME   =   -0.100 relaxation time in fs
  (WPLASMAI=    0.000 imaginary part of plasma frequency in eV, 0.658/RTIME)
   DFIELD  = 0.0000000 0.0000000 0.0000000 field for delta impulse in time

  Optional k-point grid parameters
   LKPOINTS_OPT  =     F    use optional k-point grid
   KPOINTS_OPT_MODE=     1    mode for optional k-point grid

 Orbital magnetization related:
   ORBITALMAG=     F  switch on orbital magnetization
   LCHIMAG   =     F  perturbation theory with respect to B field
   DQ        =  0.001000  dq finite difference perturbation B field
   LLRAUG    =     F  two centre corrections for induced B field
   LBONE     =     F  B-component reconstruction in AE one-centre
   LVGVCALC  =     T  calculate vGv susceptibility
   LVGVAPPL  =     F  apply vGv susceptibility instead of pGv for G=0

 Random number generation:
   RANDOM_GENERATOR = DEFAULT
   PCG_SEED         = not used


--------------------------------------------------------------------------------------------------------


 Static calculation
 charge density and potential will be updated during run
 non-spin polarized calculation
 Variant of blocked Davidson
 perform Loewdin sub-space diagonalisation
    ordering is kept fixed
    before iterative eigenvector-optimisation
 modified Broyden-mixing scheme, WC =      100.0
 initial mixing is a Kerker type mixing with AMIX =  0.4000 and BMIX =      1.0000
 Hartree-type preconditioning will be used
 using additional bands           36
 reciprocal scheme for non local part
 use partial core corrections
 calculate Harris-corrections to forces   (improved forces if not selfconsistent)
 use gradient corrections 
 use of overlap-Matrix (Vanderbilt PP)
 Gauss-broadening in eV      SIGMA  =   0.10


--------------------------------------------------------------------------------------------------------


  energy-cutoff  :     1200.00
  volume of cell :     1824.91
      direct lattice vectors                 reciprocal lattice vectors
    14.530735716  0.000000000  0.000000000     0.068819640  0.000000000  0.000000000
     0.000000000 14.530735716  0.000000000     0.000000000  0.068819640  0.000000000
     0.000000000  0.000000000  8.643020017     0.000000000  0.000000000  0.115700299

  length of vectors
    14.530735716 14.530735716  8.643020017     0.068819640  0.068819640  0.115700299



 old parameters found on file WAVECAR:
  energy-cutoff  :     1200.00
  volume of cell :     1824.91
      direct lattice vectors                 reciprocal lattice vectors
    14.530735716  0.000000000  0.000000000     0.068819640  0.000000000  0.000000000
     0.000000000 14.530735716  0.000000000     0.000000000  0.068819640  0.000000000
     0.000000000  0.000000000  8.643020017     0.000000000  0.000000000  0.115700299

  length of vectors


 k-points in units of 2pi/SCALE and weight: read from INCAR                         
   0.00000000  0.00000000  0.00000000       0.062
   0.03440982  0.00000000  0.00000000       0.062
   0.00000000  0.03440982  0.00000000       0.062
   0.03440982  0.03440982  0.00000000       0.062
   0.00000000  0.00000000  0.02892507       0.125
   0.03440982  0.00000000  0.02892507       0.125
   0.00000000  0.03440982  0.02892507       0.125
   0.03440982  0.03440982  0.02892507       0.125
   0.00000000  0.00000000  0.05785015       0.062
   0.03440982  0.00000000  0.05785015       0.062
   0.00000000  0.03440982  0.05785015       0.062
   0.03440982  0.03440982  0.05785015       0.062

 k-points in reciprocal lattice and weights: read from INCAR                         
   0.00000000  0.00000000  0.00000000       0.062
   0.50000000  0.00000000  0.00000000       0.062
   0.00000000  0.50000000  0.00000000       0.062
   0.50000000  0.50000000  0.00000000       0.062
   0.00000000  0.00000000  0.25000000       0.125
   0.50000000  0.00000000  0.25000000       0.125
   0.00000000  0.50000000  0.25000000       0.125
   0.50000000  0.50000000  0.25000000       0.125
   0.00000000  0.00000000  0.50000000       0.062
   0.50000000  0.00000000  0.50000000       0.062
   0.00000000  0.50000000  0.50000000       0.062
   0.50000000  0.50000000  0.50000000       0.062

 position of ions in fractional coordinates (direct lattice) 
   0.87940489  0.19509336  0.00803897
   0.44722649  0.25714871  0.54920618
   0.42482845  0.44933513  0.33964980
   0.16577068  0.74263273  0.57349977
   0.51878860  0.92256857  0.14164956
   0.11494256  0.69650981  0.99162667
   0.65097461  0.60781919  0.76591978
   0.33899591  0.41576904  0.41434938
   0.95997204  0.25194182  0.39078470
   0.89831652  0.49526949  0.90006849
   0.35620151  0.25716867  0.46184783
   0.98247606  0.56494387  0.69784173
   0.32448047  0.10540554  0.94534665
   0.08741471  0.83964778  0.34261173
   0.39909954  0.85834608  0.75250202
   0.28212061  0.10393417  0.68179062
   0.96127273  0.67665053  0.13323005
   0.52349380  0.73294293  0.47474494
   0.25788302  0.86939163  0.63502688
   0.03993322  0.42638171  0.58842627
   0.16887927  0.99882761  0.69011295
   0.22743171  0.58690215  0.02480429
   0.94982114  0.08776844  0.45722444
   0.14198524  0.84882832  0.06889826
   0.88478658  0.10037551  0.70036052
   0.81273242  0.99838028  0.06584180
   0.48910600  0.61939465  0.67133479
   0.08044052  0.46095808  0.31765286
   0.13174694  0.21239186  0.38867549
   0.26495011  0.63560030  0.45889747
   0.92995979  0.22104111  0.85722120
   0.72111972  0.54500269  0.19165755
   0.64404034  0.87653511  0.77487846
   0.09142001  0.98416214  0.44664249
   0.82988227  0.71964697  0.99489646
   0.32959240  0.86700359  0.37910938
   0.66675495  0.94050985  0.01890751
   0.26807108  0.47201946  0.83466196
   0.39133944  0.95313825  0.97268200
   0.51973624  0.88158647  0.59173761
   0.71684602  0.78734485  0.14529412
   0.74595672  0.68105223  0.58108161
   0.95622137  0.51819468  0.15657259
   0.17027906  0.11118776  0.02732367
   0.29571455  0.85372828  0.12028319
   0.89093218  0.62858827  0.49909985
   0.35188858  0.53087952  0.61518775
   0.45736913  0.97238022  0.38078472
   0.88379558  0.37149530  0.50821588
   0.22151941  0.52264938  0.28514339
   0.92971204  0.97345381  0.85547991
   0.34979027  0.69496825  0.09110589
   0.83559430  0.02325340  0.31790277
   0.05092330  0.70210485  0.74962571
   0.85671505  0.35178673  0.78078033
   0.08275975  0.25166448  0.94803899
   0.84734870  0.50348104  0.34166530
   0.44697806  0.71787831  0.87969020
   0.90872894  0.81160378  0.79315447
   0.65600670  0.68165991  0.32859463
   0.34693976  0.09511975  0.43077998
   0.14694438  0.36142286  0.76358495
   0.94175548  0.76575613  0.35880051
   0.80812150  0.86636357  0.36896594
   0.75761477  0.57614151  0.94429840
   0.09031614  0.97929659  0.92836300
   0.60222622  0.74865445  0.91875062
   0.77512249  0.83876001  0.62797494
   0.22551370  0.25183171  0.61144137
   0.18306988  0.07864227  0.29271597
   0.38491100  0.72039711  0.34371088
   0.06946930  0.30877239  0.21045074

 position of ions in cartesian coordinates  (Angst):
  12.77840000  2.83485000  0.06948100
   6.49853000  3.73656000  4.74680000
   6.17307000  6.52917000  2.93560000
   2.40877000 10.79100000  4.95677000
   7.53838000 13.40560000  1.22428000
   1.67020000 10.12080000  8.57064912
   9.45914000  8.83206000  6.61986000
   4.92586000  6.04143000  3.58123000
  13.94910000  3.66090000  3.37756000
  13.05320000  7.19663000  7.77931000
   5.17587000  3.73685000  3.99176000
  14.27610000  8.20905000  6.03146000
   4.71494000  1.53162000  8.17065000
   1.27020000 12.20070000  2.96120000
   5.79921000 12.47240000  6.50389000
   4.09942000  1.51024000  5.89273000
  13.96800000  9.83223000  1.15151000
   7.60675000 10.65020000  4.10323000
   3.74723000 12.63290000  5.48855000
   0.58025900  6.19564000  5.08578000
   2.45394000 14.51370000  5.96466000
   3.30475000  8.52812000  0.21438400
  13.80160000  1.27534000  3.95180000
   2.06315000 12.33410000  0.59548900
  12.85660000  1.45853000  6.05323000
  11.80960000 14.50720000  0.56907200
   7.10707000  9.00026000  5.80236000
   1.16886000  6.69806000  2.74548000
   1.91438000  3.08621000  3.35933000
   3.84992000  9.23574000  3.96626000
  13.51300000  3.21189000  7.40898000
  10.47840000  7.91929000  1.65650000
   9.35838000 12.73670000  6.69729000
   1.32840000 14.30060000  3.86034000
  12.05880000 10.45700000  8.59891000
   4.78922000 12.59820000  3.27665000
   9.68844000 13.66630000  0.16341800
   3.89527000  6.85879000  7.21400000
   5.68645000 13.84980000  8.40691000
   7.55215000 12.81010000  5.11440000
  10.41630000 11.44070000  1.25578000
  10.83930000  9.89619000  5.02230000
  13.89460000  7.52975000  1.35326000
   2.47428000  1.61564000  0.23615900
   4.29695000 12.40530000  1.03961000
  12.94590000  9.13385000  4.31373000
   5.11320000  7.71407000  5.31708000
   6.64591000 14.12940000  3.29113000
  12.84220000  5.39810000  4.39252000
   3.21884000  7.59448000  2.46450000
  13.50940000 14.14500000  7.39393000
   5.08271000 10.09840000  0.78743000
  12.14180000  0.33788900  2.74764000
   0.73995300 10.20210000  6.47903000
  12.44870000  5.11172000  6.74830000
   1.20256000  3.65687000  8.19392000
  12.31260000  7.31595000  2.95302000
   6.49492000 10.43130000  7.60318000
  13.20450000 11.79320000  6.85525000
   9.53226000  9.90502000  2.84005000
   5.04129000  1.38216000  3.72324000
   2.13521000  5.25174000  6.59968000
  13.68440000 11.12700000  3.10112000
  11.74260000 12.58890000  3.18898000
  11.00870000  8.37176000  8.16159000
   1.31236000 14.22990000  8.02386000
   8.75079000 10.87850000  7.94078000
  11.26310000 12.18780000  5.42760000
   3.27688000  3.65930000  5.28470000
   2.66014000  1.14273000  2.52995000
   5.59304000 10.46790000  2.97070000
   1.00944000  4.48669000  1.81893000



--------------------------------------------------------------------------------------------------------


 k-point     1 :   0.0000 0.0000 0.0000  plane waves:  172081
 k-point     2 :   0.5000 0.0000 0.0000  plane waves:  172294
 k-point     3 :   0.0000 0.5000 0.0000  plane waves:  172294
 k-point     4 :   0.5000 0.5000 0.0000  plane waves:  172436
 k-point     5 :   0.0000 0.0000 0.2500  plane waves:  172217
 k-point     6 :   0.5000 0.0000 0.2500  plane waves:  172274
 k-point     7 :   0.0000 0.5000 0.2500  plane waves:  172274
 k-point     8 :   0.5000 0.5000 0.2500  plane waves:  172284
 k-point     9 :   0.0000 0.0000 0.5000  plane waves:  172208
 k-point    10 :   0.5000 0.0000 0.5000  plane waves:  172132
 k-point    11 :   0.0000 0.5000 0.5000  plane waves:  172132
 k-point    12 :   0.5000 0.5000 0.5000  plane waves:  172328

 maximum and minimum number of plane-waves per node :     10822    10681

 maximum number of plane-waves:    172436
 maximum index in each direction: 
   IXMAX=   41   IYMAX=   41   IZMAX=   24
   IXMIN=  -41   IYMIN=  -41   IZMIN=  -24


 parallel 3D FFT for wavefunctions:
    minimum data exchange during FFTs selected (reduces bandwidth)
 parallel 3D FFT for charge:
    minimum data exchange during FFTs selected (reduces bandwidth)


 total amount of memory used by VASP MPI-rank0   164291. kBytes
=======================================================================

   base                                    :      30000. kBytes
   nonl-proj                               :      29094. kBytes
   fftplans                                :      33483. kBytes
   grid                                    :      25810. kBytes
   one-center                              :         15. kBytes
   wavefun                                 :      45889. kBytes

     INWAV:  cpu time      8.2608: real time      8.2637
 Broyden mixing: mesh for mixing (old mesh)
   NGX = 83   NGY = 83   NGZ = 49
  (NGX  =336   NGY  =336   NGZ  =196)
  gives a total of 337561 points

 initial charge density was supplied:
 number of electron     278.9999999 magnetization 
 keeping initial charge density in first step


--------------------------------------------------------------------------------------------------------


 Maximum index for augmentation-charges        11199 (set IRDMAX)


--------------------------------------------------------------------------------------------------------


 First call to EWALD:  gamma=   0.145
 Maximum number of real-space cells   2x   2x   4
 Maximum number of reciprocal cells   3x   3x   2

    FEWALD:  cpu time      0.0126: real time      0.0128


--------------------------------------- Ionic step        1  -------------------------------------------




--------------------------------------- Iteration      1(   1)  ---------------------------------------


    POTLOK:  cpu time      0.5885: real time      0.5892
    SETDIJ:  cpu time      0.9983: real time      0.9993
    EDDIAG:  cpu time     16.3473: real time     16.3594
     EDDAV:  cpu time     74.5390: real time     74.6041
       DOS:  cpu time      0.0109: real time      0.0112
    CHARGE:  cpu time      6.0963: real time      6.1020
    MIXING:  cpu time      0.0215: real time      0.0216
    --------------------------------------------
      LOOP:  cpu time     98.6019: real time     98.6869

 eigenvalue-minimisations  :  4224
 total energy-change (2. order) :-0.7172951E+03  (-0.7960350E+00)
 number of electron     278.9999999 magnetization 
 augmentation part      -15.4496436 magnetization 

 Broyden mixing:
  rms(total) = 0.10399E+01    rms(broyden)= 0.33563E+02
  rms(prec ) = 0.10970E+01
  weight for this iteration     100.00
  WARNING: grid for Broyden might be to small

 Free energy of the ion-electron system (eV)
  ---------------------------------------------------
  alpha Z        PSCENC =        89.89570914
  Ewald energy   TEWEN  =     -3654.09942072
  -Hartree energ DENC   =     -4088.87105915
  -exchange      EXHF   =         0.00000000
  -V(xc)+E(xc)   XCENC  =      -330.26620409
  PAW double counting   =     25500.49417899   -24812.42972120
  entropy T*S    EENTRO =        -0.16015290
  eigenvalues    EBANDS =      -570.93522694
  atomic energy  EATOM  =      7149.07675483
  Solvation  Ediel_sol  =         0.00000000
  ---------------------------------------------------
  free energy    TOTEN  =      -717.29514204 eV

  energy without entropy =     -717.13498914  energy(sigma->0) =     -717.21506559


--------------------------------------------------------------------------------------------------------




--------------------------------------- Iteration      1(   2)  ---------------------------------------


    POTLOK:  cpu time      0.5797: real time      0.6001
    SETDIJ:  cpu time      0.9923: real time      0.9933
    EDDIAG:  cpu time     16.4547: real time     16.4681
     EDDAV:  cpu time     74.6248: real time     74.6881
       DOS:  cpu time      0.0041: real time      0.0041
    CHARGE:  cpu time      6.1607: real time      6.1663
    MIXING:  cpu time      0.0144: real time      0.0144
    --------------------------------------------
      LOOP:  cpu time     98.8306: real time     98.9344

 eigenvalue-minimisations  :  4224
 total energy-change (2. order) : 0.4973123E+02  (-0.7470921E+00)
 number of electron     278.9999999 magnetization 
 augmentation part      -15.3876712 magnetization 

 Broyden mixing:
  rms(total) = 0.69503E+00    rms(broyden)= 0.19385E+02
  rms(prec ) = 0.72539E+00
  weight for this iteration     100.00
  WARNING: grid for Broyden might be to small

 eigenvalues of (default mixing * dielectric matrix)
  average eigenvalue GAMMA=   0.6339
  0.6339

 Free energy of the ion-electron system (eV)
  ---------------------------------------------------
  alpha Z        PSCENC =        89.89570914
  Ewald energy   TEWEN  =     -3654.09942072
  -Hartree energ DENC   =     -4081.72270804
  -exchange      EXHF   =         0.00000000
  -V(xc)+E(xc)   XCENC  =      -322.83289307
  PAW double counting   =     30594.80034357   -29906.55392252
  entropy T*S    EENTRO =        -0.15922446
  eigenvalues    EBANDS =      -535.96855253
  atomic energy  EATOM  =      7149.07675483
  Solvation  Ediel_sol  =         0.00000000
  ---------------------------------------------------
  free energy    TOTEN  =      -667.56391380 eV

  energy without entropy =     -667.40468935  energy(sigma->0) =     -667.48430158


--------------------------------------------------------------------------------------------------------




--------------------------------------- Iteration      1(   3)  ---------------------------------------


    POTLOK:  cpu time      0.5770: real time      0.6041
    SETDIJ:  cpu time      0.9911: real time      0.9918
    EDDIAG:  cpu time     16.3760: real time     16.3901
     EDDAV:  cpu time     74.6371: real time     74.7045
       DOS:  cpu time      0.0037: real time      0.0037
    CHARGE:  cpu time      6.2989: real time      6.3045
    MIXING:  cpu time      0.0112: real time      0.0112
    --------------------------------------------
      LOOP:  cpu time     98.8950: real time     99.0099

 eigenvalue-minimisations  :  4224
 total energy-change (2. order) :-0.2669042E+01  (-0.5957730E+00)
 number of electron     278.9999999 magnetization 
 augmentation part      -15.3346707 magnetization 

 Broyden mixing:
  rms(total) = 0.36761E+00    rms(broyden)= 0.19830E+02
  rms(prec ) = 0.43477E+00
  weight for this iteration     100.00
  WARNING: grid for Broyden might be to small

 eigenvalues of (default mixing * dielectric matrix)
  average eigenvalue GAMMA=   0.7002
  0.7753  0.6251

 Free energy of the ion-electron system (eV)
  ---------------------------------------------------
  alpha Z        PSCENC =        89.89570914
  Ewald energy   TEWEN  =     -3654.09942072
  -Hartree energ DENC   =     -4084.65949906
  -exchange      EXHF   =         0.00000000
  -V(xc)+E(xc)   XCENC  =      -326.48769677
  PAW double counting   =     35422.00759804   -34733.83958069
  entropy T*S    EENTRO =        -0.16686019
  eigenvalues    EBANDS =      -531.95996011
  atomic energy  EATOM  =      7149.07675483
  Solvation  Ediel_sol  =         0.00000000
  ---------------------------------------------------
  free energy    TOTEN  =      -670.23295553 eV

  energy without entropy =     -670.06609534  energy(sigma->0) =     -670.14952544


--------------------------------------------------------------------------------------------------------




--------------------------------------- Iteration      1(   4)  ---------------------------------------


    POTLOK:  cpu time      0.5975: real time      0.6060
    SETDIJ:  cpu time      0.9925: real time      0.9936
    EDDIAG:  cpu time     16.4482: real time     16.4614
     EDDAV:  cpu time     80.0761: real time     80.1481
       DOS:  cpu time      0.0044: real time      0.0044
    CHARGE:  cpu time      6.1964: real time      6.2011
    MIXING:  cpu time      0.0112: real time      0.0112
    --------------------------------------------
      LOOP:  cpu time    104.3263: real time    104.4258

 eigenvalue-minimisations  :  4768
 total energy-change (2. order) :-0.8080530E-01  (-0.9394647E-01)
 number of electron     278.9999999 magnetization 
 augmentation part      -15.3285386 magnetization 

 Broyden mixing:
  rms(total) = 0.10983E+00    rms(broyden)= 0.88826E+00
  rms(prec ) = 0.21518E+00
  weight for this iteration     100.00
  WARNING: grid for Broyden might be to small

 eigenvalues of (default mixing * dielectric matrix)
  average eigenvalue GAMMA=   0.8826
  1.4411  0.6328  0.5739

 Free energy of the ion-electron system (eV)
  ---------------------------------------------------
  alpha Z        PSCENC =        89.89570914
  Ewald energy   TEWEN  =     -3654.09942072
  -Hartree energ DENC   =     -4087.34043726
  -exchange      EXHF   =         0.00000000
  -V(xc)+E(xc)   XCENC  =      -327.07412710
  PAW double counting   =     40730.14542425   -40042.01577143
  entropy T*S    EENTRO =        -0.14986959
  eigenvalues    EBANDS =      -528.75202295
  atomic energy  EATOM  =      7149.07675483
  Solvation  Ediel_sol  =         0.00000000
  ---------------------------------------------------
  free energy    TOTEN  =      -670.31376083 eV

  energy without entropy =     -670.16389124  energy(sigma->0) =     -670.23882603


--------------------------------------------------------------------------------------------------------




--------------------------------------- Iteration      1(   5)  ---------------------------------------


    POTLOK:  cpu time      0.5798: real time      0.6063
    SETDIJ:  cpu time      0.9914: real time      0.9920
    EDDIAG:  cpu time     16.3912: real time     16.4052
     EDDAV:  cpu time     80.8240: real time     80.8968
       DOS:  cpu time      0.0040: real time      0.0040
    CHARGE:  cpu time      6.1729: real time      6.1779
    MIXING:  cpu time      0.0116: real time      0.0116
    --------------------------------------------
      LOOP:  cpu time    104.9749: real time    105.0937

 eigenvalue-minimisations  :  4840
 total energy-change (2. order) : 0.1147234E-01  (-0.2645165E-01)
 number of electron     278.9999999 magnetization 
 augmentation part      -15.3285065 magnetization 

 Broyden mixing:
  rms(total) = 0.47469E-01    rms(broyden)= 0.16661E+01
  rms(prec ) = 0.81238E-01
  weight for this iteration     100.00
  WARNING: grid for Broyden might be to small

 eigenvalues of (default mixing * dielectric matrix)
  average eigenvalue GAMMA=   0.9880
  2.1844  0.7516  0.6197  0.3964

 Free energy of the ion-electron system (eV)
  ---------------------------------------------------
  alpha Z        PSCENC =        89.89570914
  Ewald energy   TEWEN  =     -3654.09942072
  -Hartree energ DENC   =     -4088.17614564
  -exchange      EXHF   =         0.00000000
  -V(xc)+E(xc)   XCENC  =      -327.84311196
  PAW double counting   =     40936.11437414   -40247.97704289
  entropy T*S    EENTRO =        -0.16566631
  eigenvalues    EBANDS =      -527.12773907
  atomic energy  EATOM  =      7149.07675483
  Solvation  Ediel_sol  =         0.00000000
  ---------------------------------------------------
  free energy    TOTEN  =      -670.30228849 eV

  energy without entropy =     -670.13662218  energy(sigma->0) =     -670.21945533


--------------------------------------------------------------------------------------------------------




--------------------------------------- Iteration      1(   6)  ---------------------------------------


    POTLOK:  cpu time      0.5765: real time      0.5996
    SETDIJ:  cpu time      0.9917: real time      0.9922
    EDDIAG:  cpu time     16.3472: real time     16.3609
     EDDAV:  cpu time     76.7426: real time     76.8079
       DOS:  cpu time      0.0038: real time      0.0038
    CHARGE:  cpu time      6.2302: real time      6.2347
    MIXING:  cpu time      0.0124: real time      0.0124
    --------------------------------------------
      LOOP:  cpu time    100.9043: real time    101.0115

 eigenvalue-minimisations  :  4448
 total energy-change (2. order) :-0.2702992E-02  (-0.6619424E-02)
 number of electron     278.9999999 magnetization 
 augmentation part      -15.3286764 magnetization 

 Broyden mixing:
  rms(total) = 0.32089E-01    rms(broyden)= 0.20546E+00
  rms(prec ) = 0.53767E-01
  weight for this iteration     100.00
  WARNING: grid for Broyden might be to small

 eigenvalues of (default mixing * dielectric matrix)
  average eigenvalue GAMMA=   0.9629
  2.4594  0.8171  0.6269  0.5331  0.3783

 Free energy of the ion-electron system (eV)
  ---------------------------------------------------
  alpha Z        PSCENC =        89.89570914
  Ewald energy   TEWEN  =     -3654.09942072
  -Hartree energ DENC   =     -4088.28974495
  -exchange      EXHF   =         0.00000000
  -V(xc)+E(xc)   XCENC  =      -328.08226022
  PAW double counting   =     40681.17270669   -39993.01729408
  entropy T*S    EENTRO =        -0.16425169
  eigenvalues    EBANDS =      -526.79719048
  atomic energy  EATOM  =      7149.07675483
  Solvation  Ediel_sol  =         0.00000000
  ---------------------------------------------------
  free energy    TOTEN  =      -670.30499148 eV

  energy without entropy =     -670.14073979  energy(sigma->0) =     -670.22286563


--------------------------------------------------------------------------------------------------------




--------------------------------------- Iteration      1(   7)  ---------------------------------------


    POTLOK:  cpu time      0.5783: real time      0.6036
    SETDIJ:  cpu time      0.9932: real time      0.9936
    EDDIAG:  cpu time     16.4065: real time     16.4194
     EDDAV:  cpu time     77.4236: real time     77.4897
       DOS:  cpu time      0.0038: real time      0.0038
    CHARGE:  cpu time      6.1786: real time      6.1837
    MIXING:  cpu time      0.0118: real time      0.0118
    --------------------------------------------
      LOOP:  cpu time    101.5958: real time    101.7057

 eigenvalue-minimisations  :  4496
 total energy-change (2. order) : 0.1051707E-02  (-0.9532701E-03)
 number of electron     278.9999999 magnetization 
 augmentation part      -15.3282879 magnetization 

 Broyden mixing:
  rms(total) = 0.17856E-01    rms(broyden)= 0.19327E+00
  rms(prec ) = 0.21791E-01
  weight for this iteration     100.00
  WARNING: grid for Broyden might be to small

 eigenvalues of (default mixing * dielectric matrix)
  average eigenvalue GAMMA=   0.9351
  2.5686  0.9944  0.6387  0.6387  0.3851  0.3851

 Free energy of the ion-electron system (eV)
  ---------------------------------------------------
  alpha Z        PSCENC =        89.89570914
  Ewald energy   TEWEN  =     -3654.09942072
  -Hartree energ DENC   =     -4088.32845530
  -exchange      EXHF   =         0.00000000
  -V(xc)+E(xc)   XCENC  =      -328.08662224
  PAW double counting   =     40633.97546854   -39945.81286636
  entropy T*S    EENTRO =        -0.16394915
  eigenvalues    EBANDS =      -526.76055851
  atomic energy  EATOM  =      7149.07675483
  Solvation  Ediel_sol  =         0.00000000
  ---------------------------------------------------
  free energy    TOTEN  =      -670.30393977 eV

  energy without entropy =     -670.13999062  energy(sigma->0) =     -670.22196519


--------------------------------------------------------------------------------------------------------




--------------------------------------- Iteration      1(   8)  ---------------------------------------


    POTLOK:  cpu time      0.5994: real time      0.6007
    SETDIJ:  cpu time      0.9912: real time      0.9915
    EDDIAG:  cpu time     16.3623: real time     16.3753
     EDDAV:  cpu time     77.3774: real time     77.4454
       DOS:  cpu time      0.0055: real time      0.0055
    CHARGE:  cpu time      6.2245: real time      6.2306
    MIXING:  cpu time      0.0118: real time      0.0118
    --------------------------------------------
      LOOP:  cpu time    101.5720: real time    101.6607

 eigenvalue-minimisations  :  4496
 total energy-change (2. order) :-0.6760799E-03  (-0.4958923E-03)
 number of electron     278.9999999 magnetization 
 augmentation part      -15.3266986 magnetization 

 Broyden mixing:
  rms(total) = 0.92868E-02    rms(broyden)= 0.11994E+00
  rms(prec ) = 0.14782E-01
  weight for this iteration     100.00
  WARNING: grid for Broyden might be to small

 eigenvalues of (default mixing * dielectric matrix)
  average eigenvalue GAMMA=   0.9222
  2.5680  1.0822  0.8085  0.6307  0.6307  0.3677  0.3677

 Free energy of the ion-electron system (eV)
  ---------------------------------------------------
  alpha Z        PSCENC =        89.89570914
  Ewald energy   TEWEN  =     -3654.09942072
  -Hartree energ DENC   =     -4088.52850946
  -exchange      EXHF   =         0.00000000
  -V(xc)+E(xc)   XCENC  =      -327.94582729
  PAW double counting   =     40638.29827671   -39950.12297507
  entropy T*S    EENTRO =        -0.16481230
  eigenvalues    EBANDS =      -526.71381169
  atomic energy  EATOM  =      7149.07675483
  Solvation  Ediel_sol  =         0.00000000
  ---------------------------------------------------
  free energy    TOTEN  =      -670.30461585 eV

  energy without entropy =     -670.13980355  energy(sigma->0) =     -670.22220970


--------------------------------------------------------------------------------------------------------




--------------------------------------- Iteration      1(   9)  ---------------------------------------


    POTLOK:  cpu time      0.5776: real time      0.5988
    SETDIJ:  cpu time      0.9909: real time      0.9922
    EDDIAG:  cpu time     16.4390: real time     16.4540
     EDDAV:  cpu time     82.3917: real time     82.4659
       DOS:  cpu time      0.0038: real time      0.0038
    CHARGE:  cpu time      6.2432: real time      6.2485
    MIXING:  cpu time      0.0121: real time      0.0121
    --------------------------------------------
      LOOP:  cpu time    106.6584: real time    106.7753

 eigenvalue-minimisations  :  4984
 total energy-change (2. order) :-0.2006794E-03  (-0.9874913E-04)
 number of electron     278.9999999 magnetization 
 augmentation part      -15.3264372 magnetization 

 Broyden mixing:
  rms(total) = 0.36394E-02    rms(broyden)= 0.40837E-01
  rms(prec ) = 0.53618E-02
  weight for this iteration     100.00
  WARNING: grid for Broyden might be to small

 eigenvalues of (default mixing * dielectric matrix)
  average eigenvalue GAMMA=   0.9333
  2.5645  1.5299  0.8886  0.6356  0.6356  0.4840  0.3996  0.3285

 Free energy of the ion-electron system (eV)
  ---------------------------------------------------
  alpha Z        PSCENC =        89.89570914
  Ewald energy   TEWEN  =     -3654.09942072
  -Hartree energ DENC   =     -4088.60429206
  -exchange      EXHF   =         0.00000000
  -V(xc)+E(xc)   XCENC  =      -327.90912550
  PAW double counting   =     40646.56674117   -39958.38525919
  entropy T*S    EENTRO =        -0.16412873
  eigenvalues    EBANDS =      -526.68179547
  atomic energy  EATOM  =      7149.07675483
  Solvation  Ediel_sol  =         0.00000000
  ---------------------------------------------------
  free energy    TOTEN  =      -670.30481653 eV

  energy without entropy =     -670.14068780  energy(sigma->0) =     -670.22275217


--------------------------------------------------------------------------------------------------------




--------------------------------------- Iteration      1(  10)  ---------------------------------------


    POTLOK:  cpu time      0.5789: real time      0.6035
    SETDIJ:  cpu time      0.9937: real time      0.9943
    EDDIAG:  cpu time     16.4043: real time     16.4184
     EDDAV:  cpu time     77.1136: real time     77.1822
       DOS:  cpu time      0.0056: real time      0.0056
    CHARGE:  cpu time      6.2824: real time      6.2876
    MIXING:  cpu time      0.0126: real time      0.0126
    --------------------------------------------
      LOOP:  cpu time    101.3908: real time    101.5040

 eigenvalue-minimisations  :  4456
 total energy-change (2. order) :-0.3290461E-04  (-0.4460078E-04)
 number of electron     278.9999999 magnetization 
 augmentation part      -15.3263976 magnetization 

 Broyden mixing:
  rms(total) = 0.17418E-02    rms(broyden)= 0.26961E-01
  rms(prec ) = 0.24978E-02
  weight for this iteration     100.00
  WARNING: grid for Broyden might be to small

 eigenvalues of (default mixing * dielectric matrix)
  average eigenvalue GAMMA=   1.0262
  2.6111  2.3012  1.0184  0.8220  0.6522  0.6358  0.4667  0.3398  0.3884

 Free energy of the ion-electron system (eV)
  ---------------------------------------------------
  alpha Z        PSCENC =        89.89570914
  Ewald energy   TEWEN  =     -3654.09942072
  -Hartree energ DENC   =     -4088.60239344
  -exchange      EXHF   =         0.00000000
  -V(xc)+E(xc)   XCENC  =      -327.91405316
  PAW double counting   =     40657.09926130   -39968.91524984
  entropy T*S    EENTRO =        -0.16440025
  eigenvalues    EBANDS =      -526.68105730
  atomic energy  EATOM  =      7149.07675483
  Solvation  Ediel_sol  =         0.00000000
  ---------------------------------------------------
  free energy    TOTEN  =      -670.30484943 eV

  energy without entropy =     -670.14044918  energy(sigma->0) =     -670.22264931


--------------------------------------------------------------------------------------------------------




--------------------------------------- Iteration      1(  11)  ---------------------------------------


    POTLOK:  cpu time      0.5762: real time      0.6013
    SETDIJ:  cpu time      0.9933: real time      0.9935
    EDDIAG:  cpu time     16.3625: real time     16.3763
     EDDAV:  cpu time     81.0343: real time     81.1058
       DOS:  cpu time      0.0059: real time      0.0059
    CHARGE:  cpu time      6.1959: real time      6.2014
    MIXING:  cpu time      0.0127: real time      0.0127
    --------------------------------------------
      LOOP:  cpu time    105.1808: real time    105.2969

 eigenvalue-minimisations  :  4856
 total energy-change (2. order) :-0.3990629E-04  (-0.8013086E-05)
 number of electron     278.9999999 magnetization 
 augmentation part      -15.3264696 magnetization 

 Broyden mixing:
  rms(total) = 0.11858E-02    rms(broyden)= 0.10568E-01
  rms(prec ) = 0.18368E-02
  weight for this iteration     100.00
  WARNING: grid for Broyden might be to small

 eigenvalues of (default mixing * dielectric matrix)
  average eigenvalue GAMMA=   1.0627
  2.8123  2.5501  1.1412  0.9761  0.7136  0.6381  0.6001  0.3413  0.3848  0.4694

 Free energy of the ion-electron system (eV)
  ---------------------------------------------------
  alpha Z        PSCENC =        89.89570914
  Ewald energy   TEWEN  =     -3654.09942072
  -Hartree energ DENC   =     -4088.53267146
  -exchange      EXHF   =         0.00000000
  -V(xc)+E(xc)   XCENC  =      -327.92297967
  PAW double counting   =     40656.90532986   -39968.72002465
  entropy T*S    EENTRO =        -0.16417546
  eigenvalues    EBANDS =      -526.74341123
  atomic energy  EATOM  =      7149.07675483
  Solvation  Ediel_sol  =         0.00000000
  ---------------------------------------------------
  free energy    TOTEN  =      -670.30488934 eV

  energy without entropy =     -670.14071389  energy(sigma->0) =     -670.22280161


--------------------------------------------------------------------------------------------------------




--------------------------------------- Iteration      1(  12)  ---------------------------------------


    POTLOK:  cpu time      0.5820: real time      0.5997
    SETDIJ:  cpu time      0.9940: real time      0.9945
    EDDIAG:  cpu time     16.3444: real time     16.3585
     EDDAV:  cpu time     80.0165: real time     80.0868
       DOS:  cpu time      0.0039: real time      0.0039
    CHARGE:  cpu time      6.2209: real time      6.2261
    MIXING:  cpu time      0.0127: real time      0.0127
    --------------------------------------------
      LOOP:  cpu time    104.1744: real time    104.2822

 eigenvalue-minimisations  :  4720
 total energy-change (2. order) :-0.2523098E-04  (-0.2349745E-05)
 number of electron     278.9999999 magnetization 
 augmentation part      -15.3264728 magnetization 

 Broyden mixing:
  rms(total) = 0.65890E-03    rms(broyden)= 0.56954E-02
  rms(prec ) = 0.10768E-02
  weight for this iteration     100.00
  WARNING: grid for Broyden might be to small

 eigenvalues of (default mixing * dielectric matrix)
  average eigenvalue GAMMA=   1.0694
  3.0257  2.6195  1.3275  0.9619  0.8609  0.6597  0.6286  0.3381  0.3886  0.5057
  0.4468

 Free energy of the ion-electron system (eV)
  ---------------------------------------------------
  alpha Z        PSCENC =        89.89570914
  Ewald energy   TEWEN  =     -3654.09942072
  -Hartree energ DENC   =     -4088.48664959
  -exchange      EXHF   =         0.00000000
  -V(xc)+E(xc)   XCENC  =      -327.92435632
  PAW double counting   =     40655.67104030   -39967.48486774
  entropy T*S    EENTRO =        -0.16433151
  eigenvalues    EBANDS =      -526.78879297
  atomic energy  EATOM  =      7149.07675483
  Solvation  Ediel_sol  =         0.00000000
  ---------------------------------------------------
  free energy    TOTEN  =      -670.30491457 eV

  energy without entropy =     -670.14058307  energy(sigma->0) =     -670.22274882


--------------------------------------------------------------------------------------------------------




--------------------------------------- Iteration      1(  13)  ---------------------------------------


    POTLOK:  cpu time      0.5775: real time      0.6039
    SETDIJ:  cpu time      0.9957: real time      0.9969
    EDDIAG:  cpu time     16.3685: real time     16.3824
     EDDAV:  cpu time     76.5689: real time     76.6376
       DOS:  cpu time      0.0050: real time      0.0050
    CHARGE:  cpu time      6.3232: real time      6.3347
    MIXING:  cpu time      0.0141: real time      0.0141
    --------------------------------------------
      LOOP:  cpu time    100.8529: real time    100.9745

 eigenvalue-minimisations  :  4416
 total energy-change (2. order) :-0.2533446E-04  (-0.2213483E-05)
 number of electron     278.9999999 magnetization 
 augmentation part      -15.3265390 magnetization 

 Broyden mixing:
  rms(total) = 0.40738E-03    rms(broyden)= 0.65601E-02
  rms(prec ) = 0.74807E-03
  weight for this iteration     100.00
  WARNING: grid for Broyden might be to small

 eigenvalues of (default mixing * dielectric matrix)
  average eigenvalue GAMMA=   1.0752
  3.2047  2.6234  1.4712  0.9812  0.9812  0.7191  0.6417  0.6100  0.3380  0.3854
  0.4445  0.5014

 Free energy of the ion-electron system (eV)
  ---------------------------------------------------
  alpha Z        PSCENC =        89.89570914
  Ewald energy   TEWEN  =     -3654.09942072
  -Hartree energ DENC   =     -4088.40794836
  -exchange      EXHF   =         0.00000000
  -V(xc)+E(xc)   XCENC  =      -327.93077355
  PAW double counting   =     40652.72917290   -39964.54251614
  entropy T*S    EENTRO =        -0.16430163
  eigenvalues    EBANDS =      -526.86161637
  atomic energy  EATOM  =      7149.07675483
  Solvation  Ediel_sol  =         0.00000000
  ---------------------------------------------------
  free energy    TOTEN  =      -670.30493991 eV

  energy without entropy =     -670.14063828  energy(sigma->0) =     -670.22278909


--------------------------------------------------------------------------------------------------------




--------------------------------------- Iteration      1(  14)  ---------------------------------------


    POTLOK:  cpu time      0.6587: real time      0.6892
    SETDIJ:  cpu time      0.9942: real time      0.9950
    EDDIAG:  cpu time     16.4243: real time     16.4379
     EDDAV:  cpu time     75.8788: real time     75.9450
       DOS:  cpu time      0.0042: real time      0.0042
    CHARGE:  cpu time      6.3631: real time      6.3687
    MIXING:  cpu time      0.0133: real time      0.0134
    --------------------------------------------
      LOOP:  cpu time    100.3366: real time    100.4532

 eigenvalue-minimisations  :  4352
 total energy-change (2. order) :-0.1617453E-04  (-0.8085669E-06)
 number of electron     278.9999999 magnetization 
 augmentation part      -15.3265966 magnetization 

 Broyden mixing:
  rms(total) = 0.23426E-03    rms(broyden)= 0.25097E-02
  rms(prec ) = 0.46002E-03
  weight for this iteration     100.00
  WARNING: grid for Broyden might be to small

 eigenvalues of (default mixing * dielectric matrix)
  average eigenvalue GAMMA=   1.0962
  3.3769  2.6220  1.7694  0.9845  0.9845  0.9193  0.6872  0.6112  0.6112  0.3382
  0.3847  0.4482  0.5129

 Free energy of the ion-electron system (eV)
  ---------------------------------------------------
  alpha Z        PSCENC =        89.89570914
  Ewald energy   TEWEN  =     -3654.09942072
  -Hartree energ DENC   =     -4088.35451588
  -exchange      EXHF   =         0.00000000
  -V(xc)+E(xc)   XCENC  =      -327.93655197
  PAW double counting   =     40652.00034101   -39963.81372693
  entropy T*S    EENTRO =        -0.16430615
  eigenvalues    EBANDS =      -526.90923941
  atomic energy  EATOM  =      7149.07675483
  Solvation  Ediel_sol  =         0.00000000
  ---------------------------------------------------
  free energy    TOTEN  =      -670.30495608 eV

  energy without entropy =     -670.14064993  energy(sigma->0) =     -670.22280301


--------------------------------------------------------------------------------------------------------




--------------------------------------- Iteration      1(  15)  ---------------------------------------


    POTLOK:  cpu time      0.5810: real time      0.6039
    SETDIJ:  cpu time      0.9948: real time      0.9952
    EDDIAG:  cpu time     16.4496: real time     16.4635
     EDDAV:  cpu time     69.7497: real time     69.8104
       DOS:  cpu time      0.0044: real time      0.0044
    CHARGE:  cpu time      6.3711: real time      6.3756
    MIXING:  cpu time      0.0132: real time      0.0132
    --------------------------------------------
      LOOP:  cpu time     94.1638: real time     94.2662

 eigenvalue-minimisations  :  3720
 total energy-change (2. order) :-0.1104735E-04  (-0.4785163E-06)
 number of electron     278.9999999 magnetization 
 augmentation part      -15.3266077 magnetization 

 Broyden mixing:
  rms(total) = 0.16610E-03    rms(broyden)= 0.29737E-02
  rms(prec ) = 0.31372E-03
  weight for this iteration     100.00
  WARNING: grid for Broyden might be to small

 eigenvalues of (default mixing * dielectric matrix)
  average eigenvalue GAMMA=   1.1231
  3.5972  2.6245  2.1954  1.2148  0.9612  0.9612  0.3381  0.6971  0.6357  0.6357
  0.3852  0.4490  0.5142  0.5142

 Free energy of the ion-electron system (eV)
  ---------------------------------------------------
  alpha Z        PSCENC =        89.89570914
  Ewald energy   TEWEN  =     -3654.09942072
  -Hartree energ DENC   =     -4088.31665910
  -exchange      EXHF   =         0.00000000
  -V(xc)+E(xc)   XCENC  =      -327.93856511
  PAW double counting   =     40651.84361159   -39963.65716994
  entropy T*S    EENTRO =        -0.16430798
  eigenvalues    EBANDS =      -526.94491984
  atomic energy  EATOM  =      7149.07675483
  Solvation  Ediel_sol  =         0.00000000
  ---------------------------------------------------
  free energy    TOTEN  =      -670.30496713 eV

  energy without entropy =     -670.14065914  energy(sigma->0) =     -670.22281314


--------------------------------------------------------------------------------------------------------




--------------------------------------- Iteration      1(  16)  ---------------------------------------


    POTLOK:  cpu time      0.6018: real time      0.6029
    SETDIJ:  cpu time      0.9925: real time      0.9930
    EDDIAG:  cpu time     16.4164: real time     16.4293
     EDDAV:  cpu time     74.5067: real time     74.5716
       DOS:  cpu time      0.0042: real time      0.0042
    CHARGE:  cpu time      6.3888: real time      6.3934
    MIXING:  cpu time      0.0147: real time      0.0147
    --------------------------------------------
      LOOP:  cpu time     98.9250: real time     99.0091

 eigenvalue-minimisations  :  4200
 total energy-change (2. order) :-0.8435887E-05  (-0.6228871E-06)
 number of electron     278.9999999 magnetization 
 augmentation part      -15.3266247 magnetization 

 Broyden mixing:
  rms(total) = 0.93699E-04    rms(broyden)= 0.29464E-02
  rms(prec ) = 0.18815E-03
  weight for this iteration     100.00
  WARNING: grid for Broyden might be to small

 eigenvalues of (default mixing * dielectric matrix)
  average eigenvalue GAMMA=   1.1566
  3.7733  2.5671  2.5671  1.3173  1.0304  1.0304  0.9372  0.6867  0.3381  0.6391
  0.6233  0.3853  0.4453  0.5045  0.5045

 Free energy of the ion-electron system (eV)
  ---------------------------------------------------
  alpha Z        PSCENC =        89.89570914
  Ewald energy   TEWEN  =     -3654.09942072
  -Hartree energ DENC   =     -4088.28278481
  -exchange      EXHF   =         0.00000000
  -V(xc)+E(xc)   XCENC  =      -327.94055422
  PAW double counting   =     40652.60739710   -39964.42134002
  entropy T*S    EENTRO =        -0.16430142
  eigenvalues    EBANDS =      -526.97643544
  atomic energy  EATOM  =      7149.07675483
  Solvation  Ediel_sol  =         0.00000000
  ---------------------------------------------------
  free energy    TOTEN  =      -670.30497556 eV

  energy without entropy =     -670.14067414  energy(sigma->0) =     -670.22282485


--------------------------------------------------------------------------------------------------------




--------------------------------------- Iteration      1(  17)  ---------------------------------------


    POTLOK:  cpu time      0.5811: real time      0.6053
    SETDIJ:  cpu time      0.9944: real time      0.9949
    EDDIAG:  cpu time     16.4105: real time     16.4241
     EDDAV:  cpu time     67.3466: real time     67.4097
[...]
   -.125E+03 -.284E+02 0.365E+02   0.125E+03 0.281E+02 -.323E+02   0.367E+00 0.868E+00 -.365E+01   -.158E-03 0.117E-03 -.416E-04
   0.300E+01 0.421E+02 -.752E+01   -.314E+01 -.418E+02 0.672E+01   -.163E+00 -.719E+00 0.382E+00   -.310E-04 -.693E-04 0.255E-04
   -.115E+03 -.102E+03 -.231E+02   0.116E+03 0.104E+03 0.237E+02   0.357E-02 -.203E+01 -.777E+00   0.249E-04 0.786E-05 0.318E-04
   0.103E+02 -.564E+01 0.465E+01   -.113E+02 0.727E+01 -.424E+01   0.966E+00 -.266E+01 -.374E-01   -.824E-05 -.803E-04 -.945E-05
   -.282E+02 -.338E+02 -.790E+01   0.290E+02 0.339E+02 0.809E+01   -.938E+00 -.605E+00 0.116E+01   0.161E-03 -.734E-04 0.104E-04
   -.908E+02 -.601E+02 -.213E+02   0.887E+02 0.600E+02 0.223E+02   0.211E+01 0.101E+01 -.624E+00   0.460E-04 0.618E-04 -.867E-04
   -.462E+01 0.959E+01 0.245E+00   0.268E+01 -.104E+02 0.303E+00   0.254E+01 0.934E+00 -.103E+01   -.137E-03 -.141E-03 -.180E-04
   -.305E+02 0.367E+02 0.212E+02   0.281E+02 -.369E+02 -.212E+02   0.254E+01 -.655E+00 -.271E+00   0.826E-04 -.271E-04 -.964E-04
   -.169E+02 -.114E+02 -.184E+02   0.166E+02 0.117E+02 0.183E+02   0.138E+00 -.581E+00 -.890E+00   0.129E-03 -.101E-03 -.143E-04
   -.484E+01 0.332E+02 -.917E+01   0.452E+01 -.310E+02 0.980E+01   -.338E+00 -.145E+01 -.112E+01   0.843E-04 0.138E-04 0.109E-03
   0.117E+02 -.366E+02 -.118E+02   -.917E+01 0.374E+02 0.110E+02   -.317E+01 -.182E+01 0.343E+00   0.625E-05 -.198E-04 -.133E-04
   -.450E+02 0.716E+02 0.140E+02   0.454E+02 -.710E+02 -.135E+02   0.679E+00 -.110E+01 0.191E+00   0.133E-03 -.265E-03 -.148E-03
   0.579E+02 -.387E+02 0.108E+02   -.604E+02 0.379E+02 -.886E+01   0.327E+01 0.130E+01 -.185E+01   -.171E-03 0.697E-04 0.136E-03
   0.139E+02 -.209E+02 0.658E+01   -.109E+02 0.199E+02 -.688E+01   -.333E+01 0.823E+00 0.945E+00   0.239E-05 -.958E-04 0.822E-05
   0.111E+03 -.474E+02 0.332E+01   -.112E+03 0.477E+02 -.335E+01   0.104E+01 -.103E+01 0.138E+00   -.198E-03 0.695E-04 -.313E-04
   0.503E+02 -.103E+03 0.979E+01   -.501E+02 0.102E+03 -.741E+01   0.580E+00 0.649E+00 -.297E+01   -.140E-03 -.705E-04 -.876E-04
   -.253E+02 0.124E+03 -.250E+01   0.245E+02 -.121E+03 0.252E+01   0.125E+01 -.282E+01 0.413E+00   -.150E-04 -.579E-04 0.374E-04
   -.134E+02 0.263E+02 0.898E+01   0.154E+02 -.260E+02 -.101E+02   -.269E+01 -.120E+01 0.725E+00   0.197E-04 0.195E-05 -.435E-04
   -.164E+02 -.251E+02 0.771E+00   0.182E+02 0.246E+02 -.278E+01   -.160E+01 0.159E+01 0.363E+01   0.224E-04 0.122E-03 -.278E-05
   -.187E+02 0.465E+02 -.997E+01   0.202E+02 -.473E+02 0.892E+01   -.125E+01 0.781E+00 0.151E+01   0.836E-04 -.145E-03 0.571E-04
   0.738E+02 -.709E+01 -.131E+02   -.760E+02 0.673E+01 0.138E+02   0.203E+01 -.270E+00 0.179E+00   -.905E-05 0.492E-04 -.142E-03
   0.105E+03 0.129E+03 -.110E+02   -.104E+03 -.129E+03 0.975E+01   -.197E+01 0.551E+00 0.278E+01   -.888E-04 -.237E-04 -.104E-04
   0.479E+01 -.106E+03 0.203E+02   -.488E+01 0.103E+03 -.188E+02   0.137E+00 0.304E+01 -.220E+01   -.596E-04 -.239E-04 0.365E-04
   0.375E+02 -.298E+02 0.677E+00   -.356E+02 0.289E+02 -.108E+01   -.242E+01 0.193E+01 0.732E+00   -.629E-04 0.544E-05 0.439E-06
   0.238E+02 -.309E+01 0.901E+01   -.235E+02 0.189E+01 -.727E+01   0.352E+00 0.133E+01 -.220E+01   -.153E-03 -.167E-03 0.366E-04
   -.213E+02 -.413E+02 -.331E+01   0.231E+02 0.397E+02 0.174E+01   -.158E+01 0.250E+01 0.220E+01   0.221E-03 -.352E-04 -.378E-04
   0.254E+02 -.131E+03 -.560E+01   -.255E+02 0.131E+03 0.501E+01   -.370E+00 0.867E-01 0.103E+01   -.214E-03 -.137E-03 0.874E-04
   -.784E+02 0.645E+02 -.293E+02   0.814E+02 -.656E+02 0.300E+02   -.293E+01 0.114E+01 -.637E+00   0.150E-03 -.101E-03 0.122E-03
   -.630E+02 -.962E+02 0.342E+01   0.626E+02 0.946E+02 -.328E+01   0.439E+00 0.172E+01 0.241E+00   0.311E-03 -.158E-03 0.153E-03
   -.554E+02 -.940E+02 0.115E+02   0.527E+02 0.928E+02 -.100E+02   0.320E+01 0.170E+01 -.189E+01   0.916E-04 -.383E-04 -.714E-04
   0.371E+02 -.279E+02 -.162E+02   -.353E+02 0.255E+02 0.155E+02   -.201E+01 0.296E+01 0.904E+00   -.184E-03 -.121E-03 -.761E-05
   0.422E+02 0.550E+02 0.347E+01   -.416E+02 -.538E+02 -.379E+01   -.109E+01 -.125E+01 -.694E+00   -.862E-04 -.114E-03 -.489E-04
   0.104E+02 0.748E+02 0.189E+02   -.127E+02 -.716E+02 -.163E+02   0.287E+01 -.320E+01 -.238E+01   -.140E-03 -.385E-04 -.776E-07
   -.207E+02 -.594E+02 -.247E+01   0.225E+02 0.567E+02 0.218E+01   -.204E+01 0.227E+01 0.492E-01   -.653E-04 0.170E-03 0.327E-04
   -.236E+02 -.259E+02 0.143E+02   0.230E+02 0.260E+02 -.143E+02   0.833E+00 -.208E+00 -.604E+00   0.218E-03 -.704E-04 0.330E-04
   0.252E+02 0.347E+02 -.215E+01   -.268E+02 -.361E+02 0.355E+01   0.127E+01 0.121E+01 -.911E+00   -.138E-03 -.119E-03 -.332E-04
   -.750E+02 0.795E+02 -.266E+02   0.728E+02 -.795E+02 0.248E+02   0.152E+01 -.600E+00 0.219E+01   -.999E-04 -.587E-04 0.200E-03
   -.871E+02 -.120E+03 0.202E+00   0.857E+02 0.117E+03 -.139E+01   0.141E+01 0.254E+01 0.130E+01   0.183E-03 -.130E-03 -.161E-03
   0.129E+03 0.540E+02 0.108E+02   -.127E+03 -.546E+02 -.950E+01   -.185E+01 0.880E+00 -.212E+00   -.653E-04 0.633E-04 0.531E-04
   -.548E+02 0.615E+02 0.252E+02   0.529E+02 -.608E+02 -.239E+02   0.262E+01 -.128E+01 -.159E+01   0.744E-04 -.652E-04 -.532E-04
   0.448E+02 -.493E+02 -.615E+01   -.439E+02 0.505E+02 0.448E+01   -.870E+00 -.955E+00 0.218E+01   -.172E-03 0.536E-04 -.866E-04
   -.490E+02 0.767E+02 0.141E+02   0.486E+02 -.746E+02 -.137E+02   -.386E-01 -.194E+01 -.153E+01   0.160E-03 -.147E-03 -.334E-04
   0.846E+02 -.969E+02 -.670E+01   -.839E+02 0.960E+02 0.644E+01   -.138E+01 0.153E+00 -.794E-01   -.188E-03 0.810E-04 0.108E-03
   -.224E+01 0.142E+01 0.805E+01   0.436E+01 -.484E+01 -.649E+01   -.248E+01 0.413E+01 -.142E+01   -.396E-05 -.146E-03 0.254E-05
   0.135E+03 0.461E+02 -.153E+02   -.133E+03 -.468E+02 0.162E+02   -.118E+01 0.163E+01 -.147E+01   -.390E-04 0.690E-04 -.554E-04
   -.687E+01 -.116E+02 -.410E+01   0.479E+01 0.116E+02 0.477E+01   0.217E+01 0.159E+00 -.952E-01   0.154E-04 0.171E-03 -.370E-04
   0.965E+02 0.100E+03 -.922E+01   -.938E+02 -.964E+02 0.650E+01   -.282E+01 -.412E+01 0.294E+01   -.198E-03 0.797E-04 -.131E-03
   -.978E+01 0.641E+02 -.194E+02   0.107E+02 -.634E+02 0.189E+02   -.126E+01 -.207E+00 0.323E+00   0.108E-03 -.100E-03 0.834E-04
   0.570E+01 -.289E+02 0.539E+01   -.823E+01 0.296E+02 -.481E+01   0.197E+01 -.756E+00 -.597E+00   -.116E-03 -.649E-04 0.299E-04
   0.501E+02 0.672E+02 0.742E+01   -.482E+02 -.666E+02 -.675E+01   -.117E+01 -.120E+01 0.866E-01   -.300E-04 -.135E-03 -.111E-03
   -.107E+03 -.634E+02 0.294E+02   0.106E+03 0.645E+02 -.274E+02   -.115E+00 -.128E+01 -.275E+01   0.731E-04 -.531E-04 -.361E-04
   -.374E+02 0.477E+01 -.325E+02   0.384E+02 -.540E+01 0.312E+02   -.106E+00 0.528E+00 0.144E+01   0.167E-03 0.207E-03 0.743E-04
   0.117E+02 -.204E+02 -.952E+01   -.106E+02 0.203E+02 0.785E+01   -.106E+01 -.173E+00 0.148E+01   -.998E-04 -.143E-03 -.228E-04
   0.437E+02 -.639E+02 0.208E+01   -.428E+02 0.647E+02 -.113E+01   -.866E+00 -.556E+00 -.138E+01   -.155E-03 -.569E-04 0.271E-04
   0.727E+02 0.109E+03 0.956E+01   -.717E+02 -.108E+03 -.873E+01   0.297E+00 -.150E+01 -.881E+00   -.740E-04 -.221E-04 0.210E-03
   0.283E+02 -.328E+02 -.113E+02   -.281E+02 0.342E+02 0.110E+02   -.445E+00 -.978E+00 0.236E+00   -.765E-04 -.106E-04 0.190E-05
   0.126E+02 0.313E+02 -.310E+02   -.135E+02 -.314E+02 0.276E+02   0.160E+01 -.610E+00 0.322E+01   -.671E-04 -.696E-05 0.114E-03
   0.289E+02 -.753E+02 0.217E+01   -.290E+02 0.728E+02 -.346E+01   0.463E+00 0.168E+01 0.168E+01   -.137E-03 0.742E-05 0.280E-04
   -.539E+02 -.330E+02 -.305E+02   0.557E+02 0.317E+02 0.287E+02   -.228E+01 0.746E+00 0.146E+01   -.599E-05 0.241E-03 0.763E-04
   -.393E+02 -.285E+02 0.251E+02   0.367E+02 0.304E+02 -.243E+02   0.380E+01 -.218E+01 -.468E+00   0.511E-04 0.659E-04 -.877E-05
   -.560E+02 0.618E+02 0.113E+02   0.548E+02 -.598E+02 -.106E+02   0.125E+01 -.219E+01 -.144E+00   0.156E-03 -.803E-04 -.466E-04
   0.364E+01 -.394E+01 0.423E+02   -.252E+01 0.305E+01 -.396E+02   -.127E+01 0.135E+01 -.288E+01   -.223E-04 0.145E-03 -.816E-04
 -----------------------------------------------------------------------------------------------
   0.135E+02 0.380E+01 0.727E+01   0.213E-13 0.808E-13 0.497E-13   -.135E+02 -.379E+01 -.727E+01   -.988E-03 -.188E-02 0.240E-03


 POSITION                                       TOTAL-FORCE (eV/Angst)
 -----------------------------------------------------------------------------------
     12.77840      2.83485      0.06948         0.342120      0.098076     -0.406854
      6.49853      3.73656      4.74680        -0.378750      0.209243      0.008967
      6.17307      6.52917      2.93560         0.210785      0.056005     -0.402486
      2.40877     10.79100      4.95677        -0.363445      0.782898     -1.220942
      7.53838     13.40560      1.22428        -0.142760      0.466633     -0.376199
      1.67020     10.12080      8.57065        -1.787320      0.682885      0.619454
      9.45914      8.83206      6.61986        -1.021024      1.094681     -0.597709
      4.92586      6.04143      3.58123         0.235333      1.236774     -1.019136
     13.94910      3.66090      3.37756         0.818690     -1.391999     -0.704490
     13.05320      7.19663      7.77931        -0.414149     -0.423218     -0.111006
      5.17587      3.73685      3.99176         0.606154      0.628050      0.486409
     14.27610      8.20905      6.03146        -0.353274     -0.465471     -0.400727
      4.71494      1.53162      8.17065         0.404995     -0.195065     -0.337552
      1.27020     12.20070      2.96120        -0.049892     -1.132757      0.394745
      5.79921     12.47240      6.50389        -0.147832     -0.492165      1.416187
      4.09942      1.51024      5.89273         0.039752      0.957656      0.316342
     13.96800      9.83223      1.15151         0.702882      0.154693     -0.541742
      7.60675     10.65020      4.10323         0.240495     -0.968527     -0.322200
      3.74723     12.63290      5.48855        -0.093574     -0.309227     -1.032978
      0.58026      6.19564      5.08578        -0.731465      0.649263     -0.561816
      2.45394     14.51370      5.96466        -0.813435     -1.246868     -0.466363
      3.30475      8.52812      0.21438         1.167192     -0.481664      0.674972
     13.80160      1.27534      3.95180         0.900700      0.679621     -0.083980
      2.06315     12.33410      0.59549        -0.559575     -0.166125      0.738100
     12.85660      1.45853      6.05323        -0.025724     -0.767941      0.156972
     11.80960     14.50720      0.56907         0.848078     -0.211255     -0.685851
      7.10707      9.00026      5.80236         0.499385     -0.105871      0.501346
      1.16886      6.69806      2.74548        -0.826508     -0.943523     -0.333037
      1.91438      3.08621      3.35933         0.133969      1.218590      1.797080
      3.84992      9.23574      3.96626         0.164622     -0.089332      0.526095
     13.51300      3.21189      7.40898        -0.074615     -0.635077      0.874717
     10.47840      7.91929      1.65650        -1.206925      0.654821      1.653145
      9.35838     12.73670      6.69729         0.063861      0.280904     -0.755890
      1.32840     14.30060      3.86034        -0.556267      1.148968      0.332300
     12.05880     10.45700      8.59891         0.713622      0.175712     -0.550559
      4.78922     12.59820      3.27665         0.193151      1.035771      0.716287
      9.68844     13.66630      0.16342        -0.431175     -0.128240      0.484618
      3.89527      6.85879      7.21400        -0.288162      0.235240      0.011748
      5.68645     13.84980      8.40691         0.050708      0.048880      0.424781
      7.55215     12.81010      5.11440         0.581360      0.512638     -0.523980
     10.41630     11.44070      1.25578        -0.353857      0.745132      0.135366
     10.83930      9.89619      5.02230        -0.528325     -0.028308     -1.076897
     13.89460      7.52975      1.35326         0.701674     -0.207551      0.196297
      2.47428      1.61564      0.23616        -0.386222     -0.328499     -0.208724
      4.29695     12.40530      1.03961         0.233657     -0.169004     -0.552741
     12.94590      9.13385      4.31373        -0.332143     -0.092478      0.431708
      5.11320      7.71407      5.31708        -0.606320     -0.617041      0.489611
      6.64591     14.12940      3.29113        -0.056388     -0.395983      0.180034
     12.84220      5.39810      4.39252         0.330973      0.351048      1.069481
      3.21884      7.59448      2.46450         0.830575     -0.591800     -0.341386
     13.50940     14.14500      7.39393        -0.079514      0.168835      0.667074
      5.08271     10.09840      0.78743        -0.421261      0.160245     -1.205098
     12.14180      0.33789      2.74764        -0.673926     -0.885031     -0.457967
      0.73995     10.20210      6.47903        -0.488697      0.925388      0.068290
     12.44870      5.11172      6.74830         0.438273      1.041869     -0.753632
      1.20256      3.65687      8.19392         0.206475      0.230557      0.599069
     12.31260      7.31595      2.95302        -0.197346     -0.271175      0.349241
      6.49492     10.43130      7.60318        -0.313826      0.515752     -0.215618
     13.20450     11.79320      6.85525        -0.516934     -0.040392     -0.022544
      9.53226      9.90502      2.84005         0.726340     -0.676806      0.765681
      5.04129      1.38216      3.72324        -0.900341     -0.199401     -0.846988
      2.13521      5.25174      6.59968         0.907399     -0.110674      0.111235
     13.68440     11.12700      3.10112        -0.068257     -0.351018     -0.155602
     11.74260     12.58890      3.18898        -0.001810      0.181897     -0.473480
     11.00870      8.37176      8.16159         1.336479     -0.298483     -0.060298
      1.31236     14.22990      8.02386        -0.310801      0.317192     -0.120678
      8.75079     10.87850      7.94078         0.786267     -0.631967     -0.069935
     11.26310     12.18780      5.42760         0.459502     -0.882249      0.481821
      3.27688      3.65930      5.28470        -0.513961     -0.604791     -0.329885
      2.66014      1.14273      2.52995         1.274469     -0.306459      0.366891
      5.59304     10.46790      2.97070         0.106565     -0.271981      0.587644
      1.00944      4.48669      1.81893        -0.240702      0.469497     -0.306738
 -----------------------------------------------------------------------------------
    total drift:                                0.007765      0.009338     -0.004683


--------------------------------------------------------------------------------------------------------



  FREE ENERGIE OF THE ION-ELECTRON SYSTEM (eV)
  ---------------------------------------------------
  free  energy   TOTEN  =      -670.30497998 eV

  energy  without entropy=     -670.14067803  energy(sigma->0) =     -670.22282900



--------------------------------------------------------------------------------------------------------


    POTLOK:  cpu time      1.5523: real time      1.5683


--------------------------------------------------------------------------------------------------------


     LOOP+:  cpu time   1938.7332: real time   1940.8257
    4ORBIT:  cpu time      0.0000: real time      0.0000



 total charge

# of ion       s       p       d       tot
------------------------------------------
    1        0.544   0.013   0.000   0.557
    2        0.553   0.014   0.000   0.567
    3        0.574   0.016   0.000   0.590
    4        0.758   0.896   0.000   1.654
    5        0.787   0.832   0.000   1.619
    6        0.756   0.939   0.000   1.695
    7        0.763   0.900   0.000   1.663
    8        0.752   0.912   0.000   1.664
    9        0.757   0.884   0.000   1.641
   10        0.753   0.907   0.000   1.659
   11        0.741   0.955   0.000   1.695
   12        0.752   0.961   0.000   1.713
   13        0.807   0.831   0.000   1.639
   14        0.763   0.870   0.000   1.634
   15        0.755   0.973   0.000   1.727
   16        0.759   0.946   0.000   1.705
   17        0.761   0.927   0.000   1.688
   18        0.756   0.904   0.000   1.659
   19        0.757   0.940   0.000   1.697
   20        0.766   0.860   0.000   1.626
   21        0.764   0.949   0.000   1.713
   22        0.746   0.906   0.000   1.652
   23        0.757   0.885   0.000   1.642
   24        0.754   0.932   0.000   1.686
   25        0.790   0.885   0.000   1.675
   26        0.792   0.843   0.000   1.635
   27        0.763   0.864   0.000   1.627
   28        0.754   0.916   0.000   1.670
   29        0.771   0.920   0.000   1.692
   30        0.755   0.944   0.000   1.699
   31        0.744   0.956   0.000   1.700
   32        0.789   0.861   0.000   1.650
   33        0.747   0.948   0.000   1.695
   34        0.762   0.908   0.000   1.670
   35        0.760   0.921   0.000   1.681
   36        0.762   0.946   0.000   1.708
   37        0.769   0.875   0.000   1.643
   38        0.785   0.817   0.000   1.602
   39        0.756   0.905   0.000   1.660
   40        0.752   0.920   0.000   1.672
   41        0.753   0.867   0.000   1.619
   42        0.760   0.912   0.000   1.672
   43        0.753   0.945   0.000   1.698
   44        0.755   0.895   0.000   1.651
   45        0.767   0.935   0.000   1.702
   46        0.758   0.919   0.000   1.677
   47        0.756   0.880   0.000   1.636
   48        0.753   0.887   0.000   1.640
   49        0.760   0.879   0.000   1.640
   50        0.755   0.922   0.000   1.676
   51        0.758   0.862   0.000   1.620
   52        0.753   0.932   0.000   1.685
   53        0.788   0.917   0.000   1.704
   54        0.754   0.925   0.000   1.679
   55        0.792   0.853   0.000   1.645
   56        0.759   0.866   0.000   1.624
   57        0.753   0.942   0.000   1.695
   58        0.757   0.926   0.000   1.684
   59        0.761   0.836   0.000   1.597
   60        0.758   0.858   0.000   1.617
   61        0.770   0.840   0.000   1.609
   62        0.746   0.891   0.000   1.636
   63        0.754   0.900   0.000   1.654
   64        0.770   0.864   0.000   1.634
   65        0.758   0.957   0.000   1.716
   66        0.754   0.906   0.000   1.660
   67        0.786   0.860   0.000   1.646
   68        0.760   0.927   0.000   1.687
   69        0.755   0.945   0.000   1.700
   70        0.763   0.928   0.000   1.691
   71        0.759   0.972   0.000   1.731
   72        0.759   0.920   0.000   1.679
--------------------------------------------------
tot         54.221  62.450   0.000 116.670


 total amount of memory used by VASP MPI-rank0   164291. kBytes
=======================================================================

   base                                    :      30000. kBytes
   nonl-proj                               :      29094. kBytes
   fftplans                                :      33483. kBytes
   grid                                    :      25810. kBytes
   one-center                              :         15. kBytes
   wavefun                                 :      45889. kBytes

  
  
 General timing and accounting informations for this job:
 ========================================================
  
                  Total CPU time used (sec):     1993.149
                            User time (sec):     1985.872
                          System time (sec):        7.278
                         Elapsed time (sec):     1995.176
  
                   Maximum memory used (kb):      344424.
                   Average memory used (kb):          N/A
  
                          Minor page faults:       254153
                          Major page faults:         1138
                 Voluntary context switches:         2697
