 vasp.6.5.0 16Dec24 (build Jan 20 2025 08:32:48) complex                         
 executed on        HPECrayEX_GCC date 2025.07.22  02:50:00
 running  128 mpi-ranks, with    1 threads/rank, on    1 nodes
 distrk:  each k-point on  128 cores,    1 groups
 distr:  one band on NCORE=  16 cores,    8 groups


--------------------------------------------------------------------------------------------------------


 INCAR:
   SYSTEM = a-Si SPC
   NCORE = 16
   ISTART = 1
   ICHARG = 1
   ISPIN = 1
   ISYM = 1
   EDIFF = 1E-6
   NELM = 150
   EDIFFG = -0.01
   NSW = 0
   ISIF = 2
   IBRION = -1
   PREC = Accurate
   ENCUT = 1200
   KSPACING = 0.23
   KGAMMA = .TRUE.
   METAGGA = SCAN
   LASPH = .TRUE.
   LDIAG = .FALSE.
   LMIXTAU = .TRUE.
   ADDGRID = .TRUE.
   ALGO = Normal
   ISMEAR = 0
   SIGMA = 0.1
   LORBIT = 11
   NEDOS = 2000
   LWAVE = .FALSE.
   LCHARG = .FALSE.

 POTCAR:    PAW_PBE H 15Jun2001                   
 POTCAR:    PAW_PBE Si 05Jan2001                  
 POTCAR:    PAW_PBE H 15Jun2001                   
   SHA256 =  030f79b5d3ab3cf0e668861823c8fb652ff669f3e15e46930bd03bfd63a607b6 H/POTCAR              
   COPYR  = (c) Copyright 15Jun2001 Georg Kresse                                                    
   COPYR  = This file is part of the software VASP. Any use, copying, and all other rights are regul
   COPYR  = If you do not have a valid VASP license, you may not use, copy or distribute this file. 
   VRHFIN =H: ultrasoft test                                                                        
   LEXCH  = PE                                                                                      
   EATOM  =    12.4884 eV,    0.9179 Ry                                                             
                                                                                                    
   TITEL  = PAW_PBE H 15Jun2001                                                                     
   LULTRA =        F    use ultrasoft PP ?                                                          
   IUNSCR =        0    unscreen: 0-lin 1-nonlin 2-no                                               
   RPACOR =    0.000    partial core radius                                                         
   POMASS =    1.000; ZVAL   =    1.000    mass and valenz                                          
   RCORE  =    1.100    outmost cutoff radius                                                       
   RWIGS  =    0.700; RWIGS  =    0.370    wigner-seitz radius (au A)                               
   ENMAX  =  250.000; ENMIN  =  200.000 eV                                                          
   RCLOC  =    0.701    cutoff for local pot                                                        
   LCOR   =        T    correct aug charges                                                         
   LPAW   =        T    paw PP                                                                      
   EAUG   =  400.000                                                                                
   RMAX   =    1.123    core radius for proj-oper                                                   
   RAUG   =    1.200    factor for augmentation sphere                                              
   RDEP   =    1.112    radius for radial grids                                                     
   RDEPT  =    0.926    core radius for aug-charge                                                  
                                                                                                    
   Atomic configuration                                                                             
    2 entries                                                                                       
     n  l   j            E        occ.                                                              
     1  0  0.50        -6.4927   1.0000                                                             
     2  1  0.50        -3.4015   0.0000                                                             
   Description                                                                                      
     l       E           TYP  RCUT    TYP  RCUT                                                     
     0     -6.4927494     23  1.100                                                                 
     0      6.8029130     23  1.100                                                                 
     1     -4.0817478     23  1.100                                                                 
  local pseudopotential read in
  atomic valenz-charges read in
  non local Contribution for L=           0  read in
    real space projection operators read in
  non local Contribution for L=           0  read in
    real space projection operators read in
  non local Contribution for L=           1  read in
    real space projection operators read in
    PAW grid and wavefunctions read in

   number of l-projection  operators is LMAX  =           3
   number of lm-projection operators is LMMAX =           5

 POTCAR:    PAW_PBE Si 05Jan2001                  
   SHA256 =  79d9987ad8750f624c4d6acb2a16d13abf6a777132adc04dc6c8399be72b42bb Si/POTCAR             
   COPYR  = (c) Copyright 05Jan2001 Georg Kresse                                                    
   COPYR  = This file is part of the software VASP. Any use, copying, and all other rights are regul
   COPYR  = If you do not have a valid VASP license, you may not use, copy or distribute this file. 
   VRHFIN =Si: s2p2                                                                                 
   LEXCH  = PE                                                                                      
   EATOM  =   103.0669 eV,    7.5752 Ry                                                             
                                                                                                    
   TITEL  = PAW_PBE Si 05Jan2001                                                                    
   LULTRA =        F    use ultrasoft PP ?                                                          
   IUNSCR =        1    unscreen: 0-lin 1-nonlin 2-no                                               
   RPACOR =    1.500    partial core radius                                                         
   POMASS =   28.085; ZVAL   =    4.000    mass and valenz                                          
   RCORE  =    1.900    outmost cutoff radius                                                       
   RWIGS  =    2.480; RWIGS  =    1.312    wigner-seitz radius (au A)                               
   ENMAX  =  245.345; ENMIN  =  184.009 eV                                                          
   ICORE  =        2    local potential                                                             
   LCOR   =        T    correct aug charges                                                         
   LPAW   =        T    paw PP                                                                      
   EAUG   =  322.069                                                                                
   DEXC   =    0.000                                                                                
   RMAX   =    1.950    core radius for proj-oper                                                   
   RAUG   =    1.300    factor for augmentation sphere                                              
   RDEP   =    1.993    radius for radial grids                                                     
   RDEPT  =    1.837    core radius for aug-charge                                                  
                                                                                                    
   Atomic configuration                                                                             
    6 entries                                                                                       
     n  l   j            E        occ.                                                              
     1  0  0.50     -1785.8828   2.0000                                                             
     2  0  0.50      -139.4969   2.0000                                                             
     2  1  1.50       -95.5546   6.0000                                                             
     3  0  0.50       -10.8127   2.0000                                                             
     3  1  0.50        -4.0811   2.0000                                                             
     3  2  1.50        -4.0817   0.0000                                                             
   Description                                                                                      
     l       E           TYP  RCUT    TYP  RCUT                                                     
     0    -10.8127223     23  1.900                                                                 
     0     -7.6451159     23  1.900                                                                 
     1     -4.0811372     23  1.900                                                                 
     1      2.4879257     23  1.900                                                                 
     2     -4.0817478      7  1.900                                                                 
  local pseudopotential read in
  partial core-charges read in
  partial kinetic energy density read in
  atomic valenz-charges read in
  non local Contribution for L=           0  read in
    real space projection operators read in
  non local Contribution for L=           0  read in
    real space projection operators read in
  non local Contribution for L=           1  read in
    real space projection operators read in
  non local Contribution for L=           1  read in
    real space projection operators read in
    PAW grid and wavefunctions read in

   number of l-projection  operators is LMAX  =           4
   number of lm-projection operators is LMMAX =           8

 -----------------------------------------------------------------------------
|                                                                             |
|               ----> ADVICE to this user running VASP <----                  |
|                                                                             |
|     You have a (more or less) 'large supercell' and for larger cells it     |
|     might be more efficient to use real-space projection operators.         |
|     Therefore, try LREAL= Auto in the INCAR file.                           |
|     Mind: For very accurate calculation, you might also keep the            |
|     reciprocal projection scheme (i.e. LREAL=.FALSE.).                      |
|                                                                             |
 -----------------------------------------------------------------------------

 -----------------------------------------------------------------------------
|                                                                             |
|               ----> ADVICE to this user running VASP <----                  |
|                                                                             |
|     You enforced a specific xc type in the INCAR file but a different       |
|     type was found in the POTCAR file.                                      |
|     I HOPE YOU KNOW WHAT YOU ARE DOING!                                     |
|                                                                             |
 -----------------------------------------------------------------------------

  PAW_PBE H 15Jun2001                   :
 energy of atom  1       EATOM=  -12.4884
 kinetic energy error for atom=    0.0000 (will be added to EATOM!!)
  PAW_PBE Si 05Jan2001                  :
 energy of atom  2       EATOM= -103.0669
 kinetic energy error for atom=    0.0001 (will be added to EATOM!!)


 POSCAR:  H Si
  positions in cartesian coordinates
  No initial velocities read in


 exchange-correlation table for SCAN
   RHO(1)=    0.500       N(1)  =     2000
   RHO(2)=  100.500       N(2)  =     4000



--------------------------------------------------------------------------------------------------------


 ion  position               nearest neighbor table
   1  0.692  0.567  0.395-
   2  0.607  0.395  0.431-
   3  0.137  0.386  0.568-  28 1.58
   4  0.980  0.117  0.395-  20 2.25  17 2.44
   5  0.621  0.440  0.544-  29 2.30  12 2.35  43 2.40
   6  0.407  0.077  0.601-  19 2.35  55 2.48
   7  0.085  0.903  0.537-  39 2.31  33 2.31  36 2.39  21 2.47
   8  0.514  0.659  0.561-  41 2.28  46 2.38  12 2.44
   9  0.803  0.742  0.419-  54 2.32  13 2.50
  10  0.832  0.942  0.520-  15 2.32  33 2.33  16 2.38  51 2.42
  11  0.084  0.528  0.537-  57 2.25  59 2.40  32 2.48
  12  0.558  0.555  0.489-   5 2.35   8 2.44  52 2.45  13 2.50
  13  0.652  0.681  0.449-  46 2.30   9 2.50  12 2.50
  14  0.462  0.236  0.424-  37 2.29  34 2.42
  15  0.894  0.058  0.572-  22 2.28  10 2.32  36 2.61
  16  0.718  0.844  0.557-  46 2.25  10 2.38  50 2.49
  17  0.992  0.950  0.395-  33 2.44   4 2.44
  18  0.138  0.244  0.478-  20 2.26  27 2.33  32 2.37  44 2.38
  19  0.555  0.060  0.565-  31 2.25   6 2.35  47 2.38
  20  0.988  0.230  0.456-  22 2.23   4 2.25  18 2.26  23 2.31
  21  0.230  0.919  0.487-  49 2.28  56 2.30  24 2.42   7 2.47
  22  0.888  0.180  0.516-  20 2.23  15 2.28  26 2.36  35 2.37
  23  0.915  0.346  0.409-  20 2.31  45 2.38
  24  0.307  0.060  0.462-  55 2.32  44 2.34  21 2.42  37 2.48
  25  0.227  0.698  0.413-  42 2.26  56 2.36  40 2.55
  26  0.851  0.310  0.568-  43 2.36  22 2.36
  27  0.162  0.178  0.561-  28 2.25  55 2.30  18 2.33  36 2.40
  28  0.112  0.302  0.605-   3 1.58  27 2.25
  29  0.550  0.298  0.543-  34 2.29   5 2.30  31 2.37
  30  0.454  0.779  0.415-  58 2.31  42 2.54
  31  0.653  0.172  0.541-  19 2.25  29 2.37  35 2.45
  32  0.167  0.403  0.490-  18 2.37  38 2.40  48 2.46  11 2.48
  33  0.962  0.878  0.481-   7 2.31  10 2.33  54 2.37  17 2.44
  34  0.405  0.278  0.510-  29 2.29  55 2.29  14 2.42  38 2.48
  35  0.755  0.139  0.466-  51 2.26  22 2.37  31 2.45
  36  0.072  0.046  0.584-   7 2.39  27 2.40  15 2.61
  37  0.464  0.079  0.425-  47 2.24  14 2.29  24 2.48
  38  0.322  0.425  0.520-  52 2.28  32 2.40  34 2.48
  39  0.128  0.779  0.588-   7 2.31  57 2.34
  40  0.087  0.594  0.404-  59 2.24  48 2.44  25 2.55
  41  0.363  0.692  0.545-   8 2.28  42 2.35  49 2.39  57 2.70
  42  0.356  0.652  0.456-  25 2.26  41 2.35  52 2.36  30 2.54
  43  0.785  0.443  0.531-  45 2.30  53 2.34  26 2.36   5 2.40
  44  0.216  0.159  0.411-  24 2.34  18 2.38
  45  0.864  0.480  0.455-  43 2.30  23 2.38  59 2.38
  46  0.599  0.775  0.516-  16 2.25  58 2.30  13 2.30   8 2.38
  47  0.552  0.993  0.479-  58 2.23  37 2.24  51 2.35  19 2.38
  48  0.167  0.447  0.396-  40 2.44  32 2.46
  49  0.343  0.855  0.537-  58 2.24  21 2.28  41 2.39
  50  0.832  0.716  0.565-  54 2.33  53 2.38  16 2.49
  51  0.711  0.990  0.460-  35 2.26  47 2.35  10 2.42
  52  0.409  0.498  0.458-  38 2.28  42 2.36  12 2.45
  53  0.826  0.559  0.590-  43 2.34  50 2.38
  54  0.912  0.724  0.485-  59 2.25   9 2.32  50 2.33  33 2.37
  55  0.312  0.158  0.535-  34 2.29  27 2.30  24 2.32   6 2.48
  56  0.234  0.859  0.403-  21 2.30  25 2.36
  57  0.185  0.641  0.554-  11 2.25  39 2.34  41 2.70
  58  0.475  0.863  0.491-  47 2.23  49 2.24  46 2.30  30 2.31
  59  0.984  0.589  0.470-  40 2.24  54 2.25  45 2.38  11 2.40

  LATTYP: Found a simple tetragonal cell.
 ALAT       =    14.5318920738
 C/A-ratio  =     1.7430367478
  
  Lattice vectors:
  
 A1 = (  14.5318920738,   0.0000000000,   0.0000000000)
 A2 = (   0.0000000000,  14.5318920738,   0.0000000000)
 A3 = (   0.0000000000,   0.0000000000,  25.3296219000)


Analysis of symmetry for initial positions (statically):
=====================================================================
 Subroutine PRICEL returns:
 Original cell was already a primitive cell.
 

 Routine SETGRP: Setting up the symmetry group for a 
 simple tetragonal supercell.


 Subroutine GETGRP returns: Found  1 space group operations
 (whereof  1 operations were pure point group operations)
 out of a pool of 16 trial point group operations.


The static configuration has the point symmetry C_1 .


Analysis of symmetry for dynamics (positions and initial velocities):
=====================================================================
 Subroutine PRICEL returns:
 Original cell was already a primitive cell.
 

 Routine SETGRP: Setting up the symmetry group for a 
 simple tetragonal supercell.


 Subroutine GETGRP returns: Found  1 space group operations
 (whereof  1 operations were pure point group operations)
 out of a pool of 16 trial point group operations.


The dynamic configuration has the point symmetry C_1 .


 Subroutine INISYM returns: Found  1 space group operations
 (whereof  1 operations are pure point group operations),
 and found     1 'primitive' translations


----------------------------------------------------------------------------------------

                                     Primitive cell                                     

  volume of cell :    5349.0054

  direct lattice vectors                    reciprocal lattice vectors
    14.531892074  0.000000000  0.000000000     0.068814164  0.000000000  0.000000000
     0.000000000 14.531892074  0.000000000     0.000000000  0.068814164  0.000000000
     0.000000000  0.000000000 25.329621900     0.000000000  0.000000000  0.039479468

  length of vectors
    14.531892074 14.531892074 25.329621900     0.068814164  0.068814164  0.039479468

  position of ions in fractional coordinates (direct lattice)
     0.691568582  0.566679821  0.394794681
     0.606875550  0.395320855  0.430963871
     0.137295267  0.386304135  0.568153049
     0.979893047  0.116993712  0.395219910
     0.620839320  0.439937206  0.543506017
     0.407154139  0.076639022  0.600915480
     0.084755653  0.903268476  0.537371302
     0.514180807  0.658509570  0.560668136
     0.803412243  0.741679056  0.418705535
     0.831653575  0.941928273  0.520006258
     0.083978741  0.527967725  0.536741210
     0.558423498  0.554697211  0.489138051
     0.651601316  0.681077175  0.448939662
     0.461978383  0.236161952  0.423660603
     0.893531271  0.057528228  0.572198904
     0.717628506  0.843847445  0.556909691
     0.992320885  0.949614815  0.395372775
     0.137946249  0.244156094  0.477637288
     0.554935308  0.059824832  0.564982847
     0.988081932  0.230369864  0.455623141
     0.229656261  0.919439804  0.487281332
     0.887778407  0.179906373  0.515679308
     0.914953121  0.346218509  0.409279023
     0.307209824  0.059968998  0.462262798
     0.227364061  0.697837553  0.412913897
     0.851306901  0.309832331  0.567696666
     0.161588043  0.178080045  0.560553251
     0.112156765  0.302161617  0.605205319
     0.550110059  0.298078872  0.543093456
     0.453568604  0.778804298  0.415179466
     0.652975535  0.171595687  0.540886949
     0.166725020  0.403337017  0.489737745
     0.962496826  0.878488495  0.480874209
     0.404855057  0.277592208  0.510110729
     0.755386838  0.138977085  0.466292073
     0.071526130  0.045585736  0.584201847
     0.463960231  0.078587839  0.425191854
     0.321579597  0.425319702  0.519678184
     0.127724593  0.779203420  0.588434441
     0.086691395  0.593577901  0.404290595
     0.363089677  0.691850720  0.545487096
     0.356129813  0.651984611  0.455538655
     0.784742960  0.443210008  0.530776257
     0.216016606  0.158763221  0.411412928
     0.863948062  0.479607883  0.454974494
     0.599107808  0.774627278  0.515800510
     0.552237793  0.993497607  0.478974457
     0.167308564  0.447339546  0.396141598
     0.343093657  0.854726964  0.537391831
     0.831791204  0.716376088  0.564588447
     0.710829667  0.990476665  0.460394235
     0.409216499  0.498183579  0.457541844
     0.826341122  0.558881800  0.590252076
     0.911849602  0.723814899  0.485225241
     0.311578835  0.157702795  0.534535492
     0.233675696  0.859076020  0.403208660
     0.185247041  0.641209689  0.554050588
     0.474792268  0.863067241  0.491469314
     0.983560842  0.588789124  0.470059598

  ion indices of the primitive-cell ions
   primitive index   ion index
                 1           1
                 2           2
                 3           3
                 4           4
                 5           5
                 6           6
                 7           7
                 8           8
                 9           9
                10          10
                11          11
                12          12
                13          13
                14          14
                15          15
                16          16
                17          17
                18          18
                19          19
                20          20
                21          21
                22          22
                23          23
                24          24
                25          25
                26          26
                27          27
                28          28
                29          29
                30          30
                31          31
                32          32
                33          33
                34          34
                35          35
                36          36
                37          37
                38          38
                39          39
                40          40
                41          41
                42          42
                43          43
                44          44
                45          45
                46          46
                47          47
                48          48
                49          49
                50          50
                51          51
                52          52
                53          53
                54          54
                55          55
                56          56
                57          57
                58          58
                59          59

----------------------------------------------------------------------------------------


 -----------------------------------------------------------------------------
|                                                                             |
|           W    W    AA    RRRRR   N    N  II  N    N   GGGG   !!!           |
|           W    W   A  A   R    R  NN   N  II  NN   N  G    G  !!!           |
|           W    W  A    A  R    R  N N  N  II  N N  N  G       !!!           |
|           W WW W  AAAAAA  RRRRR   N  N N  II  N  N N  G  GGG   !            |
|           WW  WW  A    A  R   R   N   NN  II  N   NN  G    G                |
|           W    W  A    A  R    R  N    N  II  N    N   GGGG   !!!           |
|                                                                             |
|     The requested file  could not be found or opened for reading            |
|     k-point information. Automatic k-point generation is used as a          |
|     fallback, which may lead to unwanted results.                           |
|                                                                             |
 -----------------------------------------------------------------------------



Automatic generation of k-mesh.
 Grid dimensions derived from KSPACING:
 generate k-points for:    2    2    2

 Generating k-lattice:

  Cartesian coordinates                     Fractional coordinates (reciprocal lattice)
     0.034407082  0.000000000  0.000000000     0.500000000  0.000000000  0.000000000
     0.000000000  0.034407082  0.000000000     0.000000000  0.500000000  0.000000000
     0.000000000  0.000000000  0.019739734     0.000000000  0.000000000  0.500000000

  Length of vectors
     0.034407082  0.034407082  0.019739734

  Shift w.r.t. Gamma in fractional coordinates (k-lattice)
     0.000000000  0.000000000  0.000000000

 
 Subroutine IBZKPT returns following result:
 ===========================================
 
 Found      8 irreducible k-points:
 
 Following reciprocal coordinates:
            Coordinates               Weight
  0.000000  0.000000  0.000000      1.000000
  0.500000  0.000000  0.000000      1.000000
  0.000000  0.500000  0.000000      1.000000
  0.500000  0.500000  0.000000      1.000000
  0.000000  0.000000  0.500000      1.000000
  0.500000  0.000000  0.500000      1.000000
  0.000000  0.500000  0.500000      1.000000
  0.500000  0.500000  0.500000      1.000000
 
 Following cartesian coordinates:
            Coordinates               Weight
  0.000000  0.000000  0.000000      1.000000
  0.034407  0.000000  0.000000      1.000000
  0.000000  0.034407  0.000000      1.000000
  0.034407  0.034407  0.000000      1.000000
  0.000000  0.000000  0.019740      1.000000
  0.034407  0.000000  0.019740      1.000000
  0.000000  0.034407  0.019740      1.000000
  0.034407  0.034407  0.019740      1.000000
 


--------------------------------------------------------------------------------------------------------




 Dimension of arrays:
   k-points           NKPTS =      8   k-points in BZ     NKDIM =      8   number of bands    NBANDS=    144
   number of dos      NEDOS =   2000   number of ions     NIONS =     59
   non local maximal  LDIM  =      4   non local SUM 2l+1 LMDIM =      8
   total plane-waves  NPLWV = ******
   max r-space proj   IRMAX =      1   max aug-charges    IRDMAX= 406622
   dimension x,y,z NGX =   168 NGY =  168 NGZ =  288
   dimension x,y,z NGXF=   336 NGYF=  336 NGZF=  576
   support grid    NGXF=   672 NGYF=  672 NGZF= 1152
   ions per type =               3  56
   NGX,Y,Z   is equivalent  to a cutoff of  19.22, 19.22, 18.90 a.u.
   NGXF,Y,Z  is equivalent  to a cutoff of  38.44, 38.44, 37.80 a.u.

 SYSTEM =  a-Si SPC                                
 POSCAR =   H Si                                   

 Startparameter for this run:
   NWRITE =      2    write-flag & timer
   PREC   = accura    normal or accurate (medium, high low for compatibility)
   ISTART =      1    job   : 0-new  1-cont  2-samecut
   ICHARG =      1    charge: 1-file 2-atom 10-const
   ISPIN  =      1    spin polarized calculation?
   LNONCOLLINEAR =      F non collinear calculations
   LSORBIT =      F    spin-orbit coupling
   INIWAV =      1    electr: 0-lowe 1-rand  2-diag
   LASPH  =      T    aspherical Exc in radial PAW
 Electronic Relaxation 1
   ENCUT  = 1200.0 eV  88.20 Ry    9.39 a.u.  41.05 41.05 71.54*2*pi/ulx,y,z
   ENINI  = 1200.0     initial cutoff
   ENAUG  =  400.0 eV  augmentation charge cutoff
   NELM   =    150;   NELMIN=  2; NELMDL=  0     # of ELM steps 
   EDIFF  = 0.1E-05   stopping-criterion for ELM
   LREAL  =      F    real-space projection
   NLSPLINE    = F    spline interpolate recip. space projectors
   LCOMPAT=      F    compatible to vasp.4.4
   GGA_COMPAT  = T    GGA compatible to vasp.4.4-vasp.4.6
   LMAXPAW     = -100 max onsite density
   LMAXMIX     =    2 max onsite mixed and CHGCAR
   VOSKOWN=      0    Vosko Wilk Nusair interpolation
   ROPT   =    0.00000   0.00000
 Ionic relaxation
   EDIFFG = -.1E-01   stopping-criterion for IOM
   NSW    =      0    number of steps for IOM
   NBLOCK =      1;   KBLOCK =      1    inner block; outer block 
   IBRION =     -1    ionic relax: 0-MD 1-quasi-New 2-CG
   NFREE  =      0    steps in history (QN), initial steepest desc. (CG)
   ISIF   =      2    stress and relaxation
   IWAVPR =     10    prediction:  0-non 1-charg 2-wave 3-comb
   ISYM   =      1    0-nonsym 1-usesym 2-fastsym
   LCORR  =      T    Harris-Foulkes like correction to forces

   POTIM  = 0.5000    time-step for ionic-motion
   TEIN   =    0.0    initial temperature
   TEBEG  =    0.0;   TEEND  =   0.0 temperature during run
   SMASS  =  -3.00    Nose mass-parameter (am)
   estimated Nose-frequenzy (Omega)   =  0.10E-29 period in steps = 0.13E+47 mass=  -0.483E-26a.u.
   SCALEE = 1.0000    scale energy and forces
   NPACO  =    256;   APACO  = 10.0  distance and # of slots for P.C.
   PSTRESS=    0.0 pullay stress

  Mass of Ions in am
   POMASS =   1.00 28.09
  Ionic Valenz
   ZVAL   =   1.00  4.00
  Atomic Wigner-Seitz radii
   RWIGS  =  -1.00 -1.00
  virtual crystal weights 
   VCA    =   1.00  1.00
   NELECT =     227.0000    total number of electrons
   NUPDOWN=      -1.0000    fix difference up-down

 DOS related values:
   EMIN   =  10.00;   EMAX   =-10.00  energy-range for DOS
   EFERMI =   0.00;   METHOD = LEGACY      
   ISMEAR =     0;   SIGMA  =   0.10  broadening in eV -4-tet -1-fermi 0-gaus
   EFERMI_NEDOS =   21; number of points for ismear=-14 and -15

 Electronic relaxation 2 (details)
   IALGO  =     38    algorithm
   LDIAG  =      F    sub-space diagonalisation (order eigenvalues)
   LSUBROT=      F    optimize rotation matrix (better conditioning)
   TURBO    =      0    0=normal 1=particle mesh
   IRESTART =      0    0=no restart 2=restart with 2 vectors
   NREBOOT  =      0    no. of reboots
   NMIN     =      0    reboot dimension
   EREF     =   0.00    reference energy to select bands
   IMIX   =      4    mixing-type and parameters
     AMIX     =   0.40;   BMIX     =  1.00
     AMIX_MAG =   1.60;   BMIX_MAG =  1.00
     AMIN     =   0.10
     WC   =   100.;   INIMIX=   1;  MIXPRE=   1;  MAXMIX= -45

 Intra band minimization:
   WEIMIN = 0.0000     energy-eigenvalue tresh-hold
   EBREAK =  0.17E-08  absolut break condition
   DEPER  =   0.30     relativ break condition  

   TIME   =   0.40     timestep for ELM

  volume/ion in A,a.u.               =      90.66       611.81
  Fermi-wavevector in a.u.,A,eV,Ry     =   0.571030  1.079091  4.436527  0.326076
  Thomas-Fermi vector in A             =   1.611326

 Write flags
   LWAVE        =      F    write WAVECAR
   LDOWNSAMPLE  =      F    k-point downsampling of WAVECAR
   LCHARG       =      F    write CHGCAR
   LVTOT        =      F    write LOCPOT, total local potential
   LVHAR        =      F    write LOCPOT, Hartree potential only
   WRT_POTENTIAL= false  ! write potential to hdf5 file
   LELF         =      F    write electronic localiz. function (ELF)
   LORBIT       =     11    0 simple, 1 ext, 2 COOP (PROOUT), +10 PAW based schemes


 Python interface
   PLUGINS active      =      F    recompile with -DPLUGINS to activate

 Dipole corrections
   LMONO      =      F    monopole corrections only (constant potential shift)
   LDIPOL     =      F    correct potential (dipole corrections)
   IDIPOL     =      0    1-x, 2-y, 3-z, 4-all directions 
   EPSILON    =  1.0000000 bulk dielectric constant
   LVACPOTAV  =      F  vacuum potentials using an averaging scheme for the charge density
   VACPOTFLAT =  0.1000000 required flatness to determine vacuum potential

Coulomb truncation method
  LTRUNCATE          =      F  Coulomb kernel truncation to be used
  IDIMENSIONALITY    =      3  Dimensionality of cutoff (0 molecules / 2 surfaces)
  ISURFACE           =     -1  Direction of surface normal
  LCOARSEN           =      F  Coarsen the charge grid before padding, preferred


 Exchange correlation treatment:
   METAGGA = SCAN    functional components
   XC_C    = 1    coefficients multiplying the functional components
   LIBXC   =     F    Libxc                    
   VOSKOWN =     0    Vosko Wilk Nusair interpolation
   LHFCALC =     F    Hartree Fock is set to
   LHFONE  =     F    Hartree Fock one center treatment
   AEXX    =    0.0000 exact exchange contribution

 Parameters of functionals:
   SCAN:
     P1 =  0.000000E+00
     P2 =  0.000000E+00
     P3 =  0.000000E+00

 Accuracy and mixing parameters for tau-dependent meta-GGA functionals:
   LMAXTAU = 6
   LMIXTAU = T

 Van der Waals corrections
   IVDW    =     0    specifies the selected vdW correction

 Linear response parameters
   LEPSILON=     F    determine dielectric tensor
   LRPA    =     F    only Hartree local field effects (RPA)
   LNABLA  =     F    use nabla operator in PAW spheres
   LVEL    =     F    velocity operator in full k-point grid
   CSHIFT  =0.1000    complex shift for real part using Kramers Kronig
   OMEGAMAX=  -1.0    maximum frequency
   DEG_THRESHOLD= 0.2000000E-02 threshold for treating states as degnerate
   RTIME   =   -0.100 relaxation time in fs
  (WPLASMAI=    0.000 imaginary part of plasma frequency in eV, 0.658/RTIME)
   DFIELD  = 0.0000000 0.0000000 0.0000000 field for delta impulse in time

  Optional k-point grid parameters
   LKPOINTS_OPT  =     F    use optional k-point grid
   KPOINTS_OPT_MODE=     1    mode for optional k-point grid

 Orbital magnetization related:
   ORBITALMAG=     F  switch on orbital magnetization
   LCHIMAG   =     F  perturbation theory with respect to B field
   DQ        =  0.001000  dq finite difference perturbation B field
   LLRAUG    =     F  two centre corrections for induced B field
   LBONE     =     F  B-component reconstruction in AE one-centre
   LVGVCALC  =     T  calculate vGv susceptibility
   LVGVAPPL  =     F  apply vGv susceptibility instead of pGv for G=0

 Random number generation:
   RANDOM_GENERATOR = DEFAULT
   PCG_SEED         = not used


--------------------------------------------------------------------------------------------------------


 Static calculation
 charge density and potential will be updated during run
 non-spin polarized calculation
 Variant of blocked Davidson
 perform Loewdin sub-space diagonalisation
    ordering is kept fixed
    before iterative eigenvector-optimisation
 modified Broyden-mixing scheme, WC =      100.0
 initial mixing is a Kerker type mixing with AMIX =  0.4000 and BMIX =      1.0000
 Hartree-type preconditioning will be used
 using additional bands           30
 reciprocal scheme for non local part
 use partial core corrections
 calculate Harris-corrections to forces   (improved forces if not selfconsistent)
 use gradient corrections 
 use of overlap-Matrix (Vanderbilt PP)
 Gauss-broadening in eV      SIGMA  =   0.10


--------------------------------------------------------------------------------------------------------


  energy-cutoff  :     1200.00
  volume of cell :     5349.01
      direct lattice vectors                 reciprocal lattice vectors
    14.531892074  0.000000000  0.000000000     0.068814164  0.000000000  0.000000000
     0.000000000 14.531892074  0.000000000     0.000000000  0.068814164  0.000000000
     0.000000000  0.000000000 25.329621900     0.000000000  0.000000000  0.039479468

  length of vectors
    14.531892074 14.531892074 25.329621900     0.068814164  0.068814164  0.039479468



 old parameters found on file WAVECAR:
  energy-cutoff  :     1200.00
  volume of cell :     5349.01
      direct lattice vectors                 reciprocal lattice vectors
    14.531892074  0.000000000  0.000000000     0.068814164  0.000000000  0.000000000
     0.000000000 14.531892074  0.000000000     0.000000000  0.068814164  0.000000000
     0.000000000  0.000000000 25.329621900     0.000000000  0.000000000  0.039479468

  length of vectors


 k-points in units of 2pi/SCALE and weight: read from INCAR                         
   0.00000000  0.00000000  0.00000000       0.125
   0.03440708  0.00000000  0.00000000       0.125
   0.00000000  0.03440708  0.00000000       0.125
   0.03440708  0.03440708  0.00000000       0.125
   0.00000000  0.00000000  0.01973973       0.125
   0.03440708  0.00000000  0.01973973       0.125
   0.00000000  0.03440708  0.01973973       0.125
   0.03440708  0.03440708  0.01973973       0.125

 k-points in reciprocal lattice and weights: read from INCAR                         
   0.00000000  0.00000000  0.00000000       0.125
   0.50000000  0.00000000  0.00000000       0.125
   0.00000000  0.50000000  0.00000000       0.125
   0.50000000  0.50000000  0.00000000       0.125
   0.00000000  0.00000000  0.50000000       0.125
   0.50000000  0.00000000  0.50000000       0.125
   0.00000000  0.50000000  0.50000000       0.125
   0.50000000  0.50000000  0.50000000       0.125

 position of ions in fractional coordinates (direct lattice) 
   0.69156858  0.56667982  0.39479468
   0.60687555  0.39532086  0.43096387
   0.13729527  0.38630414  0.56815305
   0.97989305  0.11699371  0.39521991
   0.62083932  0.43993721  0.54350602
   0.40715414  0.07663902  0.60091548
   0.08475565  0.90326848  0.53737130
   0.51418081  0.65850957  0.56066814
   0.80341224  0.74167906  0.41870554
   0.83165358  0.94192827  0.52000626
   0.08397874  0.52796773  0.53674121
   0.55842350  0.55469721  0.48913805
   0.65160132  0.68107717  0.44893966
   0.46197838  0.23616195  0.42366060
   0.89353127  0.05752823  0.57219890
   0.71762851  0.84384745  0.55690969
   0.99232088  0.94961481  0.39537277
   0.13794625  0.24415609  0.47763729
   0.55493531  0.05982483  0.56498285
   0.98808193  0.23036986  0.45562314
   0.22965626  0.91943980  0.48728133
   0.88777841  0.17990637  0.51567931
   0.91495312  0.34621851  0.40927902
   0.30720982  0.05996900  0.46226280
   0.22736406  0.69783755  0.41291390
   0.85130690  0.30983233  0.56769667
   0.16158804  0.17808005  0.56055325
   0.11215676  0.30216162  0.60520532
   0.55011006  0.29807887  0.54309346
   0.45356860  0.77880430  0.41517947
   0.65297553  0.17159569  0.54088695
   0.16672502  0.40333702  0.48973774
   0.96249683  0.87848850  0.48087421
   0.40485506  0.27759221  0.51011073
   0.75538684  0.13897709  0.46629207
   0.07152613  0.04558574  0.58420185
   0.46396023  0.07858784  0.42519185
   0.32157960  0.42531970  0.51967818
   0.12772459  0.77920342  0.58843444
   0.08669140  0.59357790  0.40429059
   0.36308968  0.69185072  0.54548710
   0.35612981  0.65198461  0.45553866
   0.78474296  0.44321001  0.53077626
   0.21601661  0.15876322  0.41141293
   0.86394806  0.47960788  0.45497449
   0.59910781  0.77462728  0.51580051
   0.55223779  0.99349761  0.47897446
   0.16730856  0.44733955  0.39614160
   0.34309366  0.85472696  0.53739183
   0.83179120  0.71637609  0.56458845
   0.71082967  0.99047667  0.46039424
   0.40921650  0.49818358  0.45754184
   0.82634112  0.55888180  0.59025208
   0.91184960  0.72381490  0.48522524
   0.31157883  0.15770280  0.53453549
   0.23367570  0.85907602  0.40320866
   0.18524704  0.64120969  0.55405059
   0.47479227  0.86306724  0.49146931
   0.98356084  0.58878912  0.47005960

 position of ions in cartesian coordinates  (Angst):
  10.04980000  8.23493000 10.00000000
   8.81905000  5.74476000 10.91615190
   1.99516000  5.61373000 14.39110190
  14.23970000  1.70014000 10.01077090
   9.02197000  6.39312000 13.76680190
   5.91672000  1.11371000 15.22096190
   1.23166000 13.12620000 13.61141190
   7.47202000  9.56939000 14.20151190
  11.67510000 10.77800000 10.60565290
  12.08550000 13.68800000 13.17156190
   1.22037000  7.67237000 13.59545190
   8.11495000  8.06080000 12.38968190
   9.46900000  9.89734000 11.37147190
   6.71342000  3.43188000 10.73116290
  12.98470000  0.83599400 14.49358190
  10.42850000 12.26270000 14.10631190
  14.42030000 13.79970000 10.01464290
   2.00462000  3.54805000 12.09837190
   8.06426000  0.86936800 14.31080190
  14.35870000  3.34771000 11.54076190
   3.33734000 13.36120000 12.34265190
  12.90110000  2.61438000 13.06196190
  13.29600000  5.03121000 10.36688290
   4.46434000  0.87146300 11.70894190
   3.30403000 10.14090000 10.45895290
  12.37110000  4.50245000 14.37954190
   2.34818000  2.58784000 14.19860190
   1.62985000  4.39098000 15.32962190
   7.99414000  4.33165000 13.75635190
   6.59121000 11.31750000 10.51633890
   9.48897000  2.49361000 13.70046190
   2.42283000  5.86125000 12.40487190
  13.98690000 12.76610000 12.18036190
   5.88331000  4.03394000 12.92091190
  10.97720000  2.01960000 11.81100190
   1.03941000  0.66244700 14.79761190
   6.74222000  1.14203000 10.76994890
   4.67316000  6.18070000 13.16325190
   1.85608000 11.32330000 14.90482190
   1.25979000  8.62581000 10.24052790
   5.27638000 10.05390000 13.81698190
   5.17524000  9.47457000 11.53862190
  11.40380000  6.44068000 13.44436190
   3.13913000  2.30713000 10.42093390
  12.55480000  6.96961000 11.52433190
   8.70617000 11.25680000 13.06503190
   8.02506000 14.43740000 12.13224190
   2.43131000  6.50069000 10.03411690
   4.98580000 12.42080000 13.61193190
  12.08750000 10.41030000 14.30081190
  10.32970000 14.39350000 11.66161190
   5.94669000  7.23955000 11.58936190
  12.00830000  8.12161000 14.95086190
  13.25090000 10.51840000 12.29057190
   4.52783000  2.29172000 13.53958190
   3.39575000 12.48400000 10.21312290
   2.69199000  9.31799000 14.03389190
   6.89963000 12.54200000 12.44873190
  14.29300000  8.55622000 11.90643190



--------------------------------------------------------------------------------------------------------


 k-point     1 :   0.0000 0.0000 0.0000  plane waves:  504799
 k-point     2 :   0.5000 0.0000 0.0000  plane waves:  504982
 k-point     3 :   0.0000 0.5000 0.0000  plane waves:  504982
 k-point     4 :   0.5000 0.5000 0.0000  plane waves:  504756
 k-point     5 :   0.0000 0.0000 0.5000  plane waves:  504648
 k-point     6 :   0.5000 0.0000 0.5000  plane waves:  504860
 k-point     7 :   0.0000 0.5000 0.5000  plane waves:  504860
 k-point     8 :   0.5000 0.5000 0.5000  plane waves:  505168

 maximum and minimum number of plane-waves per node :     31680    31467

 maximum number of plane-waves:    505168
 maximum index in each direction: 
   IXMAX=   41   IYMAX=   41   IZMAX=   71
   IXMIN=  -41   IYMIN=  -41   IZMIN=  -72


 parallel 3D FFT for wavefunctions:
    minimum data exchange during FFTs selected (reduces bandwidth)
 parallel 3D FFT for charge:
    minimum data exchange during FFTs selected (reduces bandwidth)


 total amount of memory used by VASP MPI-rank0   338614. kBytes
=======================================================================

   base                                    :      30000. kBytes
   nonl-proj                               :      62157. kBytes
   fftplans                                :      97997. kBytes
   grid                                    :      75605. kBytes
   one-center                              :         12. kBytes
   wavefun                                 :      72843. kBytes

     INWAV:  cpu time     22.1447: real time     22.1587
 Broyden mixing: mesh for mixing (old mesh)
   NGX = 83   NGY = 83   NGZ =143
  (NGX  =336   NGY  =336   NGZ  =576)
  gives a total of 985127 points

 initial charge density was supplied:
 number of electron     226.9999999 magnetization 
 keeping initial charge density in first step


--------------------------------------------------------------------------------------------------------


 Maximum index for augmentation-charges        11319 (set IRDMAX)


--------------------------------------------------------------------------------------------------------


 First call to EWALD:  gamma=   0.101
 Maximum number of real-space cells   3x   3x   2
 Maximum number of reciprocal cells   2x   2x   4

    FEWALD:  cpu time      0.0089: real time      0.0091


--------------------------------------- Ionic step        1  -------------------------------------------




--------------------------------------- Iteration      1(   1)  ---------------------------------------


    POTLOK:  cpu time      1.9141: real time      1.9150
    SETDIJ:  cpu time      1.2765: real time      1.2779
    EDDIAG:  cpu time     42.8155: real time     42.8383
     EDDAV:  cpu time    185.6365: real time    185.7350
       DOS:  cpu time      0.0081: real time      0.0083
    CHARGE:  cpu time     24.9187: real time     24.9414
    MIXING:  cpu time      0.0445: real time      0.0456
    --------------------------------------------
      LOOP:  cpu time    256.6140: real time    256.7616

 eigenvalue-minimisations  :  2304
 total energy-change (2. order) :-0.5453411E+03  (-0.6575915E+00)
 number of electron     226.9999999 magnetization 
 augmentation part      -13.0801194 magnetization 

 Broyden mixing:
  rms(total) = 0.83726E+00    rms(broyden)= 0.22732E+02
  rms(prec ) = 0.86924E+00
  weight for this iteration     100.00
  WARNING: grid for Broyden might be to small

 Free energy of the ion-electron system (eV)
  ---------------------------------------------------
  alpha Z        PSCENC =        20.31040391
  Ewald energy   TEWEN  =     23067.14158894
  -Hartree energ DENC   =    -27980.19884011
  -exchange      EXHF   =         0.00000000
  -V(xc)+E(xc)   XCENC  =      -285.28764705
  PAW double counting   =     17648.91074827   -17089.55802609
  entropy T*S    EENTRO =        -0.16286929
  eigenvalues    EBANDS =     -1735.70435685
  atomic energy  EATOM  =      5809.20788974
  Solvation  Ediel_sol  =         0.00000000
  ---------------------------------------------------
  free energy    TOTEN  =      -545.34110854 eV

  energy without entropy =     -545.17823924  energy(sigma->0) =     -545.25967389


--------------------------------------------------------------------------------------------------------




--------------------------------------- Iteration      1(   2)  ---------------------------------------


    POTLOK:  cpu time      1.8991: real time      1.9234
    SETDIJ:  cpu time      1.2757: real time      1.2763
    EDDIAG:  cpu time     43.3999: real time     43.4210
     EDDAV:  cpu time    187.7403: real time    187.8369
       DOS:  cpu time      0.0024: real time      0.0025
    CHARGE:  cpu time     24.8095: real time     24.8328
    MIXING:  cpu time      0.0390: real time      0.0390
    --------------------------------------------
      LOOP:  cpu time    259.1659: real time    259.3319

 eigenvalue-minimisations  :  2304
 total energy-change (2. order) : 0.4056636E+02  (-0.6062335E+00)
 number of electron     226.9999999 magnetization 
 augmentation part      -13.0493184 magnetization 

 Broyden mixing:
  rms(total) = 0.57099E+00    rms(broyden)= 0.13035E+02
  rms(prec ) = 0.58740E+00
  weight for this iteration     100.00
  WARNING: grid for Broyden might be to small

 eigenvalues of (default mixing * dielectric matrix)
  average eigenvalue GAMMA=   0.6357
  0.6357

 Free energy of the ion-electron system (eV)
  ---------------------------------------------------
  alpha Z        PSCENC =        20.31040391
  Ewald energy   TEWEN  =     23067.14158894
  -Hartree energ DENC   =    -27971.51924058
  -exchange      EXHF   =         0.00000000
  -V(xc)+E(xc)   XCENC  =      -279.36899080
  PAW double counting   =     21010.80352963   -20451.32495852
  entropy T*S    EENTRO =        -0.15137885
  eigenvalues    EBANDS =     -1709.87359057
  atomic energy  EATOM  =      5809.20788974
  Solvation  Ediel_sol  =         0.00000000
  ---------------------------------------------------
  free energy    TOTEN  =      -504.77474710 eV

  energy without entropy =     -504.62336825  energy(sigma->0) =     -504.69905768


--------------------------------------------------------------------------------------------------------




--------------------------------------- Iteration      1(   3)  ---------------------------------------


    POTLOK:  cpu time      1.8774: real time      1.9054
    SETDIJ:  cpu time      1.3593: real time      1.3601
    EDDIAG:  cpu time     43.3429: real time     43.3657
     EDDAV:  cpu time    187.9073: real time    188.0048
       DOS:  cpu time      0.0024: real time      0.0024
    CHARGE:  cpu time     24.7892: real time     24.8117
    MIXING:  cpu time      0.0368: real time      0.0368
    --------------------------------------------
      LOOP:  cpu time    259.3153: real time    259.4870

 eigenvalue-minimisations  :  2304
 total energy-change (2. order) :-0.1694670E+01  (-0.5005039E+00)
 number of electron     226.9999999 magnetization 
 augmentation part      -13.0026460 magnetization 

 Broyden mixing:
  rms(total) = 0.26933E+00    rms(broyden)= 0.16239E+02
  rms(prec ) = 0.31746E+00
  weight for this iteration     100.00
  WARNING: grid for Broyden might be to small

 eigenvalues of (default mixing * dielectric matrix)
  average eigenvalue GAMMA=   0.7688
  0.9085  0.6292

 Free energy of the ion-electron system (eV)
  ---------------------------------------------------
  alpha Z        PSCENC =        20.31040391
  Ewald energy   TEWEN  =     23067.14158894
  -Hartree energ DENC   =    -27970.15988511
  -exchange      EXHF   =         0.00000000
  -V(xc)+E(xc)   XCENC  =      -280.97664235
  PAW double counting   =     24656.56913610   -24097.19695164
  entropy T*S    EENTRO =        -0.15382066
  eigenvalues    EBANDS =     -1711.21113560
  atomic energy  EATOM  =      5809.20788974
  Solvation  Ediel_sol  =         0.00000000
  ---------------------------------------------------
  free energy    TOTEN  =      -506.46941668 eV

  energy without entropy =     -506.31559602  energy(sigma->0) =     -506.39250635


--------------------------------------------------------------------------------------------------------




--------------------------------------- Iteration      1(   4)  ---------------------------------------


    POTLOK:  cpu time      1.8806: real time      1.9062
    SETDIJ:  cpu time      1.2834: real time      1.2841
    EDDIAG:  cpu time     43.3682: real time     43.3922
     EDDAV:  cpu time    190.6945: real time    190.8006
       DOS:  cpu time      0.0025: real time      0.0025
    CHARGE:  cpu time     24.7950: real time     24.8169
    MIXING:  cpu time      0.0374: real time      0.0374
    --------------------------------------------
      LOOP:  cpu time    262.0617: real time    262.2400

 eigenvalue-minimisations  :  2368
 total energy-change (2. order) : 0.1530685E+00  (-0.5770584E-01)
 number of electron     226.9999999 magnetization 
 augmentation part      -12.9987576 magnetization 

 Broyden mixing:
  rms(total) = 0.39124E-01    rms(broyden)= 0.14712E+01
  rms(prec ) = 0.44971E-01
  weight for this iteration     100.00
  WARNING: grid for Broyden might be to small

 eigenvalues of (default mixing * dielectric matrix)
  average eigenvalue GAMMA=   1.1287
  2.1019  0.6686  0.6156

 Free energy of the ion-electron system (eV)
  ---------------------------------------------------
  alpha Z        PSCENC =        20.31040391
  Ewald energy   TEWEN  =     23067.14158894
  -Hartree energ DENC   =    -27969.22645770
  -exchange      EXHF   =         0.00000000
  -V(xc)+E(xc)   XCENC  =      -281.36102413
  PAW double counting   =     28132.86345303   -27573.55415086
  entropy T*S    EENTRO =        -0.15409283
  eigenvalues    EBANDS =     -1711.54395829
  atomic energy  EATOM  =      5809.20788974
  Solvation  Ediel_sol  =         0.00000000
  ---------------------------------------------------
  free energy    TOTEN  =      -506.31634820 eV

  energy without entropy =     -506.16225537  energy(sigma->0) =     -506.23930179


--------------------------------------------------------------------------------------------------------




--------------------------------------- Iteration      1(   5)  ---------------------------------------


    POTLOK:  cpu time      1.8886: real time      1.9093
    SETDIJ:  cpu time      1.2708: real time      1.2714
    EDDIAG:  cpu time     43.3723: real time     43.3971
     EDDAV:  cpu time    215.0216: real time    215.1406
       DOS:  cpu time      0.0027: real time      0.0027
    CHARGE:  cpu time     24.7526: real time     24.7748
    MIXING:  cpu time      0.0374: real time      0.0374
    --------------------------------------------
      LOOP:  cpu time    286.3460: real time    286.5333

 eigenvalue-minimisations  :  2912
 total energy-change (2. order) :-0.2374223E-01  (-0.5379545E-02)
 number of electron     226.9999999 magnetization 
 augmentation part      -12.9993217 magnetization 

 Broyden mixing:
  rms(total) = 0.26354E-01    rms(broyden)= 0.28339E+00
  rms(prec ) = 0.28501E-01
  weight for this iteration     100.00
  WARNING: grid for Broyden might be to small

 eigenvalues of (default mixing * dielectric matrix)
  average eigenvalue GAMMA=   1.1717
  2.5829  0.8609  0.6214  0.6214

 Free energy of the ion-electron system (eV)
  ---------------------------------------------------
  alpha Z        PSCENC =        20.31040391
  Ewald energy   TEWEN  =     23067.14158894
  -Hartree energ DENC   =    -27969.26550257
  -exchange      EXHF   =         0.00000000
  -V(xc)+E(xc)   XCENC  =      -282.02285461
  PAW double counting   =     27839.58515053   -27280.25882761
  entropy T*S    EENTRO =        -0.15290200
  eigenvalues    EBANDS =     -1710.88503677
  atomic energy  EATOM  =      5809.20788974
  Solvation  Ediel_sol  =         0.00000000
  ---------------------------------------------------
  free energy    TOTEN  =      -506.34009043 eV

  energy without entropy =     -506.18718843  energy(sigma->0) =     -506.26363943


--------------------------------------------------------------------------------------------------------




--------------------------------------- Iteration      1(   6)  ---------------------------------------


    POTLOK:  cpu time      1.8823: real time      1.9086
    SETDIJ:  cpu time      1.2698: real time      1.2703
    EDDIAG:  cpu time     43.3440: real time     43.3665
     EDDAV:  cpu time    199.0532: real time    199.1565
       DOS:  cpu time      0.0038: real time      0.0038
    CHARGE:  cpu time     24.7745: real time     24.7966
    MIXING:  cpu time      0.0382: real time      0.0382
    --------------------------------------------
      LOOP:  cpu time    270.3657: real time    270.5404

 eigenvalue-minimisations  :  2552
 total energy-change (2. order) :-0.3021241E-02  (-0.1012184E-02)
 number of electron     226.9999999 magnetization 
 augmentation part      -12.9991181 magnetization 

 Broyden mixing:
  rms(total) = 0.15925E-01    rms(broyden)= 0.15227E+00
  rms(prec ) = 0.17093E-01
  weight for this iteration     100.00
  WARNING: grid for Broyden might be to small

 eigenvalues of (default mixing * dielectric matrix)
  average eigenvalue GAMMA=   1.1204
  2.5942  1.0121  0.7311  0.6322  0.6322

 Free energy of the ion-electron system (eV)
  ---------------------------------------------------
  alpha Z        PSCENC =        20.31040391
  Ewald energy   TEWEN  =     23067.14158894
  -Hartree energ DENC   =    -27969.07123647
  -exchange      EXHF   =         0.00000000
  -V(xc)+E(xc)   XCENC  =      -282.09622747
  PAW double counting   =     27798.19439168   -27238.86156502
  entropy T*S    EENTRO =        -0.15293178
  eigenvalues    EBANDS =     -1711.01542519
  atomic energy  EATOM  =      5809.20788974
  Solvation  Ediel_sol  =         0.00000000
  ---------------------------------------------------
  free energy    TOTEN  =      -506.34311167 eV

  energy without entropy =     -506.19017989  energy(sigma->0) =     -506.26664578


--------------------------------------------------------------------------------------------------------




--------------------------------------- Iteration      1(   7)  ---------------------------------------


    POTLOK:  cpu time      1.8967: real time      1.9029
    SETDIJ:  cpu time      1.2733: real time      1.2740
    EDDIAG:  cpu time     43.4071: real time     43.4304
     EDDAV:  cpu time    193.6652: real time    193.7695
       DOS:  cpu time      0.0030: real time      0.0030
    CHARGE:  cpu time     24.8338: real time     24.8577
    MIXING:  cpu time      0.0386: real time      0.0391
    --------------------------------------------
      LOOP:  cpu time    265.1177: real time    265.2767

 eigenvalue-minimisations  :  2432
 total energy-change (2. order) :-0.1143913E-02  (-0.5211906E-03)
 number of electron     226.9999999 magnetization 
 augmentation part      -12.9975048 magnetization 

 Broyden mixing:
  rms(total) = 0.46414E-02    rms(broyden)= 0.11327E+00
  rms(prec ) = 0.59104E-02
  weight for this iteration     100.00
  WARNING: grid for Broyden might be to small

 eigenvalues of (default mixing * dielectric matrix)
  average eigenvalue GAMMA=   1.1255
  2.5718  1.4259  0.8302  0.6551  0.6551  0.6151

 Free energy of the ion-electron system (eV)
  ---------------------------------------------------
  alpha Z        PSCENC =        20.31040391
  Ewald energy   TEWEN  =     23067.14158894
  -Hartree energ DENC   =    -27968.54124744
  -exchange      EXHF   =         0.00000000
  -V(xc)+E(xc)   XCENC  =      -282.00288240
  PAW double counting   =     27814.47748695   -27255.13900586
  entropy T*S    EENTRO =        -0.15339515
  eigenvalues    EBANDS =     -1711.64509427
  atomic energy  EATOM  =      5809.20788974
  Solvation  Ediel_sol  =         0.00000000
  ---------------------------------------------------
  free energy    TOTEN  =      -506.34425559 eV

  energy without entropy =     -506.19086044  energy(sigma->0) =     -506.26755801


--------------------------------------------------------------------------------------------------------




--------------------------------------- Iteration      1(   8)  ---------------------------------------


    POTLOK:  cpu time      1.8802: real time      1.9049
    SETDIJ:  cpu time      1.2756: real time      1.2763
    EDDIAG:  cpu time     43.3674: real time     43.3895
     EDDAV:  cpu time    196.4117: real time    196.5239
       DOS:  cpu time      0.0029: real time      0.0029
    CHARGE:  cpu time     24.7706: real time     24.7928
    MIXING:  cpu time      0.0392: real time      0.0392
    --------------------------------------------
      LOOP:  cpu time    267.7477: real time    267.9295

 eigenvalue-minimisations  :  2488
 total energy-change (2. order) :-0.1252808E-03  (-0.1155000E-03)
 number of electron     226.9999999 magnetization 
 augmentation part      -12.9978857 magnetization 

 Broyden mixing:
  rms(total) = 0.21495E-02    rms(broyden)= 0.22389E-01
  rms(prec ) = 0.26868E-02
  weight for this iteration     100.00
  WARNING: grid for Broyden might be to small

 eigenvalues of (default mixing * dielectric matrix)
  average eigenvalue GAMMA=   1.2032
  2.4114  2.4114  0.9387  0.8005  0.6423  0.6295  0.5888

 Free energy of the ion-electron system (eV)
  ---------------------------------------------------
  alpha Z        PSCENC =        20.31040391
  Ewald energy   TEWEN  =     23067.14158894
  -Hartree energ DENC   =    -27968.19114701
  -exchange      EXHF   =         0.00000000
  -V(xc)+E(xc)   XCENC  =      -282.01887828
  PAW double counting   =     27826.55584298   -27267.21499285
  entropy T*S    EENTRO =        -0.15319608
  eigenvalues    EBANDS =     -1711.98189221
  atomic energy  EATOM  =      5809.20788974
  Solvation  Ediel_sol  =         0.00000000
  ---------------------------------------------------
  free energy    TOTEN  =      -506.34438087 eV

  energy without entropy =     -506.19118479  energy(sigma->0) =     -506.26778283


--------------------------------------------------------------------------------------------------------




--------------------------------------- Iteration      1(   9)  ---------------------------------------


    POTLOK:  cpu time      1.8814: real time      1.9041
    SETDIJ:  cpu time      1.2755: real time      1.2763
    EDDIAG:  cpu time     43.3718: real time     43.3936
     EDDAV:  cpu time    193.6225: real time    193.7252
       DOS:  cpu time      0.0047: real time      0.0047
    CHARGE:  cpu time     24.7950: real time     24.8171
    MIXING:  cpu time      0.0397: real time      0.0397
    --------------------------------------------
      LOOP:  cpu time    264.9907: real time    265.1609

 eigenvalue-minimisations  :  2432
 total energy-change (2. order) :-0.2782598E-04  (-0.7065000E-04)
 number of electron     226.9999999 magnetization 
 augmentation part      -12.9980188 magnetization 

 Broyden mixing:
  rms(total) = 0.13813E-02    rms(broyden)= 0.19651E-01
  rms(prec ) = 0.18613E-02
  weight for this iteration     100.00
  WARNING: grid for Broyden might be to small

 eigenvalues of (default mixing * dielectric matrix)
  average eigenvalue GAMMA=   1.2033
  2.6312  2.6312  0.9244  0.9244  0.7060  0.6232  0.6232  0.5624

 Free energy of the ion-electron system (eV)
  ---------------------------------------------------
  alpha Z        PSCENC =        20.31040391
  Ewald energy   TEWEN  =     23067.14158894
  -Hartree energ DENC   =    -27967.85550287
  -exchange      EXHF   =         0.00000000
  -V(xc)+E(xc)   XCENC  =      -282.04492530
  PAW double counting   =     27826.97986204   -27267.63824917
  entropy T*S    EENTRO =        -0.15317224
  eigenvalues    EBANDS =     -1712.29230373
  atomic energy  EATOM  =      5809.20788974
  Solvation  Ediel_sol  =         0.00000000
  ---------------------------------------------------
  free energy    TOTEN  =      -506.34440869 eV

  energy without entropy =     -506.19123645  energy(sigma->0) =     -506.26782257


--------------------------------------------------------------------------------------------------------




--------------------------------------- Iteration      1(  10)  ---------------------------------------


    POTLOK:  cpu time      1.8892: real time      1.9096
    SETDIJ:  cpu time      1.2781: real time      1.2787
    EDDIAG:  cpu time     43.4060: real time     43.4276
     EDDAV:  cpu time    193.5069: real time    193.6124
       DOS:  cpu time      0.0024: real time      0.0024
    CHARGE:  cpu time     24.8070: real time     24.8296
    MIXING:  cpu time      0.0466: real time      0.0466
    --------------------------------------------
      LOOP:  cpu time    264.9361: real time    265.1068

 eigenvalue-minimisations  :  2432
 total energy-change (2. order) :-0.1979635E-03  (-0.4650907E-04)
 number of electron     226.9999999 magnetization 
 augmentation part      -12.9981028 magnetization 

 Broyden mixing:
  rms(total) = 0.81665E-03    rms(broyden)= 0.13352E-01
  rms(prec ) = 0.12564E-02
  weight for this iteration     100.00
  WARNING: grid for Broyden might be to small

 eigenvalues of (default mixing * dielectric matrix)
  average eigenvalue GAMMA=   1.2104
  2.8882  2.6990  1.0492  1.0492  0.7927  0.6598  0.6331  0.5611  0.5611

 Free energy of the ion-electron system (eV)
  ---------------------------------------------------
  alpha Z        PSCENC =        20.31040391
  Ewald energy   TEWEN  =     23067.14158894
  -Hartree energ DENC   =    -27967.54513055
  -exchange      EXHF   =         0.00000000
  -V(xc)+E(xc)   XCENC  =      -282.05288238
  PAW double counting   =     27825.08599235   -27265.74377891
  entropy T*S    EENTRO =        -0.15321663
  eigenvalues    EBANDS =     -1712.59547313
  atomic energy  EATOM  =      5809.20788974
  Solvation  Ediel_sol  =         0.00000000
  ---------------------------------------------------
  free energy    TOTEN  =      -506.34460666 eV

  energy without entropy =     -506.19139003  energy(sigma->0) =     -506.26799834


--------------------------------------------------------------------------------------------------------




--------------------------------------- Iteration      1(  11)  ---------------------------------------


    POTLOK:  cpu time      1.8815: real time      1.9112
    SETDIJ:  cpu time      1.2767: real time      1.2774
    EDDIAG:  cpu time     43.4059: real time     43.4303
     EDDAV:  cpu time    193.6566: real time    193.7647
       DOS:  cpu time      0.0043: real time      0.0043
    CHARGE:  cpu time     24.8195: real time     24.8437
    MIXING:  cpu time      0.0420: real time      0.0420
    --------------------------------------------
      LOOP:  cpu time    265.0864: real time    265.2735

 eigenvalue-minimisations  :  2432
 total energy-change (2. order) :-0.2770899E-03  (-0.4893028E-04)
 number of electron     226.9999999 magnetization 
 augmentation part      -12.9982049 magnetization 

 Broyden mixing:
  rms(total) = 0.48678E-03    rms(broyden)= 0.73110E-02
  rms(prec ) = 0.82808E-03
  weight for this iteration     100.00
  WARNING: grid for Broyden might be to small

 eigenvalues of (default mixing * dielectric matrix)
  average eigenvalue GAMMA=   1.2509
  3.1651  2.6464  1.6393  0.9413  0.9413  0.8028  0.6393  0.6297  0.5954  0.5080

 Free energy of the ion-electron system (eV)
  ---------------------------------------------------
  alpha Z        PSCENC =        20.31040391
  Ewald energy   TEWEN  =     23067.14158894
  -Hartree energ DENC   =    -27967.21551051
  -exchange      EXHF   =         0.00000000
  -V(xc)+E(xc)   XCENC  =      -282.06181641
  PAW double counting   =     27823.97460211   -27264.63217997
  entropy T*S    EENTRO =        -0.15319364
  eigenvalues    EBANDS =     -1712.91666792
  atomic energy  EATOM  =      5809.20788974
  Solvation  Ediel_sol  =         0.00000000
  ---------------------------------------------------
  free energy    TOTEN  =      -506.34488375 eV

  energy without entropy =     -506.19169011  energy(sigma->0) =     -506.26828693


--------------------------------------------------------------------------------------------------------




--------------------------------------- Iteration      1(  12)  ---------------------------------------


    POTLOK:  cpu time      1.8778: real time      1.9065
    SETDIJ:  cpu time      1.2767: real time      1.2776
    EDDIAG:  cpu time     43.4370: real time     43.4611
     EDDAV:  cpu time    192.1159: real time    192.2146
       DOS:  cpu time      0.0028: real time      0.0028
    CHARGE:  cpu time     24.8010: real time     24.8247
    MIXING:  cpu time      0.0422: real time      0.0422
    --------------------------------------------
      LOOP:  cpu time    263.5534: real time    263.7295

 eigenvalue-minimisations  :  2400
 total energy-change (2. order) :-0.2865445E-03  (-0.4485116E-04)
 number of electron     226.9999999 magnetization 
 augmentation part      -12.9982978 magnetization 

 Broyden mixing:
  rms(total) = 0.34538E-03    rms(broyden)= 0.67620E-02
  rms(prec ) = 0.60917E-03
  weight for this iteration     100.00
  WARNING: grid for Broyden might be to small

 eigenvalues of (default mixing * dielectric matrix)
  average eigenvalue GAMMA=   1.4014
  4.3720  2.5976  2.5976  1.0325  1.0325  0.7775  0.6858  0.6299  0.6021  0.6021
  0.4851

 Free energy of the ion-electron system (eV)
  ---------------------------------------------------
  alpha Z        PSCENC =        20.31040391
  Ewald energy   TEWEN  =     23067.14158894
  -Hartree energ DENC   =    -27966.94981183
  -exchange      EXHF   =         0.00000000
  -V(xc)+E(xc)   XCENC  =      -282.07042822
  PAW double counting   =     27824.70145066   -27265.35927560
  entropy T*S    EENTRO =        -0.15320622
  eigenvalues    EBANDS =     -1713.17378166
  atomic energy  EATOM  =      5809.20788974
  Solvation  Ediel_sol  =         0.00000000
  ---------------------------------------------------
  free energy    TOTEN  =      -506.34517029 eV

  energy without entropy =     -506.19196407  energy(sigma->0) =     -506.26856718


--------------------------------------------------------------------------------------------------------




--------------------------------------- Iteration      1(  13)  ---------------------------------------


    POTLOK:  cpu time      1.8810: real time      1.9087
    SETDIJ:  cpu time      1.2756: real time      1.2764
    EDDIAG:  cpu time     43.4268: real time     43.4512
     EDDAV:  cpu time    192.3577: real time    192.4635
       DOS:  cpu time      0.0043: real time      0.0043
    CHARGE:  cpu time     24.8354: real time     24.8582
    MIXING:  cpu time      0.0428: real time      0.0428
    --------------------------------------------
      LOOP:  cpu time    263.8235: real time    264.0051

 eigenvalue-minimisations  :  2400
 total energy-change (2. order) :-0.2198288E-03  (-0.4198286E-04)
 number of electron     226.9999999 magnetization 
 augmentation part      -12.9983703 magnetization 

 Broyden mixing:
  rms(total) = 0.24480E-03    rms(broyden)= 0.62834E-02
  rms(prec ) = 0.43571E-03
  weight for this iteration     100.00
  WARNING: grid for Broyden might be to small

 eigenvalues of (default mixing * dielectric matrix)
  average eigenvalue GAMMA=   1.5391
  6.1240  2.6750  2.6750  1.2308  1.0120  0.9095  0.9095  0.6565  0.6285  0.5735
  0.5735  0.5014

 Free energy of the ion-electron system (eV)
  ---------------------------------------------------
  alpha Z        PSCENC =        20.31040391
  Ewald energy   TEWEN  =     23067.14158894
  -Hartree energ DENC   =    -27966.71431577
  -exchange      EXHF   =         0.00000000
  -V(xc)+E(xc)   XCENC  =      -282.07622430
  PAW double counting   =     27824.97637380   -27265.63453880
  entropy T*S    EENTRO =        -0.15320275
  eigenvalues    EBANDS =     -1713.40336489
  atomic energy  EATOM  =      5809.20788974
  Solvation  Ediel_sol  =         0.00000000
  ---------------------------------------------------
  free energy    TOTEN  =      -506.34539012 eV

  energy without entropy =     -506.19218737  energy(sigma->0) =     -506.26878874


--------------------------------------------------------------------------------------------------------




--------------------------------------- Iteration      1(  14)  ---------------------------------------


    POTLOK:  cpu time      1.9058: real time      1.9072
    SETDIJ:  cpu time      1.2766: real time      1.2773
    EDDIAG:  cpu time     43.4455: real time     43.4686
     EDDAV:  cpu time    192.2433: real time    192.3459
       DOS:  cpu time      0.0037: real time      0.0037
    CHARGE:  cpu time     24.8328: real time     24.8569
    MIXING:  cpu time      0.0440: real time      0.0440
    --------------------------------------------
      LOOP:  cpu time    263.7517: real time    263.9035

 eigenvalue-minimisations  :  2400
 total energy-change (2. order) :-0.1792231E-03  (-0.3323107E-04)
 number of electron     226.9999999 magnetization 
 augmentation part      -12.9984329 magnetization 

 Broyden mixing:
  rms(total) = 0.17700E-03    rms(broyden)= 0.52339E-02
  rms(prec ) = 0.28675E-03
  weight for this iteration     100.00
  WARNING: grid for Broyden might be to small

 eigenvalues of (default mixing * dielectric matrix)
  average eigenvalue GAMMA=   1.6403
  7.8124  2.7521  2.7521  1.4872  1.0540  1.0540  0.7587  0.7587  0.6496  0.6179
  0.5996  0.5220  0.5058

 Free energy of the ion-electron system (eV)
  ---------------------------------------------------
  alpha Z        PSCENC =        20.31040391
  Ewald energy   TEWEN  =     23067.14158894
  -Hartree energ DENC   =    -27966.48802589
  -exchange      EXHF   =         0.00000000
  -V(xc)+E(xc)   XCENC  =      -282.08033492
  PAW double counting   =     27824.80572209   -27265.46417878
  entropy T*S    EENTRO =        -0.15321261
  eigenvalues    EBANDS =     -1713.62542182
  atomic energy  EATOM  =      5809.20788974
  Solvation  Ediel_sol  =         0.00000000
  ---------------------------------------------------
  free energy    TOTEN  =      -506.34556934 eV

  energy without entropy =     -506.19235674  energy(sigma->0) =     -506.26896304


--------------------------------------------------------------------------------------------------------




--------------------------------------- Iteration      1(  15)  ---------------------------------------


    POTLOK:  cpu time      1.8784: real time      1.9096
    SETDIJ:  cpu time      1.2691: real time      1.2697
    EDDIAG:  cpu time     43.4360: real time     43.4605
     EDDAV:  cpu time    193.1255: real time    193.2309
       DOS:  cpu time      0.0123: real time      0.0127
    CHARGE:  cpu time     24.7969: real time     24.8484
    MIXING:  cpu time      0.0588: real time      0.0595
    --------------------------------------------
      LOOP:  cpu time    264.5772: real time    264.7918

 eigenvalue-minimisations  :  2416
 total energy-change (2. order) :-0.1022169E-03  (-0.1532170E-04)
 number of electron     226.9999999 magnetization 
 augmentation part      -12.9984532 magnetization 

 Broyden mixing:
  rms(total) = 0.12909E-03    rms(broyden)= 0.35456E-02
  rms(prec ) = 0.19147E-03
  weight for this iteration     100.00
  WARNING: grid for Broyden might be to small

 eigenvalues of (default mixing * dielectric matrix)
  average eigenvalue GAMMA=   1.6987
  8.9063  2.8152  2.8152  1.8840  1.1604  0.9877  0.8561  0.8561  0.6545  0.6373
  0.6076  0.5907  0.5366  0.4744

 Free energy of the ion-electron system (eV)
  ---------------------------------------------------
  alpha Z        PSCENC =        20.31040391
  Ewald energy   TEWEN  =     23067.14158894
  -Hartree energ DENC   =    -27966.34469617
  -exchange      EXHF   =         0.00000000
  -V(xc)+E(xc)   XCENC  =      -282.08088153
  PAW double counting   =     27824.93171530   -27265.59033314
  entropy T*S    EENTRO =        -0.15320994
  eigenvalues    EBANDS =     -1713.76814867
  atomic energy  EATOM  =      5809.20788974
  Solvation  Ediel_sol  =         0.00000000
  ---------------------------------------------------
  free energy    TOTEN  =      -506.34567156 eV

  energy without entropy =     -506.19246163  energy(sigma->0) =     -506.26906659


--------------------------------------------------------------------------------------------------------




--------------------------------------- Iteration      1(  16)  ---------------------------------------


    POTLOK:  cpu time      1.8826: real time      1.9042
    SETDIJ:  cpu time      1.2882: real time      1.2894
    EDDIAG:  cpu time     43.4419: real time     43.4657
     EDDAV:  cpu time    193.5518: real time    193.6535
       DOS:  cpu time      0.0038: real time      0.0038
    CHARGE:  cpu time     24.8100: real time     24.8305
    MIXING:  cpu time      0.0450: real time      0.0450
    --------------------------------------------
      LOOP:  cpu time    265.0231: real time    265.1916

 eigenvalue-minimisations  :  2432
 total energy-change (2. order) :-0.4247732E-04  (-0.5240982E-05)
 number of electron     226.9999999 magnetization 
 augmentation part      -12.9984748 magnetization 

 Broyden mixing:
  rms(total) = 0.92480E-04    rms(broyden)= 0.17879E-02
  rms(prec ) = 0.13901E-03
  weight for this iteration     100.00
  WARNING: grid for Broyden might be to small

 eigenvalues of (default mixing * dielectric matrix)
  average eigenvalue GAMMA=   1.7185
  9.5497  3.0719  2.7097  2.1844  1.2851  0.9910  0.9910  0.8118  0.7244  0.6846
  0.6167  0.5762  0.5762  0.5295  0.4746

 Free energy of the ion-electron system (eV)
  ---------------------------------------------------
  alpha Z        PSCENC =        20.31040391
  Ewald energy   TEWEN  =     23067.14158894
  -Hartree energ DENC   =    -27966.28178161
  -exchange      EXHF   =         0.00000000
  -V(xc)+E(xc)   XCENC  =      -282.08171206
  PAW double counting   =     27825.02121064   -27265.67986617
  entropy T*S    EENTRO =        -0.15322781
  eigenvalues    EBANDS =     -1713.83021962
  atomic energy  EATOM  =      5809.20788974
  Solvation  Ediel_sol  =         0.00000000
  ---------------------------------------------------
  free energy    TOTEN  =      -506.34571404 eV

  energy without entropy =     -506.19248623  energy(sigma->0) =     -506.26910013


--------------------------------------------------------------------------------------------------------




--------------------------------------- Iteration      1(  17)  ---------------------------------------


    POTLOK:  cpu time      1.8762: real time      1.9051
    SETDIJ:  cpu time      1.3094: real time      1.3099
    EDDIAG:  cpu time     43.3669: real time     43.3914
     EDDAV:  cpu time    191.6585: real time    191.7602
       DOS:  cpu time      0.0035: real time      0.0035
    CHARGE:  cpu time     24.8284: real time     24.8505
    MIXING:  cpu time      0.0462: real time      0.0462
    --------------------------------------------
      LOOP:  cpu time    263.0890: real time    263.2670

 eigenvalue-minimisations  :  2384
 total energy-change (2. order) :-0.2045180E-04  (-0.2020736E-05)
 number of electron     226.9999999 magnetization 
 augmentation part      -12.9984834 magnetization 

 Broyden mixing:
  rms(total) = 0.58506E-04    rms(broyden)= 0.92072E-03
  rms(prec ) = 0.87331E-04
  weight for this iteration     100.00
  WARNING: grid for Broyden might be to small

 eigenvalues of (default mixing * dielectric matrix)
  average eigenvalue GAMMA=   1.7108
  9.7813  3.2068  2.6823  2.3579  1.3273  1.2231  0.8982  0.8982  0.9087  0.6676
  0.6676  0.6306  0.5840  0.5362  0.5362  0.4675

 Free energy of the ion-electron system (eV)
  ---------------------------------------------------
  alpha Z        PSCENC =        20.31040391
  Ewald energy   TEWEN  =     23067.14158894
  -Hartree energ DENC   =    -27966.24183295
  -exchange      EXHF   =         0.00000000
  -V(xc)+E(xc)   XCENC  =      -282.08202608
  PAW double counting   =     27824.97018518   -27265.62883623
  entropy T*S    EENTRO =        -0.15322049
  eigenvalues    EBANDS =     -1713.86988650
  atomic energy  EATOM  =      5809.20788974
  Solvation  Ediel_sol  =         0.00000000
  ---------------------------------------------------
  free energy    TOTEN  =      -506.34573449 eV

  energy without entropy =     -506.19251400  energy(sigma->0) =     -506.26912424


--------------------------------------------------------------------------------------------------------




--------------------------------------- Iteration      1(  18)  ---------------------------------------


    POTLOK:  cpu time      1.8712: real time      1.9293
    SETDIJ:  cpu time      1.2725: real time      1.2733
    EDDIAG:  cpu time     43.5628: real time     43.5851
     EDDAV:  cpu time    189.5839: real time    189.6871
       DOS:  cpu time      0.0036: real time      0.0036
    CHARGE:  cpu time     24.8282: real time     24.8494
    MIXING:  cpu time      0.0471: real time      0.0471
    --------------------------------------------
      LOOP:  cpu time    261.1694: real time    261.3749

 eigenvalue-minimisations  :  2336
 total energy-change (2. order) :-0.7038467E-05  (-0.7564444E-06)
 number of electron     226.9999999 magnetization 
 augmentation part      -12.9984881 magnetization 

 Broyden mixing:
  rms(total) = 0.37335E-04    rms(broyden)= 0.64124E-03
  rms(prec ) = 0.55823E-04
  weight for this iteration     100.00
  WARNING: grid for Broyden might be to small

 eigenvalues of (default mixing * dielectric matrix)
  average eigenvalue GAMMA=   1.7023
  9.8886  3.3367  2.6571  2.5280  1.4768  1.4768  0.9532  0.9532  0.8722  0.7170
  0.7170  0.6294  0.6030  0.6030  0.5335  0.5335  0.4609

 Free energy of the ion-electron system (eV)
  ---------------------------------------------------
  alpha Z        PSCENC =        20.31040391
  Ewald energy   TEWEN  =     23067.14158894
  -Hartree energ DENC   =    -27966.22029674
  -exchange      EXHF   =         0.00000000
  -V(xc)+E(xc)   XCENC  =      -282.08222150
  PAW double counting   =     27824.86999616   -27265.52860872
  entropy T*S    EENTRO =        -0.15322343
  eigenvalues    EBANDS =     -1713.89126988
  atomic energy  EATOM  =      5809.20788974
  Solvation  Ediel_sol  =         0.00000000
  ---------------------------------------------------
  free energy    TOTEN  =      -506.34574153 eV

  energy without entropy =     -506.19251810  energy(sigma->0) =     -506.26912981


--------------------------------------------------------------------------------------------------------




--------------------------------------- Iteration      1(  19)  ---------------------------------------


    POTLOK:  cpu time      1.8833: real time      1.9104
    SETDIJ:  cpu time      1.2731: real time      1.2738
    EDDIAG:  cpu time     43.4071: real time     43.4302
     EDDAV:  cpu time    165.2220: real time    165.3137
       DOS:  cpu time      0.0023: real time      0.0023
[...]
    OFIELD:  cpu time      0.0004: real time      0.0004

  FORCE on cell =-STRESS in cart. coord.  units (eV):
  Direction    XX          YY          ZZ          XY          YZ          ZX
  --------------------------------------------------------------------------------------
  Alpha Z    20.31040    20.31040    20.31040
  Ewald   26741.85793 27085.22842-30759.96535    -5.96644    10.42608   -30.57781
  Hartree 27367.89536 27510.39734-26912.09084   -13.31733    14.36423     6.57321
  E(xc)    -667.99538  -667.40325  -664.62320    -0.70714     0.01174     0.00423
  Local  -56814.71530-57327.32532 54984.68019    27.64034   -27.58640    30.37781
  n-local  2132.78771  2162.30022  2078.14995     0.65720     1.03810    -7.00355
  augment  -317.84199  -322.73354  -315.79528     1.02491    -0.14028     0.89197
  Kinetic  1496.64554  1515.00210  1566.64127   -14.41039     2.32850     0.47935
  Fock        0.00000     0.00000     0.00000     0.00000     0.00000     0.00000
  -------------------------------------------------------------------------------------
  Total     -41.05573   -24.22362    -2.69285    -5.07884     0.44196     0.74520
  in kB     -12.29735    -7.25566    -0.80659    -1.52126     0.13238     0.22321
  external pressure =       -6.79 kB  Pullay stress =        0.00 kB


 VOLUME and BASIS-vectors are now :
 -----------------------------------------------------------------------------
  energy-cutoff  :     1200.00
  volume of cell :     5349.01
      direct lattice vectors                 reciprocal lattice vectors
    14.531892074  0.000000000  0.000000000     0.068814164  0.000000000  0.000000000
     0.000000000 14.531892074  0.000000000     0.000000000  0.068814164  0.000000000
     0.000000000  0.000000000 25.329621900     0.000000000  0.000000000  0.039479468

  length of vectors
    14.531892074 14.531892074 25.329621900     0.068814164  0.068814164  0.039479468


 FORCES acting on ions
    electron-ion (+dipol)            ewald-force                    non-local-force                 convergence-correction
 -----------------------------------------------------------------------------------------------
   0.434E+00 0.109E+02 0.589E+02   -.265E+00 -.104E+02 -.585E+02   -.475E-01 0.490E+00 0.397E+00   -.114E-05 0.129E-04 -.771E-05
   -.486E+01 0.317E+01 0.452E+02   0.459E+01 -.334E+01 -.447E+02   -.945E-01 0.176E-01 0.212E+00   0.401E-07 0.206E-04 -.872E-05
   -.185E+01 -.134E+02 -.444E+02   0.252E+01 0.148E+02 0.439E+02   -.385E+00 -.171E+01 0.890E+00   -.489E-05 0.170E-04 0.166E-04
   0.168E+02 0.706E+01 0.231E+03   -.181E+02 -.590E+01 -.231E+03   0.165E+01 -.301E+01 -.990E+00   0.462E-04 -.824E-04 -.615E-04
   0.107E+01 0.111E+01 -.123E+03   -.272E+01 -.845E+00 0.121E+03   0.196E+01 0.181E+00 0.108E+01   -.238E-04 0.737E-04 0.365E-04
   0.305E+01 0.840E+01 -.241E+03   -.457E+01 -.730E+01 0.245E+03   0.123E+01 -.116E+01 -.370E+01   -.714E-04 -.438E-04 0.130E-03
   0.293E+01 0.418E+01 -.984E+02   -.330E+01 -.480E+01 0.985E+02   0.146E+01 0.151E+01 -.295E+00   0.436E-04 -.407E-04 0.571E-05
   -.139E+02 0.262E+02 -.201E+03   0.149E+02 -.272E+02 0.200E+03   0.657E-01 0.163E+00 0.784E+00   0.472E-06 0.735E-05 0.411E-04
   0.126E+02 -.216E+01 0.207E+03   -.114E+02 0.341E+01 -.210E+03   -.219E+01 -.161E+01 0.231E+01   0.142E-04 0.733E-05 -.599E-04
   0.821E+01 0.257E+00 -.576E+02   -.665E+01 -.116E+01 0.581E+02   -.220E+01 0.699E+00 -.692E+00   0.654E-04 -.560E-04 -.258E-04
   0.194E+02 0.868E+01 -.128E+03   -.198E+02 -.821E+01 0.128E+03   -.132E+00 -.126E+01 -.272E+00   0.276E-04 0.847E-04 0.199E-04
   -.180E+02 0.309E+02 0.415E+02   0.177E+02 -.295E+02 -.389E+02   -.102E+00 -.139E+01 -.237E+01   0.332E-06 0.630E-04 0.222E-04
   -.120E+02 0.256E+02 0.147E+03   0.121E+02 -.221E+02 -.144E+03   0.306E+00 -.460E+01 -.392E+01   -.980E-05 -.879E-05 -.332E-04
   -.342E+02 -.427E+02 0.198E+03   0.335E+02 0.435E+02 -.199E+03   0.692E+00 0.108E+00 0.109E+01   -.435E-04 -.643E-05 -.250E-04
   0.136E+02 0.131E+01 -.207E+03   -.155E+02 -.281E+00 0.206E+03   0.332E+01 -.659E+00 0.213E+01   0.838E-04 -.562E-04 -.904E-05
   0.625E+01 -.702E+01 -.175E+03   -.823E+01 0.725E+01 0.175E+03   0.309E+01 -.154E+00 0.468E+00   -.292E-05 -.605E-04 0.403E-05
   0.704E+01 0.139E+02 0.222E+03   -.583E+01 -.161E+02 -.225E+03   -.626E+00 0.279E+01 0.314E+01   0.255E-04 0.425E-04 -.620E-04
   -.365E+01 -.116E+02 0.561E+02   0.253E+01 0.103E+02 -.568E+02   0.122E+01 0.155E+01 0.488E+00   -.306E-04 -.214E-04 -.304E-04
   -.177E+02 0.120E+02 -.188E+03   0.161E+02 -.104E+02 0.185E+03   0.724E+00 -.202E+01 0.235E+01   -.624E-04 -.416E-04 0.745E-04
   0.118E+02 -.163E+02 0.953E+02   -.122E+02 0.156E+02 -.950E+02   0.620E+00 0.162E+01 -.442E+00   0.440E-04 -.130E-03 -.972E-04
   0.212E+02 -.637E+01 0.160E+02   -.195E+02 0.453E+01 -.172E+02   -.208E+01 0.181E+01 0.132E+01   -.549E-04 -.544E-04 0.334E-04
   0.131E+02 -.119E+02 -.480E+02   -.131E+02 0.123E+02 0.489E+02   -.106E+01 -.284E+00 -.358E+00   0.835E-04 -.440E-04 -.755E-04
   0.361E+02 -.970E+01 0.209E+03   -.357E+02 0.959E+01 -.212E+03   -.600E+00 0.924E+00 0.256E+01   0.287E-04 -.344E-06 -.908E-04
   -.663E+01 0.150E+02 0.961E+02   0.506E+01 -.125E+02 -.957E+02   0.186E+01 -.253E+01 -.810E+00   -.340E-04 -.672E-04 -.397E-05
   0.180E+02 0.127E+02 0.193E+03   -.160E+02 -.961E+01 -.191E+03   -.360E+01 -.252E+01 -.231E+01   -.536E-04 0.221E-04 0.161E-04
   0.708E+01 -.101E+02 -.180E+03   -.646E+01 0.912E+01 0.182E+03   -.381E+00 0.583E+00 -.214E+01   0.440E-04 0.517E-04 0.245E-04
   0.647E+00 0.142E+02 -.164E+03   -.459E+00 -.102E+02 0.163E+03   -.435E+00 -.473E+01 0.101E+01   0.592E-05 -.733E-04 0.414E-04
   0.147E+02 -.243E+02 -.250E+03   -.164E+02 0.243E+02 0.253E+03   0.544E+00 0.675E+00 -.230E+01   0.295E-05 0.184E-04 0.973E-04
   -.109E+02 -.186E+02 -.118E+03   0.105E+02 0.176E+02 0.117E+03   0.117E+01 0.459E+00 0.300E+00   -.365E-04 0.535E-04 0.295E-04
   -.241E+02 0.461E+01 0.227E+03   0.247E+02 -.319E+01 -.228E+03   -.820E+00 -.229E+01 0.142E+01   0.379E-05 -.103E-04 -.323E-04
   -.220E+02 -.280E+02 -.111E+03   0.204E+02 0.275E+02 0.110E+03   0.219E+01 0.162E+01 0.566E+00   -.339E-04 -.241E-04 0.190E-04
   -.216E+00 -.103E+02 0.136E+02   0.170E+01 0.106E+02 -.165E+02   -.117E+01 0.745E+00 0.233E+01   0.319E-05 0.398E-04 -.935E-05
   -.467E+01 0.538E+01 0.544E+02   0.432E+01 -.478E+01 -.538E+02   0.189E-01 -.520E+00 -.115E+01   0.868E-04 -.137E-04 -.592E-04
   -.129E+02 -.292E+02 -.343E+02   0.125E+02 0.290E+02 0.337E+02   -.211E+00 0.126E+01 0.334E+00   -.425E-04 0.147E-04 0.315E-04
   0.182E+02 -.396E+02 0.121E+03   -.176E+02 0.378E+02 -.120E+03   -.839E+00 0.260E+01 -.201E+00   0.669E-04 -.496E-04 -.881E-04
   0.576E+00 0.503E+01 -.210E+03   -.105E+01 -.599E+01 0.210E+03   -.901E+00 0.768E+00 -.922E+00   0.673E-04 -.623E-04 0.153E-05
   -.217E+02 -.134E+01 0.205E+03   0.228E+02 0.240E+01 -.203E+03   -.230E+01 -.980E+00 -.125E+01   -.297E-04 -.445E-04 -.838E-05
   -.146E+02 -.101E+02 -.933E+02   0.159E+02 0.114E+02 0.921E+02   -.810E+00 -.209E+01 0.672E+00   -.720E-05 0.475E-04 0.311E-05
   0.786E+01 0.983E+01 -.222E+03   -.845E+01 -.101E+02 0.225E+03   0.795E+00 -.342E+00 -.226E+01   0.186E-04 0.548E-05 0.523E-05
   0.127E+02 -.161E+02 0.218E+03   -.132E+02 0.130E+02 -.216E+03   0.241E+01 0.237E+01 -.209E+01   -.456E-05 0.717E-04 -.156E-04
   0.142E+02 0.264E+02 -.162E+03   -.113E+02 -.244E+02 0.159E+03   -.486E+01 -.161E+01 0.334E+01   -.205E-04 0.273E-04 0.163E-04
   -.797E+01 0.266E+02 0.109E+03   0.780E+01 -.258E+02 -.108E+03   0.114E+01 -.448E+00 -.774E+00   -.528E-04 0.157E-04 0.197E-04
   0.206E+02 0.836E+01 -.659E+02   -.187E+02 -.858E+01 0.665E+02   -.233E+01 0.336E-01 -.332E+00   0.421E-05 0.957E-04 0.563E-05
   -.322E+01 -.728E+01 0.225E+03   0.335E+01 0.770E+01 -.226E+03   -.548E+00 -.250E+00 0.119E+01   -.514E-04 -.235E-04 -.929E-04
   0.358E+02 -.191E+01 0.121E+03   -.349E+02 -.425E+00 -.119E+03   -.568E+00 0.182E+01 -.228E+01   0.499E-06 0.713E-04 -.193E-04
   -.162E+02 0.853E+00 -.593E+02   0.162E+02 -.225E+01 0.584E+02   -.890E+00 0.105E+01 0.139E+01   -.342E-04 -.590E-04 0.119E-04
   -.222E+02 -.613E+01 0.617E+02   0.192E+02 0.586E+01 -.607E+02   0.381E+01 0.686E+00 -.353E+00   -.409E-04 -.476E-04 -.165E-04
   -.182E+02 0.156E+02 0.228E+03   0.203E+02 -.183E+02 -.230E+03   -.216E+01 0.272E+01 0.212E+01   0.144E-04 0.145E-04 -.875E-04
   0.615E+01 -.995E+01 -.148E+03   -.548E+01 0.950E+01 0.145E+03   -.904E+00 0.216E+00 0.388E+01   -.534E-04 -.323E-04 0.311E-04
   0.744E+00 0.301E+01 -.184E+03   -.593E+00 -.400E+01 0.181E+03   -.923E+00 0.593E+00 0.210E+01   0.294E-04 -.352E-04 0.178E-04
   -.111E+01 0.146E+02 0.133E+03   0.154E+01 -.125E+02 -.134E+03   -.236E-02 -.268E+01 -.479E-01   0.257E-04 -.261E-04 -.682E-04
   -.228E+02 0.313E+02 0.129E+03   0.212E+02 -.306E+02 -.126E+03   0.191E+01 0.804E-01 -.270E+01   -.263E-04 0.450E-04 -.242E-04
   -.148E+00 0.499E+01 -.218E+03   0.639E+00 -.643E+01 0.221E+03   -.132E+00 0.204E+01 -.253E+01   0.149E-04 0.355E-04 0.784E-04
   -.910E+01 0.569E+01 0.281E+02   0.708E+01 -.600E+01 -.290E+02   0.178E+01 0.897E+00 0.120E+01   0.690E-04 0.137E-04 0.105E-04
   -.110E+02 -.889E+01 -.111E+03   0.121E+02 0.711E+01 0.109E+03   -.400E-01 0.645E+00 0.215E+01   -.200E-04 -.363E-04 0.753E-04
   0.915E+01 -.133E+02 0.227E+03   -.820E+01 0.151E+02 -.228E+03   -.822E+00 -.243E+01 0.195E+00   -.706E-04 -.217E-04 -.237E-04
   -.133E+02 0.138E+02 -.148E+03   0.104E+02 -.123E+02 0.147E+03   0.399E+01 0.558E-01 0.113E+01   -.305E-04 0.602E-04 -.127E-05
   -.652E+01 -.104E+02 0.853E+01   0.686E+01 0.944E+01 -.102E+02   -.358E+00 0.447E+00 0.129E+01   -.310E-04 -.393E-04 0.290E-04
   0.141E+02 0.463E+01 0.555E+02   -.131E+02 -.309E+01 -.564E+02   -.126E+01 -.193E+01 0.130E+01   0.560E-04 0.551E-04 -.130E-04
 -----------------------------------------------------------------------------------------------
   -.116E+01 0.899E+01 -.965E+01   0.888E-14 0.711E-13 -.178E-12   0.117E+01 -.899E+01 0.965E+01   -.185E-05 -.224E-03 -.201E-03


 POSITION                                       TOTAL-FORCE (eV/Angst)
 -----------------------------------------------------------------------------------
     10.04980      8.23493     10.00000         0.121029      1.052889      0.820101
      8.81905      5.74476     10.91615        -0.360791     -0.149775      0.679133
      1.99516      5.61373     14.39110         0.287178     -0.373757      0.392183
     14.23970      1.70014     10.01077         0.578402     -2.084568     -0.300152
      9.02197      6.39312     13.76680         0.452325      0.397529     -1.162480
      5.91672      1.11371     15.22096        -0.073454     -0.075272     -0.448941
      1.23166     13.12620     13.61141         1.190442      0.973178     -0.153703
      7.47202      9.56939     14.20151         0.992573     -0.771418     -0.051033
     11.67510     10.77800     10.60565        -1.125194     -0.549160      0.021009
     12.08550     13.68800     13.17156        -0.777748     -0.149306     -0.255288
      1.22037      7.67237     13.59545        -0.369829     -0.782237     -0.714875
      8.11495      8.06080     12.38968        -0.445754     -0.045683      0.253058
      9.46900      9.89734     11.37147         0.389116     -1.400848     -1.351662
      6.71342      3.43188     10.73116        -0.081799      0.681003      0.405448
     12.98470      0.83599     14.49358         1.735508      0.340193      0.476287
     10.42850     12.26270     14.10631         1.390028     -0.058607      0.796533
     14.42030     13.79970     10.01464         0.497330      0.838660      0.373766
      2.00462      3.54805     12.09837         0.126358      0.360473     -0.079882
      8.06426      0.86937     14.31080        -0.888304     -0.398616     -0.453312
     14.35870      3.34771     11.54076         0.250454      0.880120     -0.236824
      3.33734     13.36120     12.34265        -0.397527      0.051143      0.194425
     12.90110      2.61438     13.06196        -1.091556      0.145663      0.480815
     13.29600      5.03121     10.36688        -0.083702      0.885300     -0.157429
      4.46434      0.87146     11.70894         0.378743     -0.078403     -0.405082
      3.30403     10.14090     10.45895        -1.661790      0.438023      0.345872
     12.37110      4.50245     14.37954         0.151071     -0.386495      0.129146
      2.34818      2.58784     14.19860        -0.278546     -0.993432      0.202486
      1.62985      4.39098     15.32962        -1.024128      0.689101      0.450706
      7.99414      4.33165     13.75635         0.902050     -0.576976     -0.055306
      6.59121     11.31750     10.51634        -0.287053     -1.025891     -0.023686
      9.48897      2.49361     13.70046         0.543694      1.099433     -0.473012
      2.42283      5.86125     12.40487         0.272671      1.084736     -0.407951
     13.98690     12.76610     12.18036        -0.362319      0.036405     -0.587788
      5.88331      4.03394     12.92091        -0.528193      1.131876     -0.199674
     10.97720      2.01960     11.81100        -0.287254      0.759568      0.794980
      1.03941      0.66245     14.79761        -1.473430     -0.135193     -0.694855
      6.74222      1.14203     10.76995        -1.276677      0.109481      0.134720
      4.67316      6.18070     13.16325         0.430154     -0.910068     -0.788937
      1.85608     11.32330     14.90482         0.288233     -0.703564     -0.015012
      1.25979      8.62581     10.24053         2.167357     -0.716810     -0.120111
      5.27638     10.05390     13.81698        -2.206928      0.366593     -0.089720
      5.17524      9.47457     11.53862         0.989689      0.350661     -0.676220
     11.40380      6.44068     13.44436        -0.567263     -0.154306      0.265384
      3.13913      2.30713     10.42093        -0.437745      0.121375     -0.145475
     12.55480      6.96961     11.52433         0.375651     -0.500244     -0.427109
      8.70617     11.25680     13.06503        -0.989227     -0.290178      0.527244
      8.02506     14.43740     12.13224         1.039582      0.444480      0.676431
      2.43131      6.50069     10.03412        -0.386576      0.428175      0.283746
      4.98580     12.42080     13.61193        -0.224271     -0.301853      0.993015
     12.08750     10.41030     14.30081        -0.848860     -0.444015     -0.391283
     10.32970     14.39350     11.66161         0.424840     -0.641330     -0.087794
      5.94669      7.23955     11.58936         0.413309      0.995935      0.513761
     12.00830      8.12161     14.95086         0.279248      0.787152      0.134079
     13.25090     10.51840     12.29057        -0.178379      0.643640      0.365883
      4.52783      2.29172     13.53958         1.052630     -1.100080      0.747833
      3.39575     12.48400     10.21312         0.051846     -0.896533     -0.501307
      2.69199      9.31799     14.03389         1.278381      1.619516     -0.169049
      6.89963     12.54200     12.44873         0.005916     -0.530399     -0.280274
     14.29300      8.55622     11.90643        -0.341511     -0.487285      0.447179
 -----------------------------------------------------------------------------------
    total drift:                                0.005006     -0.002629     -0.004782


--------------------------------------------------------------------------------------------------------



  FREE ENERGIE OF THE ION-ELECTRON SYSTEM (eV)
  ---------------------------------------------------
  free  energy   TOTEN  =      -506.34574182 eV

  energy  without entropy=     -506.19251797  energy(sigma->0) =     -506.26912989



--------------------------------------------------------------------------------------------------------


    POTLOK:  cpu time      3.1891: real time      3.1913


--------------------------------------------------------------------------------------------------------


     LOOP+:  cpu time   5425.5500: real time   5429.3315
    4ORBIT:  cpu time      0.0000: real time      0.0000



 total charge

# of ion       s       p       d       tot
------------------------------------------
    1        0.395   0.002   0.000   0.398
    2        0.369   0.001   0.000   0.370
    3        0.539   0.019   0.000   0.558
    4        0.844   0.753   0.000   1.597
    5        0.800   0.828   0.000   1.628
    6        0.864   0.706   0.000   1.570
    7        0.764   0.901   0.000   1.665
    8        0.816   0.831   0.000   1.646
    9        0.884   0.685   0.000   1.569
   10        0.760   0.898   0.000   1.659
   11        0.813   0.814   0.000   1.627
   12        0.779   0.836   0.000   1.615
   13        0.793   0.761   0.000   1.553
   14        0.864   0.716   0.000   1.580
   15        0.813   0.820   0.000   1.633
   16        0.812   0.822   0.000   1.634
   17        0.860   0.693   0.000   1.553
   18        0.780   0.920   0.000   1.700
   19        0.801   0.869   0.000   1.670
   20        0.773   0.988   0.000   1.761
   21        0.775   0.896   0.000   1.671
   22        0.773   0.929   0.000   1.702
   23        0.854   0.744   0.000   1.598
   24        0.770   0.895   0.000   1.665
   25        0.799   0.820   0.000   1.618
   26        0.864   0.717   0.000   1.581
   27        0.760   0.971   0.000   1.730
   28        0.869   0.746   0.000   1.616
   29        0.791   0.853   0.000   1.644
   30        0.860   0.713   0.000   1.574
   31        0.790   0.836   0.000   1.626
   32        0.767   0.854   0.000   1.621
   33        0.773   0.905   0.000   1.677
   34        0.759   0.902   0.000   1.662
   35        0.817   0.819   0.000   1.636
   36        0.795   0.792   0.000   1.587
   37        0.802   0.866   0.000   1.668
   38        0.809   0.824   0.000   1.633
   39        0.849   0.754   0.000   1.603
   40        0.813   0.813   0.000   1.626
   41        0.786   0.845   0.000   1.631
   42        0.772   0.904   0.000   1.676
   43        0.767   0.908   0.000   1.675
   44        0.860   0.724   0.000   1.584
   45        0.804   0.824   0.000   1.628
   46        0.784   0.932   0.000   1.716
   47        0.768   0.950   0.000   1.717
   48        0.880   0.684   0.000   1.564
   49        0.788   0.884   0.000   1.672
   50        0.804   0.818   0.000   1.621
   51        0.805   0.846   0.000   1.650
   52        0.809   0.818   0.000   1.626
   53        0.860   0.728   0.000   1.589
   54        0.764   0.957   0.000   1.721
   55        0.772   0.918   0.000   1.689
   56        0.853   0.742   0.000   1.595
   57        0.800   0.808   0.000   1.608
   58        0.768   1.001   0.000   1.768
   59        0.767   0.933   0.000   1.700
--------------------------------------------------
tot         46.419  46.734   0.000  93.154


 total amount of memory used by VASP MPI-rank0   338614. kBytes
=======================================================================

   base                                    :      30000. kBytes
   nonl-proj                               :      62157. kBytes
   fftplans                                :      97997. kBytes
   grid                                    :      75605. kBytes
   one-center                              :         12. kBytes
   wavefun                                 :      72843. kBytes

  
  
 General timing and accounting informations for this job:
 ========================================================
  
                  Total CPU time used (sec):     5560.778
                            User time (sec):     4900.321
                          System time (sec):      660.457
                         Elapsed time (sec):     5564.675
  
                   Maximum memory used (kb):      592672.
                   Average memory used (kb):          N/A
  
                          Minor page faults:      8772355
                          Major page faults:         1165
                 Voluntary context switches:         3120
