 vasp.6.5.0 16Dec24 (build Jan 20 2025 08:32:48) complex                         
 executed on        HPECrayEX_GCC date 2025.07.21  23:59:55
 running  128 mpi-ranks, with    1 threads/rank, on    1 nodes
 distrk:  each k-point on  128 cores,    1 groups
 distr:  one band on NCORE=  16 cores,    8 groups


--------------------------------------------------------------------------------------------------------


 INCAR:
   SYSTEM = a-Si SPC
   NCORE = 16
   ISTART = 1
   ICHARG = 1
   ISPIN = 1
   ISYM = 1
   EDIFF = 1E-6
   NELM = 150
   EDIFFG = -0.01
   NSW = 0
   ISIF = 2
   IBRION = -1
   PREC = Accurate
   ENCUT = 1200
   KSPACING = 0.23
   KGAMMA = .TRUE.
   METAGGA = SCAN
   LASPH = .TRUE.
   LDIAG = .FALSE.
   LMIXTAU = .TRUE.
   ADDGRID = .TRUE.
   ALGO = Normal
   ISMEAR = 0
   SIGMA = 0.1
   LORBIT = 11
   NEDOS = 2000
   LWAVE = .FALSE.
   LCHARG = .FALSE.

 POTCAR:    PAW_PBE H 15Jun2001                   
 POTCAR:    PAW_PBE Si 05Jan2001                  
 POTCAR:    PAW_PBE H 15Jun2001                   
   SHA256 =  030f79b5d3ab3cf0e668861823c8fb652ff669f3e15e46930bd03bfd63a607b6 H/POTCAR              
   COPYR  = (c) Copyright 15Jun2001 Georg Kresse                                                    
   COPYR  = This file is part of the software VASP. Any use, copying, and all other rights are regul
   COPYR  = If you do not have a valid VASP license, you may not use, copy or distribute this file. 
   VRHFIN =H: ultrasoft test                                                                        
   LEXCH  = PE                                                                                      
   EATOM  =    12.4884 eV,    0.9179 Ry                                                             
                                                                                                    
   TITEL  = PAW_PBE H 15Jun2001                                                                     
   LULTRA =        F    use ultrasoft PP ?                                                          
   IUNSCR =        0    unscreen: 0-lin 1-nonlin 2-no                                               
   RPACOR =    0.000    partial core radius                                                         
   POMASS =    1.000; ZVAL   =    1.000    mass and valenz                                          
   RCORE  =    1.100    outmost cutoff radius                                                       
   RWIGS  =    0.700; RWIGS  =    0.370    wigner-seitz radius (au A)                               
   ENMAX  =  250.000; ENMIN  =  200.000 eV                                                          
   RCLOC  =    0.701    cutoff for local pot                                                        
   LCOR   =        T    correct aug charges                                                         
   LPAW   =        T    paw PP                                                                      
   EAUG   =  400.000                                                                                
   RMAX   =    1.123    core radius for proj-oper                                                   
   RAUG   =    1.200    factor for augmentation sphere                                              
   RDEP   =    1.112    radius for radial grids                                                     
   RDEPT  =    0.926    core radius for aug-charge                                                  
                                                                                                    
   Atomic configuration                                                                             
    2 entries                                                                                       
     n  l   j            E        occ.                                                              
     1  0  0.50        -6.4927   1.0000                                                             
     2  1  0.50        -3.4015   0.0000                                                             
   Description                                                                                      
     l       E           TYP  RCUT    TYP  RCUT                                                     
     0     -6.4927494     23  1.100                                                                 
     0      6.8029130     23  1.100                                                                 
     1     -4.0817478     23  1.100                                                                 
  local pseudopotential read in
  atomic valenz-charges read in
  non local Contribution for L=           0  read in
    real space projection operators read in
  non local Contribution for L=           0  read in
    real space projection operators read in
  non local Contribution for L=           1  read in
    real space projection operators read in
    PAW grid and wavefunctions read in

   number of l-projection  operators is LMAX  =           3
   number of lm-projection operators is LMMAX =           5

 POTCAR:    PAW_PBE Si 05Jan2001                  
   SHA256 =  79d9987ad8750f624c4d6acb2a16d13abf6a777132adc04dc6c8399be72b42bb Si/POTCAR             
   COPYR  = (c) Copyright 05Jan2001 Georg Kresse                                                    
   COPYR  = This file is part of the software VASP. Any use, copying, and all other rights are regul
   COPYR  = If you do not have a valid VASP license, you may not use, copy or distribute this file. 
   VRHFIN =Si: s2p2                                                                                 
   LEXCH  = PE                                                                                      
   EATOM  =   103.0669 eV,    7.5752 Ry                                                             
                                                                                                    
   TITEL  = PAW_PBE Si 05Jan2001                                                                    
   LULTRA =        F    use ultrasoft PP ?                                                          
   IUNSCR =        1    unscreen: 0-lin 1-nonlin 2-no                                               
   RPACOR =    1.500    partial core radius                                                         
   POMASS =   28.085; ZVAL   =    4.000    mass and valenz                                          
   RCORE  =    1.900    outmost cutoff radius                                                       
   RWIGS  =    2.480; RWIGS  =    1.312    wigner-seitz radius (au A)                               
   ENMAX  =  245.345; ENMIN  =  184.009 eV                                                          
   ICORE  =        2    local potential                                                             
   LCOR   =        T    correct aug charges                                                         
   LPAW   =        T    paw PP                                                                      
   EAUG   =  322.069                                                                                
   DEXC   =    0.000                                                                                
   RMAX   =    1.950    core radius for proj-oper                                                   
   RAUG   =    1.300    factor for augmentation sphere                                              
   RDEP   =    1.993    radius for radial grids                                                     
   RDEPT  =    1.837    core radius for aug-charge                                                  
                                                                                                    
   Atomic configuration                                                                             
    6 entries                                                                                       
     n  l   j            E        occ.                                                              
     1  0  0.50     -1785.8828   2.0000                                                             
     2  0  0.50      -139.4969   2.0000                                                             
     2  1  1.50       -95.5546   6.0000                                                             
     3  0  0.50       -10.8127   2.0000                                                             
     3  1  0.50        -4.0811   2.0000                                                             
     3  2  1.50        -4.0817   0.0000                                                             
   Description                                                                                      
     l       E           TYP  RCUT    TYP  RCUT                                                     
     0    -10.8127223     23  1.900                                                                 
     0     -7.6451159     23  1.900                                                                 
     1     -4.0811372     23  1.900                                                                 
     1      2.4879257     23  1.900                                                                 
     2     -4.0817478      7  1.900                                                                 
  local pseudopotential read in
  partial core-charges read in
  partial kinetic energy density read in
  atomic valenz-charges read in
  non local Contribution for L=           0  read in
    real space projection operators read in
  non local Contribution for L=           0  read in
    real space projection operators read in
  non local Contribution for L=           1  read in
    real space projection operators read in
  non local Contribution for L=           1  read in
    real space projection operators read in
    PAW grid and wavefunctions read in

   number of l-projection  operators is LMAX  =           4
   number of lm-projection operators is LMMAX =           8

 -----------------------------------------------------------------------------
|                                                                             |
|               ----> ADVICE to this user running VASP <----                  |
|                                                                             |
|     You have a (more or less) 'large supercell' and for larger cells it     |
|     might be more efficient to use real-space projection operators.         |
|     Therefore, try LREAL= Auto in the INCAR file.                           |
|     Mind: For very accurate calculation, you might also keep the            |
|     reciprocal projection scheme (i.e. LREAL=.FALSE.).                      |
|                                                                             |
 -----------------------------------------------------------------------------

 -----------------------------------------------------------------------------
|                                                                             |
|               ----> ADVICE to this user running VASP <----                  |
|                                                                             |
|     You enforced a specific xc type in the INCAR file but a different       |
|     type was found in the POTCAR file.                                      |
|     I HOPE YOU KNOW WHAT YOU ARE DOING!                                     |
|                                                                             |
 -----------------------------------------------------------------------------

  PAW_PBE H 15Jun2001                   :
 energy of atom  1       EATOM=  -12.4884
 kinetic energy error for atom=    0.0000 (will be added to EATOM!!)
  PAW_PBE Si 05Jan2001                  :
 energy of atom  2       EATOM= -103.0669
 kinetic energy error for atom=    0.0001 (will be added to EATOM!!)


 POSCAR:  H Si
  positions in cartesian coordinates
  No initial velocities read in


 exchange-correlation table for SCAN
   RHO(1)=    0.500       N(1)  =     2000
   RHO(2)=  100.500       N(2)  =     4000



--------------------------------------------------------------------------------------------------------


 ion  position               nearest neighbor table
   1  0.119  0.385  0.063-  11 0.71
   2  0.251  0.511  0.518- 103 1.47
   3  0.801  0.305  0.012-  95 1.47
   4  0.972  0.577  0.501- 100 1.45
   5  0.885  0.177  0.855-  89 1.61
   6  0.123  0.332  0.327-  29 0.72
   7  0.209  0.228  0.967-  25 0.74
   8  0.113  0.107  0.784-  96 1.55
   9  0.110  0.328  0.563-  18 0.70
  10  0.225  0.278  0.419-  63 1.51
  11  0.154  0.398  0.020-   1 0.71
  12  0.887  0.458  0.459-  97 1.49
  13  0.923  0.484  0.949-  14 0.69
  14  0.966  0.470  0.970-  13 0.69
  15  0.073  0.403  0.781-  20 0.76
  16  0.932  0.245  0.333-  87 1.43
  17  0.855  0.351  0.278-  49 1.48
  18  0.079  0.361  0.542-   9 0.70
  19  0.196  0.551  0.141- 117 1.43
  20  0.103  0.361  0.769-  15 0.76
  21  0.928  0.170  0.115-  35 0.77
  22  0.358  0.368  0.203-  82 1.51
  23  0.845  0.532  0.092-  77 1.53
  24  0.104  0.159  0.187-  39 0.76
  25  0.197  0.238  0.901-   7 0.74
  26  0.393  0.315  0.880- 102 1.55
  27  0.000  0.438  0.190-  41 0.74
  28  0.055  0.528  0.711-  30 0.70
  29  0.088  0.331  0.279-   6 0.72
  30  0.044  0.571  0.735-  28 0.70
  31  0.228  0.533  0.752- 113 1.51
  32  0.141  0.717  0.673-  62 1.52
  33  0.049  0.036  0.950-  96 1.52
  34  0.794  0.469  0.929-  44 1.50
  35  0.960  0.147  0.067-  21 0.77
  36  0.309  0.110  0.917- 110 1.52
  37  0.299  0.301  0.719-  54 1.43
  38  0.917  0.631  0.858-  94 1.49
  39  0.100  0.194  0.135-  24 0.76
  40  0.078  0.007  0.111-  71 1.56
  41  0.963  0.445  0.238-  27 0.74
  42  0.957  0.434  0.677-  97 1.52
  43  0.466  0.002  0.410-  56 2.42  59 2.42  83 2.45 106 2.46
  44  0.706  0.497  0.867-  34 1.50  79 2.29 112 2.30  70 2.45
  45  0.251  0.871  0.189-  74 2.22  86 2.34 109 2.36 114 2.39
  46  0.833  0.678  0.309- 100 2.34  77 2.41  69 2.41  73 2.63
  47  0.566  0.240  0.434- 122 2.27 101 2.30 111 2.43  93 2.46
  48  0.186  0.893  0.807-  62 2.34  88 2.36  96 2.38 114 2.41
  49  0.761  0.386  0.258-  17 1.48 111 2.29  77 2.33  95 2.42
  50  0.426  0.777  0.942-  72 2.31 125 2.31  75 2.33  74 2.40
  51  0.689  0.137  0.109-  68 2.32  95 2.38  84 2.47  98 2.49
  52  0.371  0.665  0.606-  58 2.27 103 2.27  64 2.32 113 2.33
  53  0.594  0.732  0.258-  69 2.25  61 2.29  55 2.35 105 2.39
  54  0.343  0.224  0.661-  37 1.43 110 2.32 101 2.34  63 2.41
  55  0.436  0.740  0.299-  53 2.35  74 2.37  58 2.41 123 2.42  86 2.98
  56  0.506  0.966  0.194-  68 2.28 105 2.35  74 2.38  43 2.42
  57  0.796  0.301  0.563-  92 2.29 111 2.31  87 2.40  97 2.49
  58  0.325  0.771  0.463-  52 2.27  86 2.33  55 2.41  59 2.42
  59  0.325  0.936  0.487- 109 2.25  88 2.38  58 2.42  43 2.42
  60  0.637  0.627  0.567-  69 2.30  64 2.43  79 2.45 119 2.48
  61  0.633  0.593  0.170-  53 2.29  77 2.32  78 2.33 112 2.41
  62  0.098  0.812  0.661-  32 1.52  48 2.34  85 2.34  99 2.35
  63  0.260  0.188  0.470-  10 1.51  65 2.22  83 2.36  54 2.41
  64  0.515  0.717  0.664-  52 2.32 125 2.42  60 2.43  75 2.54
  65  0.138  0.105  0.419-  63 2.22  90 2.31 109 2.37
  66  0.466  0.451  0.609- 119 2.37 101 2.41 103 2.43  81 2.44
  67  0.037  0.787  0.120- 121 2.35 114 2.36  73 2.40  71 2.43
  68  0.533  0.102  0.095-  93 2.27  56 2.28  51 2.32  76 2.47
  69  0.695  0.726  0.418-  53 2.25  60 2.30 118 2.33  46 2.41
  70  0.617  0.358  0.910- 102 2.34  95 2.41 107 2.41  44 2.45
  71  0.009  0.944  0.184-  40 1.56  91 2.35  80 2.40  67 2.43
  72  0.287  0.701  0.957- 113 2.31  50 2.31 117 2.38 114 2.39
  73  0.874  0.769  0.102-  91 2.32  67 2.40 120 2.40  46 2.63
  74  0.398  0.850  0.143-  45 2.22  55 2.37  56 2.38  50 2.40
  75  0.440  0.860  0.755-  50 2.33 116 2.34  88 2.35  64 2.54
  76  0.520  0.095  0.863- 116 2.35 110 2.36 107 2.37  68 2.47
  77  0.780  0.540  0.205-  23 1.53  61 2.32  49 2.33  46 2.41
  78  0.526  0.488  0.246-  82 2.26  61 2.33 119 2.41 123 2.44
  79  0.764  0.555  0.683-  44 2.29  97 2.35  94 2.40  60 2.45
  80  0.967  0.956  0.403-  99 2.33  71 2.40  90 2.42 108 2.45 104 3.08
  81  0.434  0.519  0.815- 113 2.35 125 2.39 102 2.42  66 2.44
  82  0.457  0.362  0.166-  22 1.51  78 2.26  93 2.31 102 2.39
  83  0.374  0.131  0.333-  93 2.33  63 2.36  43 2.45
  84  0.777  0.026  0.983-  91 2.35  89 2.41  51 2.47 115 2.47
  85  0.947  0.766  0.621-  62 2.34 108 2.36  94 2.40 100 2.40
  86  0.232  0.731  0.293- 121 2.31  58 2.33  45 2.34 117 2.35  55 2.98
  87  0.880  0.199  0.429-  16 1.43  90 2.34  57 2.40  98 2.57
  88  0.317  0.958  0.709-  75 2.35  48 2.36  59 2.38 110 2.40
  89  0.828  0.096  0.789-   5 1.61  92 2.34 104 2.35  84 2.41
  90  0.993  0.101  0.508- 104 2.29  65 2.31  87 2.34  80 2.42
  91  0.856  0.927  0.119- 124 2.28  73 2.32  84 2.35  71 2.35
  92  0.724  0.185  0.671-  57 2.29  89 2.34 122 2.34 107 2.41
  93  0.489  0.214  0.230-  68 2.27  82 2.31  83 2.33  47 2.46
  94  0.856  0.677  0.765-  38 1.49 120 2.30  79 2.40  85 2.40
  95  0.712  0.297  0.077-   3 1.47  51 2.38  70 2.41  49 2.42
  96  0.073  0.011  0.815-  33 1.52   8 1.55 104 2.37  48 2.38
  97  0.871  0.452  0.598-  12 1.49  42 1.52  79 2.35  57 2.49
  98  0.750  0.107  0.324- 122 2.24 124 2.44  51 2.49  87 2.57
  99  0.095  0.869  0.454- 109 2.30  80 2.33  62 2.35 121 2.49
 100  0.960  0.666  0.442-   4 1.45 121 2.31  46 2.34  85 2.40
 101  0.485  0.287  0.609-  47 2.30  54 2.34 107 2.39  66 2.41
 102  0.460  0.384  0.943-  26 1.55  70 2.34  82 2.39  81 2.42
 103  0.348  0.534  0.493-   2 1.47  52 2.27 123 2.36  66 2.43
 104  0.944  0.018  0.679-  90 2.29 108 2.31  89 2.35  96 2.37  80 3.08
 105  0.634  0.872  0.153-  56 2.35  53 2.39 124 2.41 115 2.56
 106  0.595  0.979  0.557- 122 2.37 116 2.45  43 2.46 118 2.54
 107  0.583  0.230  0.772-  76 2.37 101 2.39  70 2.41  92 2.41
 108  0.867  0.903  0.574- 104 2.31 118 2.32  85 2.36  80 2.45
 109  0.203  0.962  0.361-  59 2.25  99 2.30  45 2.36  65 2.37
 110  0.366  0.101  0.798-  36 1.52  54 2.32  76 2.36  88 2.40
 111  0.680  0.362  0.441-  49 2.29  57 2.31 119 2.33  47 2.43
 112  0.653  0.633  0.950- 125 2.19  44 2.30  61 2.41 120 2.50
 113  0.299  0.605  0.785-  31 1.51  72 2.31  52 2.33  81 2.35
 114  0.173  0.814  0.006-  67 2.36  45 2.39  72 2.39  48 2.41
 115  0.681  0.893  0.922- 116 2.37  84 2.47 120 2.49 105 2.56
 116  0.569  0.953  0.783-  75 2.34  76 2.35 115 2.37 106 2.45
 117  0.270  0.616  0.147-  19 1.43 123 2.35  86 2.35  72 2.38
 118  0.725  0.876  0.481- 108 2.32  69 2.33 124 2.39 106 2.54
 119  0.582  0.487  0.460- 111 2.33  66 2.37  78 2.41  60 2.48
 120  0.776  0.751  0.922-  94 2.30  73 2.40 115 2.49 112 2.50
 121  0.075  0.729  0.321- 100 2.31  86 2.31  67 2.35  99 2.49
 122  0.656  0.121  0.491-  98 2.24  47 2.27  92 2.34 106 2.37
 123  0.390  0.581  0.287- 117 2.35 103 2.36  55 2.42  78 2.44
 124  0.753  0.943  0.279-  91 2.28 118 2.39 105 2.41  98 2.44
 125  0.514  0.654  0.876- 112 2.19  50 2.31  81 2.39  64 2.42

  LATTYP: Found a simple tetragonal cell.
 ALAT       =    14.5791451707
 C/A-ratio  =     0.7258956480
  
  Lattice vectors:
  
 A1 = (  14.5791451707,   0.0000000000,   0.0000000000)
 A2 = (   0.0000000000,  14.5791451707,   0.0000000000)
 A3 = (   0.0000000000,   0.0000000000,  10.5829380304)


Analysis of symmetry for initial positions (statically):
=====================================================================
 Subroutine PRICEL returns:
 Original cell was already a primitive cell.
 

 Routine SETGRP: Setting up the symmetry group for a 
 simple tetragonal supercell.


 Subroutine GETGRP returns: Found  1 space group operations
 (whereof  1 operations were pure point group operations)
 out of a pool of 16 trial point group operations.


The static configuration has the point symmetry C_1 .


Analysis of symmetry for dynamics (positions and initial velocities):
=====================================================================
 Subroutine PRICEL returns:
 Original cell was already a primitive cell.
 

 Routine SETGRP: Setting up the symmetry group for a 
 simple tetragonal supercell.


 Subroutine GETGRP returns: Found  1 space group operations
 (whereof  1 operations were pure point group operations)
 out of a pool of 16 trial point group operations.


The dynamic configuration has the point symmetry C_1 .


 Subroutine INISYM returns: Found  1 space group operations
 (whereof  1 operations are pure point group operations),
 and found     1 'primitive' translations


----------------------------------------------------------------------------------------

                                     Primitive cell                                     

  volume of cell :    2249.4191

  direct lattice vectors                    reciprocal lattice vectors
    14.579145171  0.000000000  0.000000000     0.068591127  0.000000000  0.000000000
     0.000000000 14.579145171  0.000000000     0.000000000  0.068591127  0.000000000
     0.000000000  0.000000000 10.582938030     0.000000000  0.000000000  0.094491718

  length of vectors
    14.579145171 14.579145171 10.582938030     0.068591127  0.068591127  0.094491718

  position of ions in fractional coordinates (direct lattice)
     0.118606405  0.385273618  0.062663411
     0.251496913  0.510694551  0.517952575
     0.800533904  0.304702364  0.012251418
     0.972155763  0.577042063  0.501071629
     0.885415424  0.177247703  0.855108475
     0.123166343  0.331722467  0.327482783
     0.209093192  0.228284303  0.966858161
     0.113318029  0.106688011  0.784125351
     0.110493447  0.328128292  0.562534712
     0.225155862  0.278336621  0.419080220
     0.153682536  0.397787383  0.019549297
     0.887274243  0.457751118  0.458920763
     0.923133685  0.484367219  0.948904734
     0.965776788  0.469747706  0.970184269
     0.073092763  0.402684103  0.780759556
     0.932201432  0.244801047  0.333071968
     0.854796345  0.350870366  0.278041881
     0.078715863  0.360998532  0.541975204
     0.196328383  0.551004871  0.141491899
     0.103365457  0.360873696  0.768537997
     0.928195710  0.170237004  0.115218477
     0.357603271  0.368426951  0.203077821
     0.845221023  0.531719789  0.092027280
     0.104475261  0.159414010  0.187429048
     0.196586972  0.237815726  0.900674271
     0.393320729  0.314889518  0.879664983
     0.000161520  0.438333656  0.189940638
     0.054551689  0.527565225  0.710970808
     0.088402302  0.330640785  0.279104913
     0.043938722  0.571076006  0.735307150
     0.228140262  0.533241141  0.751514369
     0.140687261  0.716722406  0.673166561
     0.048978523  0.035701270  0.950152025
     0.793846269  0.469017211  0.929121948
     0.959871092  0.146876924  0.066588975
     0.308878878  0.109552376  0.917329382
     0.298922190  0.300914762  0.718839133
     0.916795864  0.630576751  0.858199299
     0.099563451  0.194080652  0.134670542
     0.078353702  0.006824056  0.110767917
     0.963396676  0.444691367  0.237615489
     0.957072574  0.434179777  0.676884810
     0.466055446  0.002260270  0.410124295
     0.705542052  0.497027769  0.867103254
     0.250826091  0.871141610  0.188653661
     0.832511087  0.677705715  0.308595778
     0.565586658  0.240339880  0.433578085
     0.186447145  0.893310263  0.807490318
     0.760757909  0.386268189  0.258448079
     0.425743754  0.776753360  0.942388585
     0.688545171  0.137179511  0.109176676
     0.370548474  0.664564341  0.606236187
     0.594420311  0.731887904  0.257965226
     0.343154550  0.223855374  0.661168003
     0.436415162  0.740105121  0.299483942
     0.505779997  0.965667043  0.194304265
     0.795746243  0.301136311  0.563295371
     0.325226887  0.771019142  0.463028318
     0.324503937  0.935980803  0.486575655
     0.637110742  0.627478490  0.567376468
     0.632624197  0.593134227  0.170189034
     0.098011233  0.811817144  0.661423130
     0.259832792  0.188444519  0.470360876
     0.514847744  0.716557787  0.664364658
     0.137671995  0.105275720  0.419001792
     0.466028695  0.451483947  0.608652340
     0.037352876  0.786596187  0.120444814
     0.533480524  0.101845477  0.095031266
     0.695397424  0.725913617  0.417944430
     0.616934662  0.357575834  0.910097930
     0.009463861  0.944060838  0.184047189
     0.287140978  0.701159079  0.956974327
     0.874173338  0.768920253  0.102332641
     0.397791498  0.849603996  0.142508630
     0.440239117  0.859584005  0.754852762
     0.520032547  0.095333436  0.862744351
     0.780409267  0.539987078  0.205449564
     0.525509549  0.488404493  0.246165100
     0.763830792  0.555182756  0.682714004
     0.966695909  0.955817357  0.402922136
     0.433718159  0.519074329  0.814943825
     0.457359463  0.362255121  0.166184475
     0.374181746  0.131483703  0.332659984
     0.776739642  0.025844039  0.982723320
     0.946845637  0.766402959  0.620962721
     0.232349700  0.731003078  0.292958344
     0.880421990  0.199089176  0.429143588
     0.316868372  0.957600726  0.709185859
     0.827565667  0.096473420  0.789211840
     0.993110353  0.100524412  0.508319144
     0.856168167  0.926755296  0.119451706
     0.724150825  0.184882582  0.671154832
     0.489270113  0.214072908  0.229956936
     0.855982971  0.677489653  0.764974715
     0.711776985  0.297401525  0.077101840
     0.073052980  0.011026161  0.814504439
     0.871491425  0.452289206  0.598286599
     0.750366354  0.107070064  0.324219984
     0.095183221  0.868740921  0.453548909
     0.959768206  0.665648081  0.442295890
     0.485371393  0.287451696  0.608542730
     0.460312997  0.384006739  0.942559615
     0.348008744  0.534195243  0.492900930
     0.943807050  0.018004416  0.679278285
     0.633717539  0.871896113  0.153429038
     0.594707021  0.978692498  0.557471846
     0.582809890  0.230269331  0.772161755
     0.866991847  0.902775838  0.574131681
     0.202804757  0.962093445  0.361102937
     0.365642151  0.101232273  0.797694362
     0.679908862  0.361980757  0.440509052
     0.652648004  0.632873182  0.950416602
     0.298906414  0.605056737  0.784632772
     0.173449813  0.813723978  0.006354691
     0.681178484  0.892734097  0.922371460
     0.569259713  0.953073712  0.783278705
     0.269817603  0.615690419  0.147279517
     0.724864173  0.876320240  0.481473102
     0.581944270  0.487097832  0.459915761
     0.775539297  0.750565268  0.922055857
     0.075115515  0.729041372  0.321112151
     0.656292251  0.120878143  0.490693604
     0.389533812  0.581244641  0.287471210
     0.752513256  0.942757606  0.278705213
     0.514095299  0.654499965  0.876059179

  ion indices of the primitive-cell ions
   primitive index   ion index
                 1           1
                 2           2
                 3           3
                 4           4
                 5           5
                 6           6
                 7           7
                 8           8
                 9           9
                10          10
                11          11
                12          12
                13          13
                14          14
                15          15
                16          16
                17          17
                18          18
                19          19
                20          20
                21          21
                22          22
                23          23
                24          24
                25          25
                26          26
                27          27
                28          28
                29          29
                30          30
                31          31
                32          32
                33          33
                34          34
                35          35
                36          36
                37          37
                38          38
                39          39
                40          40
                41          41
                42          42
                43          43
                44          44
                45          45
                46          46
                47          47
                48          48
                49          49
                50          50
                51          51
                52          52
                53          53
                54          54
                55          55
                56          56
                57          57
                58          58
                59          59
                60          60
                61          61
                62          62
                63          63
                64          64
                65          65
                66          66
                67          67
                68          68
                69          69
                70          70
                71          71
                72          72
                73          73
                74          74
                75          75
                76          76
                77          77
                78          78
                79          79
                80          80
                81          81
                82          82
                83          83
                84          84
                85          85
                86          86
                87          87
                88          88
                89          89
                90          90
                91          91
                92          92
                93          93
                94          94
                95          95
                96          96
                97          97
                98          98
                99          99
               100         100
               101         101
               102         102
               103         103
               104         104
               105         105
               106         106
               107         107
               108         108
               109         109
               110         110
               111         111
               112         112
               113         113
               114         114
               115         115
               116         116
               117         117
               118         118
               119         119
               120         120
               121         121
               122         122
               123         123
               124         124
               125         125

----------------------------------------------------------------------------------------


 -----------------------------------------------------------------------------
|                                                                             |
|           W    W    AA    RRRRR   N    N  II  N    N   GGGG   !!!           |
|           W    W   A  A   R    R  NN   N  II  NN   N  G    G  !!!           |
|           W    W  A    A  R    R  N N  N  II  N N  N  G       !!!           |
|           W WW W  AAAAAA  RRRRR   N  N N  II  N  N N  G  GGG   !            |
|           WW  WW  A    A  R   R   N   NN  II  N   NN  G    G                |
|           W    W  A    A  R    R  N    N  II  N    N   GGGG   !!!           |
|                                                                             |
|     The requested file  could not be found or opened for reading            |
|     k-point information. Automatic k-point generation is used as a          |
|     fallback, which may lead to unwanted results.                           |
|                                                                             |
 -----------------------------------------------------------------------------



Automatic generation of k-mesh.
 Grid dimensions derived from KSPACING:
 generate k-points for:    2    2    3

 Generating k-lattice:

  Cartesian coordinates                     Fractional coordinates (reciprocal lattice)
     0.034295564  0.000000000  0.000000000     0.500000000  0.000000000  0.000000000
     0.000000000  0.034295564  0.000000000     0.000000000  0.500000000  0.000000000
     0.000000000  0.000000000  0.031497239     0.000000000  0.000000000  0.333333333

  Length of vectors
     0.034295564  0.034295564  0.031497239

  Shift w.r.t. Gamma in fractional coordinates (k-lattice)
     0.000000000  0.000000000  0.000000000

 
 Subroutine IBZKPT returns following result:
 ===========================================
 
 Found      8 irreducible k-points:
 
 Following reciprocal coordinates:
            Coordinates               Weight
  0.000000  0.000000  0.000000      1.000000
  0.500000  0.000000  0.000000      1.000000
  0.000000  0.500000  0.000000      1.000000
  0.500000  0.500000  0.000000      1.000000
  0.000000  0.000000  0.333333      2.000000
  0.500000  0.000000  0.333333      2.000000
  0.000000  0.500000  0.333333      2.000000
  0.500000  0.500000  0.333333      2.000000
 
 Following cartesian coordinates:
            Coordinates               Weight
  0.000000  0.000000  0.000000      1.000000
  0.034296  0.000000  0.000000      1.000000
  0.000000  0.034296  0.000000      1.000000
  0.034296  0.034296  0.000000      1.000000
  0.000000  0.000000  0.031497      2.000000
  0.034296  0.000000  0.031497      2.000000
  0.000000  0.034296  0.031497      2.000000
  0.034296  0.034296  0.031497      2.000000
 


--------------------------------------------------------------------------------------------------------




 Dimension of arrays:
   k-points           NKPTS =      8   k-points in BZ     NKDIM =      8   number of bands    NBANDS=    256
   number of dos      NEDOS =   2000   number of ions     NIONS =    125
   non local maximal  LDIM  =      4   non local SUM 2l+1 LMDIM =      8
   total plane-waves  NPLWV = ******
   max r-space proj   IRMAX =      1   max aug-charges    IRDMAX= 402888
   dimension x,y,z NGX =   168 NGY =  168 NGZ =  120
   dimension x,y,z NGXF=   336 NGYF=  336 NGZF=  240
   support grid    NGXF=   672 NGYF=  672 NGZF=  480
   ions per type =              42  83
   NGX,Y,Z   is equivalent  to a cutoff of  19.16, 19.16, 18.85 a.u.
   NGXF,Y,Z  is equivalent  to a cutoff of  38.31, 38.31, 37.70 a.u.

 SYSTEM =  a-Si SPC                                
 POSCAR =   H Si                                   

 Startparameter for this run:
   NWRITE =      2    write-flag & timer
   PREC   = accura    normal or accurate (medium, high low for compatibility)
   ISTART =      1    job   : 0-new  1-cont  2-samecut
   ICHARG =      1    charge: 1-file 2-atom 10-const
   ISPIN  =      1    spin polarized calculation?
   LNONCOLLINEAR =      F non collinear calculations
   LSORBIT =      F    spin-orbit coupling
   INIWAV =      1    electr: 0-lowe 1-rand  2-diag
   LASPH  =      T    aspherical Exc in radial PAW
 Electronic Relaxation 1
   ENCUT  = 1200.0 eV  88.20 Ry    9.39 a.u.  41.18 41.18 29.89*2*pi/ulx,y,z
   ENINI  = 1200.0     initial cutoff
   ENAUG  =  400.0 eV  augmentation charge cutoff
   NELM   =    150;   NELMIN=  2; NELMDL=  0     # of ELM steps 
   EDIFF  = 0.1E-05   stopping-criterion for ELM
   LREAL  =      F    real-space projection
   NLSPLINE    = F    spline interpolate recip. space projectors
   LCOMPAT=      F    compatible to vasp.4.4
   GGA_COMPAT  = T    GGA compatible to vasp.4.4-vasp.4.6
   LMAXPAW     = -100 max onsite density
   LMAXMIX     =    2 max onsite mixed and CHGCAR
   VOSKOWN=      0    Vosko Wilk Nusair interpolation
   ROPT   =    0.00000   0.00000
 Ionic relaxation
   EDIFFG = -.1E-01   stopping-criterion for IOM
   NSW    =      0    number of steps for IOM
   NBLOCK =      1;   KBLOCK =      1    inner block; outer block 
   IBRION =     -1    ionic relax: 0-MD 1-quasi-New 2-CG
   NFREE  =      0    steps in history (QN), initial steepest desc. (CG)
   ISIF   =      2    stress and relaxation
   IWAVPR =     10    prediction:  0-non 1-charg 2-wave 3-comb
   ISYM   =      1    0-nonsym 1-usesym 2-fastsym
   LCORR  =      T    Harris-Foulkes like correction to forces

   POTIM  = 0.5000    time-step for ionic-motion
   TEIN   =    0.0    initial temperature
   TEBEG  =    0.0;   TEEND  =   0.0 temperature during run
   SMASS  =  -3.00    Nose mass-parameter (am)
   estimated Nose-frequenzy (Omega)   =  0.10E-29 period in steps = 0.13E+47 mass=  -0.486E-26a.u.
   SCALEE = 1.0000    scale energy and forces
   NPACO  =    256;   APACO  = 10.0  distance and # of slots for P.C.
   PSTRESS=    0.0 pullay stress

  Mass of Ions in am
   POMASS =   1.00 28.09
  Ionic Valenz
   ZVAL   =   1.00  4.00
  Atomic Wigner-Seitz radii
   RWIGS  =  -1.00 -1.00
  virtual crystal weights 
   VCA    =   1.00  1.00
   NELECT =     374.0000    total number of electrons
   NUPDOWN=      -1.0000    fix difference up-down

 DOS related values:
   EMIN   =  10.00;   EMAX   =-10.00  energy-range for DOS
   EFERMI =   0.00;   METHOD = LEGACY      
   ISMEAR =     0;   SIGMA  =   0.10  broadening in eV -4-tet -1-fermi 0-gaus
   EFERMI_NEDOS =   21; number of points for ismear=-14 and -15

 Electronic relaxation 2 (details)
   IALGO  =     38    algorithm
   LDIAG  =      F    sub-space diagonalisation (order eigenvalues)
   LSUBROT=      F    optimize rotation matrix (better conditioning)
   TURBO    =      0    0=normal 1=particle mesh
   IRESTART =      0    0=no restart 2=restart with 2 vectors
   NREBOOT  =      0    no. of reboots
   NMIN     =      0    reboot dimension
   EREF     =   0.00    reference energy to select bands
   IMIX   =      4    mixing-type and parameters
     AMIX     =   0.40;   BMIX     =  1.00
     AMIX_MAG =   1.60;   BMIX_MAG =  1.00
     AMIN     =   0.10
     WC   =   100.;   INIMIX=   1;  MIXPRE=   1;  MAXMIX= -45

 Intra band minimization:
   WEIMIN = 0.0000     energy-eigenvalue tresh-hold
   EBREAK =  0.98E-09  absolut break condition
   DEPER  =   0.30     relativ break condition  

   TIME   =   0.40     timestep for ELM

  volume/ion in A,a.u.               =      18.00       121.44
  Fermi-wavevector in a.u.,A,eV,Ry     =   0.900206  1.701143 11.025765  0.810371
  Thomas-Fermi vector in A             =   2.023135

 Write flags
   LWAVE        =      F    write WAVECAR
   LDOWNSAMPLE  =      F    k-point downsampling of WAVECAR
   LCHARG       =      F    write CHGCAR
   LVTOT        =      F    write LOCPOT, total local potential
   LVHAR        =      F    write LOCPOT, Hartree potential only
   WRT_POTENTIAL= false  ! write potential to hdf5 file
   LELF         =      F    write electronic localiz. function (ELF)
   LORBIT       =     11    0 simple, 1 ext, 2 COOP (PROOUT), +10 PAW based schemes


 Python interface
   PLUGINS active      =      F    recompile with -DPLUGINS to activate

 Dipole corrections
   LMONO      =      F    monopole corrections only (constant potential shift)
   LDIPOL     =      F    correct potential (dipole corrections)
   IDIPOL     =      0    1-x, 2-y, 3-z, 4-all directions 
   EPSILON    =  1.0000000 bulk dielectric constant
   LVACPOTAV  =      F  vacuum potentials using an averaging scheme for the charge density
   VACPOTFLAT =  0.1000000 required flatness to determine vacuum potential

Coulomb truncation method
  LTRUNCATE          =      F  Coulomb kernel truncation to be used
  IDIMENSIONALITY    =      3  Dimensionality of cutoff (0 molecules / 2 surfaces)
  ISURFACE           =     -1  Direction of surface normal
  LCOARSEN           =      F  Coarsen the charge grid before padding, preferred


 Exchange correlation treatment:
   METAGGA = SCAN    functional components
   XC_C    = 1    coefficients multiplying the functional components
   LIBXC   =     F    Libxc                    
   VOSKOWN =     0    Vosko Wilk Nusair interpolation
   LHFCALC =     F    Hartree Fock is set to
   LHFONE  =     F    Hartree Fock one center treatment
   AEXX    =    0.0000 exact exchange contribution

 Parameters of functionals:
   SCAN:
     P1 =  0.000000E+00
     P2 =  0.000000E+00
     P3 =  0.000000E+00

 Accuracy and mixing parameters for tau-dependent meta-GGA functionals:
   LMAXTAU = 6
   LMIXTAU = T

 Van der Waals corrections
   IVDW    =     0    specifies the selected vdW correction

 Linear response parameters
   LEPSILON=     F    determine dielectric tensor
   LRPA    =     F    only Hartree local field effects (RPA)
   LNABLA  =     F    use nabla operator in PAW spheres
   LVEL    =     F    velocity operator in full k-point grid
   CSHIFT  =0.1000    complex shift for real part using Kramers Kronig
   OMEGAMAX=  -1.0    maximum frequency
   DEG_THRESHOLD= 0.2000000E-02 threshold for treating states as degnerate
   RTIME   =   -0.100 relaxation time in fs
  (WPLASMAI=    0.000 imaginary part of plasma frequency in eV, 0.658/RTIME)
   DFIELD  = 0.0000000 0.0000000 0.0000000 field for delta impulse in time

  Optional k-point grid parameters
   LKPOINTS_OPT  =     F    use optional k-point grid
   KPOINTS_OPT_MODE=     1    mode for optional k-point grid

 Orbital magnetization related:
   ORBITALMAG=     F  switch on orbital magnetization
   LCHIMAG   =     F  perturbation theory with respect to B field
   DQ        =  0.001000  dq finite difference perturbation B field
   LLRAUG    =     F  two centre corrections for induced B field
   LBONE     =     F  B-component reconstruction in AE one-centre
   LVGVCALC  =     T  calculate vGv susceptibility
   LVGVAPPL  =     F  apply vGv susceptibility instead of pGv for G=0

 Random number generation:
   RANDOM_GENERATOR = DEFAULT
   PCG_SEED         = not used


--------------------------------------------------------------------------------------------------------


 Static calculation
 charge density and potential will be updated during run
 non-spin polarized calculation
 Variant of blocked Davidson
 perform Loewdin sub-space diagonalisation
    ordering is kept fixed
    before iterative eigenvector-optimisation
 modified Broyden-mixing scheme, WC =      100.0
 initial mixing is a Kerker type mixing with AMIX =  0.4000 and BMIX =      1.0000
 Hartree-type preconditioning will be used
 using additional bands           69
 reciprocal scheme for non local part
 use partial core corrections
 calculate Harris-corrections to forces   (improved forces if not selfconsistent)
 use gradient corrections 
 use of overlap-Matrix (Vanderbilt PP)
 Gauss-broadening in eV      SIGMA  =   0.10


--------------------------------------------------------------------------------------------------------


  energy-cutoff  :     1200.00
  volume of cell :     2249.42
      direct lattice vectors                 reciprocal lattice vectors
    14.579145171  0.000000000  0.000000000     0.068591127  0.000000000  0.000000000
     0.000000000 14.579145171  0.000000000     0.000000000  0.068591127  0.000000000
     0.000000000  0.000000000 10.582938030     0.000000000  0.000000000  0.094491718

  length of vectors
    14.579145171 14.579145171 10.582938030     0.068591127  0.068591127  0.094491718



 old parameters found on file WAVECAR:
  energy-cutoff  :     1200.00
  volume of cell :     2249.42
      direct lattice vectors                 reciprocal lattice vectors
    14.579145171  0.000000000  0.000000000     0.068591127  0.000000000  0.000000000
     0.000000000 14.579145171  0.000000000     0.000000000  0.068591127  0.000000000
     0.000000000  0.000000000 10.582938030     0.000000000  0.000000000  0.094491718

  length of vectors


 k-points in units of 2pi/SCALE and weight: read from INCAR                         
   0.00000000  0.00000000  0.00000000       0.083
   0.03429556  0.00000000  0.00000000       0.083
   0.00000000  0.03429556  0.00000000       0.083
   0.03429556  0.03429556  0.00000000       0.083
   0.00000000  0.00000000  0.03149724       0.167
   0.03429556  0.00000000  0.03149724       0.167
   0.00000000  0.03429556  0.03149724       0.167
   0.03429556  0.03429556  0.03149724       0.167

 k-points in reciprocal lattice and weights: read from INCAR                         
   0.00000000  0.00000000  0.00000000       0.083
   0.50000000  0.00000000  0.00000000       0.083
   0.00000000  0.50000000  0.00000000       0.083
   0.50000000  0.50000000  0.00000000       0.083
   0.00000000  0.00000000  0.33333333       0.167
   0.50000000  0.00000000  0.33333333       0.167
   0.00000000  0.50000000  0.33333333       0.167
   0.50000000  0.50000000  0.33333333       0.167

 position of ions in fractional coordinates (direct lattice) 
   0.11860641  0.38527362  0.06266341
   0.25149691  0.51069455  0.51795257
   0.80053390  0.30470236  0.01225142
   0.97215576  0.57704206  0.50107163
   0.88541542  0.17724770  0.85510847
   0.12316634  0.33172247  0.32748278
   0.20909319  0.22828430  0.96685816
   0.11331803  0.10668801  0.78412535
   0.11049345  0.32812829  0.56253471
   0.22515586  0.27833662  0.41908022
   0.15368254  0.39778738  0.01954930
   0.88727424  0.45775112  0.45892076
   0.92313368  0.48436722  0.94890473
   0.96577679  0.46974771  0.97018427
   0.07309276  0.40268410  0.78075956
   0.93220143  0.24480105  0.33307197
   0.85479634  0.35087037  0.27804188
   0.07871586  0.36099853  0.54197520
   0.19632838  0.55100487  0.14149190
   0.10336546  0.36087370  0.76853800
   0.92819571  0.17023700  0.11521848
   0.35760327  0.36842695  0.20307782
   0.84522102  0.53171979  0.09202728
   0.10447526  0.15941401  0.18742905
   0.19658697  0.23781573  0.90067427
   0.39332073  0.31488952  0.87966498
   0.00016152  0.43833366  0.18994064
   0.05455169  0.52756522  0.71097081
   0.08840230  0.33064078  0.27910491
   0.04393872  0.57107601  0.73530715
   0.22814026  0.53324114  0.75151437
   0.14068726  0.71672241  0.67316656
   0.04897852  0.03570127  0.95015202
   0.79384627  0.46901721  0.92912195
   0.95987109  0.14687692  0.06658898
   0.30887888  0.10955238  0.91732938
   0.29892219  0.30091476  0.71883913
   0.91679586  0.63057675  0.85819930
   0.09956345  0.19408065  0.13467054
   0.07835370  0.00682406  0.11076792
   0.96339668  0.44469137  0.23761549
   0.95707257  0.43417978  0.67688481
   0.46605545  0.00226027  0.41012430
   0.70554205  0.49702777  0.86710325
   0.25082609  0.87114161  0.18865366
   0.83251109  0.67770571  0.30859578
   0.56558666  0.24033988  0.43357808
   0.18644715  0.89331026  0.80749032
   0.76075791  0.38626819  0.25844808
   0.42574375  0.77675336  0.94238859
   0.68854517  0.13717951  0.10917668
   0.37054847  0.66456434  0.60623619
   0.59442031  0.73188790  0.25796523
   0.34315455  0.22385537  0.66116800
   0.43641516  0.74010512  0.29948394
   0.50578000  0.96566704  0.19430427
   0.79574624  0.30113631  0.56329537
   0.32522689  0.77101914  0.46302832
   0.32450394  0.93598080  0.48657565
   0.63711074  0.62747849  0.56737647
   0.63262420  0.59313423  0.17018903
   0.09801123  0.81181714  0.66142313
   0.25983279  0.18844452  0.47036088
   0.51484774  0.71655779  0.66436466
   0.13767199  0.10527572  0.41900179
   0.46602870  0.45148395  0.60865234
   0.03735288  0.78659619  0.12044481
   0.53348052  0.10184548  0.09503127
   0.69539742  0.72591362  0.41794443
   0.61693466  0.35757583  0.91009793
   0.00946386  0.94406084  0.18404719
   0.28714098  0.70115908  0.95697433
   0.87417334  0.76892025  0.10233264
   0.39779150  0.84960400  0.14250863
   0.44023912  0.85958401  0.75485276
   0.52003255  0.09533344  0.86274435
   0.78040927  0.53998708  0.20544956
   0.52550955  0.48840449  0.24616510
   0.76383079  0.55518276  0.68271400
   0.96669591  0.95581736  0.40292214
   0.43371816  0.51907433  0.81494383
   0.45735946  0.36225512  0.16618447
   0.37418175  0.13148370  0.33265998
   0.77673964  0.02584404  0.98272332
   0.94684564  0.76640296  0.62096272
   0.23234970  0.73100308  0.29295834
   0.88042199  0.19908918  0.42914359
   0.31686837  0.95760073  0.70918586
   0.82756567  0.09647342  0.78921184
   0.99311035  0.10052441  0.50831914
   0.85616817  0.92675530  0.11945171
   0.72415082  0.18488258  0.67115483
   0.48927011  0.21407291  0.22995694
   0.85598297  0.67748965  0.76497471
   0.71177699  0.29740152  0.07710184
   0.07305298  0.01102616  0.81450444
   0.87149142  0.45228921  0.59828660
   0.75036635  0.10707006  0.32421998
   0.09518322  0.86874092  0.45354891
   0.95976821  0.66564808  0.44229589
   0.48537139  0.28745170  0.60854273
   0.46031300  0.38400674  0.94255962
   0.34800874  0.53419524  0.49290093
   0.94380705  0.01800442  0.67927829
   0.63371754  0.87189611  0.15342904
   0.59470702  0.97869250  0.55747185
   0.58280989  0.23026933  0.77216175
   0.86699185  0.90277584  0.57413168
   0.20280476  0.96209344  0.36110294
   0.36564215  0.10123227  0.79769436
   0.67990886  0.36198076  0.44050905
   0.65264800  0.63287318  0.95041660
   0.29890641  0.60505674  0.78463277
   0.17344981  0.81372398  0.00635469
   0.68117848  0.89273410  0.92237146
   0.56925971  0.95307371  0.78327871
   0.26981760  0.61569042  0.14727952
   0.72486417  0.87632024  0.48147310
   0.58194427  0.48709783  0.45991576
   0.77553930  0.75056527  0.92205586
   0.07511552  0.72904137  0.32111215
   0.65629225  0.12087814  0.49069360
   0.38953381  0.58124464  0.28747121
   0.75251326  0.94275761  0.27870521
   0.51409530  0.65449996  0.87605918

 position of ions in cartesian coordinates  (Angst):
   1.72918000  5.61696000  0.66316300
   3.66661000  7.44549000  5.48146000
  11.67110000  4.44230000  0.12965600
  14.17320000  8.41278000  5.30281000
  12.90860000  2.58412000  9.04956000
   1.79566000  4.83623000  3.46573000
   3.04840000  3.32819000 10.23220000
   1.65208000  1.55542000  8.29835000
   1.61090000  4.78383000  5.95327000
   3.28258000  4.05791000  4.43510000
   2.24056000  5.79940000  0.20688900
  12.93570000  6.67362000  4.85673000
  13.45850000  7.06166000 10.04220000
  14.08020000  6.84852000 10.26740000
   1.06563000  5.87079000  8.26273000
  13.59070000  3.56899000  3.52488000
  12.46220000  5.11539000  2.94250000
   1.14761000  5.26305000  5.73569000
   2.86230000  8.03318000  1.49740000
   1.50698000  5.26123000  8.13339000
  13.53230000  2.48191000  1.21935000
   5.21355000  5.37135000  2.14916000
  12.32260000  7.75202000  0.97391900
   1.52316000  2.32412000  1.98355000
   2.86607000  3.46715000  9.53178000
   5.73428000  4.59082000  9.30944000
   0.00235483  6.39053000  2.01013000
   0.79531700  7.69145000  7.52416000
   1.28883000  4.82046000  2.95375000
   0.64058900  8.32580000  7.78171000
   3.32609000  7.77420000  7.95323000
   2.05110000 10.44920000  7.12408000
   0.71406500  0.52049400 10.05540000
  11.57360000  6.83787000  9.83284000
  13.99410000  2.14134000  0.70470700
   4.50319000  1.59718000  9.70804000
   4.35803000  4.38708000  7.60743000
  13.36610000  9.19327000  9.08227000
   1.45155000  2.82953000  1.42521000
   1.14233000  0.09948890  1.17225000
  14.04550000  6.48322000  2.51467000
  13.95330000  6.32997000  7.16343000
   6.79469000  0.03295280  4.34032000
  10.28620000  7.24624000  9.17650000
   3.65683000 12.70050000  1.99651000
  12.13730000  9.88037000  3.26585000
   8.24577000  3.50395000  4.58853000
   2.71824000 13.02370000  8.54562000
  11.09120000  5.63146000  2.73514000
   6.20698000 11.32440000  9.97324000
  10.03840000  1.99996000  1.15541000
   5.40228000  9.68878000  6.41576000
   8.66614000 10.67030000  2.73003000
   5.00290000  3.26362000  6.99710000
   6.36256000 10.79010000  3.16942000
   7.37384000 14.07860000  2.05631000
  11.60130000  4.39031000  5.96132000
   4.74153000 11.24080000  4.90020000
   4.73099000 13.64580000  5.14940000
   9.28853000  9.14810000  6.00451000
   9.22312000  8.64739000  1.80110000
   1.42892000 11.83560000  6.99980000
   3.78814000  2.74736000  4.97780000
   7.50604000 10.44680000  7.03093000
   2.00714000  1.53483000  4.43427000
   6.79430000  6.58225000  6.44133000
   0.54457300 11.46790000  1.27466000
   7.77769000  1.48482000  1.00571000
  10.13830000 10.58320000  4.42308000
   8.99438000  5.21315000  9.63151000
   0.13797500 13.76360000  1.94776000
   4.18627000 10.22230000 10.12760000
  12.74470000 11.21020000  1.08298000
   5.79946000 12.38650000  1.50816000
   6.41831000 12.53200000  7.98856000
   7.58163000  1.38988000  9.13037000
  11.37770000  7.87255000  2.17426000
   7.66148000  7.12052000  2.60515000
  11.13600000  8.09409000  7.22512000
  14.09360000 13.93500000  4.26410000
   6.32324000  7.56766000  8.62450000
   6.66791000  5.28137000  1.75872000
   5.45525000  1.91692000  3.52052000
  11.32420000  0.37678400 10.40010000
  13.80420000 11.17350000  6.57161000
   3.38746000 10.65740000  3.10036000
  12.83580000  2.90255000  4.54160000
   4.61967000 13.96100000  7.50527000
  12.06520000  1.40650000  8.35218000
  14.47870000  1.46556000  5.37951000
  12.48220000 13.51130000  1.26415000
  10.55750000  2.69543000  7.10279000
   7.13314000  3.12100000  2.43362000
  12.47950000  9.87722000  8.09568000
  10.37710000  4.33586000  0.81596400
   1.06505000  0.16075200  8.61985000
  12.70560000  6.59399000  6.33163000
  10.93970000  1.56099000  3.43120000
   1.38769000 12.66550000  4.79988000
  13.99260000  9.70458000  4.68079000
   7.07630000  4.19080000  6.44017000
   6.71097000  5.59849000  9.97505000
   5.07367000  7.78811000  5.21634000
  13.75990000  0.26248900  7.18876000
   9.23906000 12.71150000  1.62373000
   8.67032000 14.26850000  5.89969000
   8.49687000  3.35713000  8.17174000
  12.64000000 13.16170000  6.07600000
   2.95672000 14.02650000  3.82153000
   5.33075000  1.47588000  8.44195000
   9.91249000  5.27737000  4.66188000
   9.51505000  9.22675000 10.05820000
   4.35780000  8.82121000  8.30372000
   2.52875000 11.86340000  0.06725130
   9.93100000 13.01530000  9.76140000
   8.29932000 13.89500000  8.28939000
   3.93371000  8.97624000  1.55865000
  10.56790000 12.77600000  5.09540000
   8.48425000  7.10147000  4.86726000
  11.30670000 10.94260000  9.75806000
   1.09512000 10.62880000  3.39831000
   9.56818000  1.76230000  5.19298000
   5.67907000  8.47405000  3.04229000
  10.97100000 13.74460000  2.94952000
   7.49507000  9.54205000  9.27128000



--------------------------------------------------------------------------------------------------------


 k-point     1 :   0.0000 0.0000 0.0000  plane waves:  212323
 k-point     2 :   0.5000 0.0000 0.0000  plane waves:  212258
 k-point     3 :   0.0000 0.5000 0.0000  plane waves:  212258
 k-point     4 :   0.5000 0.5000 0.0000  plane waves:  212420
 k-point     5 :   0.0000 0.0000 0.3333  plane waves:  212336
 k-point     6 :   0.5000 0.0000 0.3333  plane waves:  212394
 k-point     7 :   0.0000 0.5000 0.3333  plane waves:  212394
 k-point     8 :   0.5000 0.5000 0.3333  plane waves:  212260

 maximum and minimum number of plane-waves per node :     13340    13196

 maximum number of plane-waves:    212420
 maximum index in each direction: 
   IXMAX=   41   IYMAX=   41   IZMAX=   29
   IXMIN=  -41   IYMIN=  -41   IZMIN=  -30


 parallel 3D FFT for wavefunctions:
    minimum data exchange during FFTs selected (reduces bandwidth)
 parallel 3D FFT for charge:
    minimum data exchange during FFTs selected (reduces bandwidth)


 total amount of memory used by VASP MPI-rank0   197368. kBytes
=======================================================================

   base                                    :      30000. kBytes
   nonl-proj                               :      40158. kBytes
   fftplans                                :      40954. kBytes
   grid                                    :      31575. kBytes
   one-center                              :         24. kBytes
   wavefun                                 :      54657. kBytes

     INWAV:  cpu time      9.8139: real time      9.8199
 Broyden mixing: mesh for mixing (old mesh)
   NGX = 83   NGY = 83   NGZ = 59
  (NGX  =336   NGY  =336   NGZ  =240)
  gives a total of 406451 points

 initial charge density was supplied:
 number of electron     373.9999999 magnetization 
 keeping initial charge density in first step


--------------------------------------------------------------------------------------------------------


 Maximum index for augmentation-charges        11027 (set IRDMAX)


--------------------------------------------------------------------------------------------------------


 First call to EWALD:  gamma=   0.135
 Maximum number of real-space cells   3x   3x   3
 Maximum number of reciprocal cells   3x   3x   2

    FEWALD:  cpu time      0.0228: real time      0.0229


--------------------------------------- Ionic step        1  -------------------------------------------




--------------------------------------- Iteration      1(   1)  ---------------------------------------


    POTLOK:  cpu time      0.7220: real time      0.7230
    SETDIJ:  cpu time      1.5311: real time      1.5316
    EDDIAG:  cpu time     22.0247: real time     22.0431
     EDDAV:  cpu time    110.2948: real time    110.3994
       DOS:  cpu time      0.0102: real time      0.0102
    CHARGE:  cpu time      9.9393: real time      9.9475
    MIXING:  cpu time      0.0250: real time      0.0253
    --------------------------------------------
      LOOP:  cpu time    144.5471: real time    144.6800

 eigenvalue-minimisations  :  4392
 total energy-change (2. order) :-0.1013470E+04  (-0.1081721E+01)
 number of electron     373.9999999 magnetization 
 augmentation part      -17.5766800 magnetization 

 Broyden mixing:
  rms(total) = 0.12015E+01    rms(broyden)= 0.46030E+02
  rms(prec ) = 0.12941E+01
  weight for this iteration     100.00
  WARNING: grid for Broyden might be to small

 Free energy of the ion-electron system (eV)
  ---------------------------------------------------
  alpha Z        PSCENC =       133.14995359
  Ewald energy   TEWEN  =     -6983.33616940
  -Hartree energ DENC   =     -2995.89873681
  -exchange      EXHF   =         0.00000000
  -V(xc)+E(xc)   XCENC  =      -267.04091659
  PAW double counting   =     34324.26763242   -33498.16262373
  entropy T*S    EENTRO =        -0.09961642
  eigenvalues    EBANDS =      -805.40763118
  atomic energy  EATOM  =      9079.05857715
  Solvation  Ediel_sol  =         0.00000000
  ---------------------------------------------------
  free energy    TOTEN  =     -1013.46953095 eV

  energy without entropy =    -1013.36991453  energy(sigma->0) =    -1013.41972274


--------------------------------------------------------------------------------------------------------




--------------------------------------- Iteration      1(   2)  ---------------------------------------


    POTLOK:  cpu time      0.7217: real time      0.7220
    SETDIJ:  cpu time      1.5214: real time      1.5229
    EDDIAG:  cpu time     22.1099: real time     22.1288
     EDDAV:  cpu time    106.6733: real time    106.7667
       DOS:  cpu time      0.0051: real time      0.0051
    CHARGE:  cpu time      9.5238: real time      9.5319
    MIXING:  cpu time      0.0170: real time      0.0170
    --------------------------------------------
      LOOP:  cpu time    140.5724: real time    140.6943

 eigenvalue-minimisations  :  4160
 total energy-change (2. order) : 0.6677117E+02  (-0.1096027E+01)
 number of electron     373.9999999 magnetization 
 augmentation part      -17.5103729 magnetization 

 Broyden mixing:
  rms(total) = 0.80352E+00    rms(broyden)= 0.26507E+02
  rms(prec ) = 0.85776E+00
  weight for this iteration     100.00
  WARNING: grid for Broyden might be to small

 eigenvalues of (default mixing * dielectric matrix)
  average eigenvalue GAMMA=   0.6346
  0.6346

 Free energy of the ion-electron system (eV)
  ---------------------------------------------------
  alpha Z        PSCENC =       133.14995359
  Ewald energy   TEWEN  =     -6983.33616940
  -Hartree energ DENC   =     -2984.59632183
  -exchange      EXHF   =         0.00000000
  -V(xc)+E(xc)   XCENC  =      -260.67117757
  PAW double counting   =     41043.65130271   -40217.26323537
  entropy T*S    EENTRO =        -0.08508464
  eigenvalues    EBANDS =      -756.60620636
  atomic energy  EATOM  =      9079.05857715
  Solvation  Ediel_sol  =         0.00000000
  ---------------------------------------------------
  free energy    TOTEN  =      -946.69836171 eV

  energy without entropy =     -946.61327708  energy(sigma->0) =     -946.65581939


--------------------------------------------------------------------------------------------------------




--------------------------------------- Iteration      1(   3)  ---------------------------------------


    POTLOK:  cpu time      0.7063: real time      0.7237
    SETDIJ:  cpu time      1.5202: real time      1.5209
    EDDIAG:  cpu time     22.2378: real time     22.2576
     EDDAV:  cpu time    106.2340: real time    106.3275
       DOS:  cpu time      0.0050: real time      0.0050
    CHARGE:  cpu time      9.4873: real time      9.4964
    MIXING:  cpu time      0.0144: real time      0.0144
    --------------------------------------------
      LOOP:  cpu time    140.2049: real time    140.3455

 eigenvalue-minimisations  :  4096
 total energy-change (2. order) :-0.2625106E+01  (-0.9048662E+00)
 number of electron     373.9999999 magnetization 
 augmentation part      -17.4571560 magnetization 

 Broyden mixing:
  rms(total) = 0.51104E+00    rms(broyden)= 0.19843E+02
  rms(prec ) = 0.62095E+00
  weight for this iteration     100.00
  WARNING: grid for Broyden might be to small

 eigenvalues of (default mixing * dielectric matrix)
  average eigenvalue GAMMA=   0.5003
  0.6378  0.3627

 Free energy of the ion-electron system (eV)
  ---------------------------------------------------
  alpha Z        PSCENC =       133.14995359
  Ewald energy   TEWEN  =     -6983.33616940
  -Hartree energ DENC   =     -2989.35681755
  -exchange      EXHF   =         0.00000000
  -V(xc)+E(xc)   XCENC  =      -264.27751140
  PAW double counting   =     46476.11474741   -45649.80185366
  entropy T*S    EENTRO =        -0.05028284
  eigenvalues    EBANDS =      -750.82411106
  atomic energy  EATOM  =      9079.05857715
  Solvation  Ediel_sol  =         0.00000000
  ---------------------------------------------------
  free energy    TOTEN  =      -949.32346776 eV

  energy without entropy =     -949.27318492  energy(sigma->0) =     -949.29832634


--------------------------------------------------------------------------------------------------------




--------------------------------------- Iteration      1(   4)  ---------------------------------------


    POTLOK:  cpu time      0.7075: real time      0.7232
    SETDIJ:  cpu time      1.5197: real time      1.5212
    EDDIAG:  cpu time     22.1867: real time     22.2058
     EDDAV:  cpu time    116.1426: real time    116.2450
       DOS:  cpu time      0.0042: real time      0.0042
    CHARGE:  cpu time      9.5600: real time      9.5682
    MIXING:  cpu time      0.0145: real time      0.0145
    --------------------------------------------
      LOOP:  cpu time    150.1351: real time    150.2821

 eigenvalue-minimisations  :  4760
 total energy-change (2. order) :-0.3679103E+00  (-0.6344910E+00)
 number of electron     373.9999999 magnetization 
 augmentation part      -17.4581133 magnetization 

 Broyden mixing:
  rms(total) = 0.27535E+00    rms(broyden)= 0.93403E+01
  rms(prec ) = 0.46301E+00
  weight for this iteration     100.00
  WARNING: grid for Broyden might be to small

 eigenvalues of (default mixing * dielectric matrix)
  average eigenvalue GAMMA=   0.6883
  1.0736  0.6299  0.3615

 Free energy of the ion-electron system (eV)
  ---------------------------------------------------
  alpha Z        PSCENC =       133.14995359
  Ewald energy   TEWEN  =     -6983.33616940
  -Hartree energ DENC   =     -2994.04006675
  -exchange      EXHF   =         0.00000000
  -V(xc)+E(xc)   XCENC  =      -264.46161710
  PAW double counting   =     52581.03908694   -51754.77865670
  entropy T*S    EENTRO =        -0.00740543
  eigenvalues    EBANDS =      -746.31508039
  atomic energy  EATOM  =      9079.05857715
  Solvation  Ediel_sol  =         0.00000000
  ---------------------------------------------------
  free energy    TOTEN  =      -949.69137809 eV

  energy without entropy =     -949.68397266  energy(sigma->0) =     -949.68767538


--------------------------------------------------------------------------------------------------------




--------------------------------------- Iteration      1(   5)  ---------------------------------------


    POTLOK:  cpu time      0.7012: real time      0.7199
    SETDIJ:  cpu time      1.5183: real time      1.5189
    EDDIAG:  cpu time     22.1336: real time     22.1526
     EDDAV:  cpu time    112.0398: real time    112.1430
       DOS:  cpu time      0.0036: real time      0.0036
    CHARGE:  cpu time      9.6449: real time      9.6544
    MIXING:  cpu time      0.0147: real time      0.0147
    --------------------------------------------
      LOOP:  cpu time    146.0560: real time    146.2071

 eigenvalue-minimisations  :  4512
 total energy-change (2. order) : 0.1991180E+00  (-0.6701732E-01)
 number of electron     373.9999999 magnetization 
 augmentation part      -17.4544656 magnetization 

 Broyden mixing:
  rms(total) = 0.34441E-01    rms(broyden)= 0.24005E+01
  rms(prec ) = 0.50636E-01
  weight for this iteration     100.00
  WARNING: grid for Broyden might be to small

 eigenvalues of (default mixing * dielectric matrix)
  average eigenvalue GAMMA=   0.9187
  1.9479  0.7190  0.6197  0.3883

 Free energy of the ion-electron system (eV)
  ---------------------------------------------------
  alpha Z        PSCENC =       133.14995359
  Ewald energy   TEWEN  =     -6983.33616940
  -Hartree energ DENC   =     -2996.91850154
  -exchange      EXHF   =         0.00000000
  -V(xc)+E(xc)   XCENC  =      -264.79779920
  PAW double counting   =     54650.31727408   -53824.06366105
  entropy T*S    EENTRO =        -0.09992267
  eigenvalues    EBANDS =      -742.80201110
  atomic energy  EATOM  =      9079.05857715
  Solvation  Ediel_sol  =         0.00000000
  ---------------------------------------------------
  free energy    TOTEN  =      -949.49226014 eV

  energy without entropy =     -949.39233746  energy(sigma->0) =     -949.44229880


--------------------------------------------------------------------------------------------------------




--------------------------------------- Iteration      1(   6)  ---------------------------------------


    POTLOK:  cpu time      0.7097: real time      0.7296
    SETDIJ:  cpu time      1.5198: real time      1.5205
    EDDIAG:  cpu time     22.1016: real time     22.1226
     EDDAV:  cpu time    112.2469: real time    112.3525
       DOS:  cpu time      0.0049: real time      0.0049
    CHARGE:  cpu time      9.6378: real time      9.6462
    MIXING:  cpu time      0.0146: real time      0.0153
    --------------------------------------------
      LOOP:  cpu time    146.2354: real time    146.3915

 eigenvalue-minimisations  :  4520
 total energy-change (2. order) :-0.1250123E-01  (-0.8084181E-02)
 number of electron     373.9999999 magnetization 
 augmentation part      -17.4539605 magnetization 

 Broyden mixing:
  rms(total) = 0.22103E-01    rms(broyden)= 0.33715E+00
  rms(prec ) = 0.27119E-01
  weight for this iteration     100.00
  WARNING: grid for Broyden might be to small

 eigenvalues of (default mixing * dielectric matrix)
  average eigenvalue GAMMA=   1.0062
  2.4945  0.8721  0.3993  0.6325  0.6325

 Free energy of the ion-electron system (eV)
  ---------------------------------------------------
  alpha Z        PSCENC =       133.14995359
  Ewald energy   TEWEN  =     -6983.33616940
  -Hartree energ DENC   =     -2996.97118670
  -exchange      EXHF   =         0.00000000
  -V(xc)+E(xc)   XCENC  =      -265.13603613
  PAW double counting   =     54347.21942965   -53520.94313343
  entropy T*S    EENTRO =        -0.10077615
  eigenvalues    EBANDS =      -742.44541994
  atomic energy  EATOM  =      9079.05857715
  Solvation  Ediel_sol  =         0.00000000
  ---------------------------------------------------
  free energy    TOTEN  =      -949.50476136 eV

  energy without entropy =     -949.40398521  energy(sigma->0) =     -949.45437329


--------------------------------------------------------------------------------------------------------




--------------------------------------- Iteration      1(   7)  ---------------------------------------


    POTLOK:  cpu time      0.7009: real time      0.7195
    SETDIJ:  cpu time      1.5195: real time      1.5208
    EDDIAG:  cpu time     22.1021: real time     22.1221
     EDDAV:  cpu time    121.7650: real time    121.8793
       DOS:  cpu time      0.0049: real time      0.0049
    CHARGE:  cpu time      9.4923: real time      9.5006
    MIXING:  cpu time      0.0150: real time      0.0151
    --------------------------------------------
      LOOP:  cpu time    155.5998: real time    155.7623

 eigenvalue-minimisations  :  5128
 total energy-change (2. order) :-0.3048824E-02  (-0.8312718E-03)
 number of electron     373.9999999 magnetization 
 augmentation part      -17.4528858 magnetization 

 Broyden mixing:
  rms(total) = 0.14792E-01    rms(broyden)= 0.20241E+00
  rms(prec ) = 0.17279E-01
  weight for this iteration     100.00
  WARNING: grid for Broyden might be to small

 eigenvalues of (default mixing * dielectric matrix)
  average eigenvalue GAMMA=   0.9766
  2.5367  0.3979  0.8684  0.7177  0.7177  0.6211

 Free energy of the ion-electron system (eV)
  ---------------------------------------------------
  alpha Z        PSCENC =       133.14995359
  Ewald energy   TEWEN  =     -6983.33616940
  -Hartree energ DENC   =     -2997.24501580
  -exchange      EXHF   =         0.00000000
  -V(xc)+E(xc)   XCENC  =      -265.08269502
  PAW double counting   =     54331.84489870   -53505.55453487
  entropy T*S    EENTRO =        -0.10062002
  eigenvalues    EBANDS =      -742.24220452
  atomic energy  EATOM  =      9079.05857715
  Solvation  Ediel_sol  =         0.00000000
  ---------------------------------------------------
  free energy    TOTEN  =      -949.50781019 eV

  energy without entropy =     -949.40719017  energy(sigma->0) =     -949.45750018


--------------------------------------------------------------------------------------------------------




--------------------------------------- Iteration      1(   8)  ---------------------------------------


    POTLOK:  cpu time      0.7018: real time      0.7197
    SETDIJ:  cpu time      1.5227: real time      1.5235
    EDDIAG:  cpu time     22.1881: real time     22.2072
     EDDAV:  cpu time    112.3407: real time    112.4405
       DOS:  cpu time      0.0062: real time      0.0062
    CHARGE:  cpu time      9.6186: real time      9.6273
    MIXING:  cpu time      0.0151: real time      0.0152
    --------------------------------------------
      LOOP:  cpu time    146.3933: real time    146.5396

 eigenvalue-minimisations  :  4512
 total energy-change (2. order) :-0.8607817E-03  (-0.1849414E-03)
 number of electron     373.9999999 magnetization 
 augmentation part      -17.4520106 magnetization 

 Broyden mixing:
  rms(total) = 0.78056E-02    rms(broyden)= 0.32724E+00
  rms(prec ) = 0.10140E-01
  weight for this iteration     100.00
  WARNING: grid for Broyden might be to small

 eigenvalues of (default mixing * dielectric matrix)
  average eigenvalue GAMMA=   1.0373
  2.5572  1.1284  1.1284  0.4001  0.8001  0.6235  0.6235

 Free energy of the ion-electron system (eV)
  ---------------------------------------------------
  alpha Z        PSCENC =       133.14995359
  Ewald energy   TEWEN  =     -6983.33616940
  -Hartree energ DENC   =     -2997.54244997
  -exchange      EXHF   =         0.00000000
  -V(xc)+E(xc)   XCENC  =      -265.04887604
  PAW double counting   =     54324.74983981   -53498.44843352
  entropy T*S    EENTRO =        -0.10106892
  eigenvalues    EBANDS =      -741.99004368
  atomic energy  EATOM  =      9079.05857715
  Solvation  Ediel_sol  =         0.00000000
  ---------------------------------------------------
  free energy    TOTEN  =      -949.50867097 eV

  energy without entropy =     -949.40760205  energy(sigma->0) =     -949.45813651


--------------------------------------------------------------------------------------------------------




--------------------------------------- Iteration      1(   9)  ---------------------------------------


    POTLOK:  cpu time      0.6993: real time      0.7171
    SETDIJ:  cpu time      1.5220: real time      1.5226
    EDDIAG:  cpu time     22.0918: real time     22.1121
     EDDAV:  cpu time    109.8264: real time    109.9265
       DOS:  cpu time      0.0043: real time      0.0043
    CHARGE:  cpu time      9.7002: real time      9.7084
    MIXING:  cpu time      0.0156: real time      0.0157
    --------------------------------------------
      LOOP:  cpu time    143.8597: real time    144.0067

 eigenvalue-minimisations  :  4352
 total energy-change (2. order) :-0.1850159E-03  (-0.1006071E-03)
 number of electron     373.9999999 magnetization 
 augmentation part      -17.4516460 magnetization 

 Broyden mixing:
  rms(total) = 0.39017E-02    rms(broyden)= 0.14517E+00
  rms(prec ) = 0.51950E-02
  weight for this iteration     100.00
  WARNING: grid for Broyden might be to small

 eigenvalues of (default mixing * dielectric matrix)
  average eigenvalue GAMMA=   1.0213
  2.5739  1.4613  0.9157  0.9157  0.4004  0.6931  0.6226  0.5873

 Free energy of the ion-electron system (eV)
  ---------------------------------------------------
  alpha Z        PSCENC =       133.14995359
  Ewald energy   TEWEN  =     -6983.33616940
  -Hartree energ DENC   =     -2997.70954266
  -exchange      EXHF   =         0.00000000
  -V(xc)+E(xc)   XCENC  =      -264.99585620
  PAW double counting   =     54321.70778297   -53495.39897463
  entropy T*S    EENTRO =        -0.10073093
  eigenvalues    EBANDS =      -741.88389588
  atomic energy  EATOM  =      9079.05857715
  Solvation  Ediel_sol  =         0.00000000
  ---------------------------------------------------
  free energy    TOTEN  =      -949.50885599 eV

  energy without entropy =     -949.40812506  energy(sigma->0) =     -949.45849052


--------------------------------------------------------------------------------------------------------




--------------------------------------- Iteration      1(  10)  ---------------------------------------


    POTLOK:  cpu time      0.7027: real time      0.7184
    SETDIJ:  cpu time      1.5208: real time      1.5214
    EDDIAG:  cpu time     22.1138: real time     22.1325
     EDDAV:  cpu time    112.3547: real time    112.4539
       DOS:  cpu time      0.0037: real time      0.0037
    CHARGE:  cpu time      9.5718: real time      9.5794
    MIXING:  cpu time      0.0155: real time      0.0155
    --------------------------------------------
      LOOP:  cpu time    146.2829: real time    146.4248

 eigenvalue-minimisations  :  4512
 total energy-change (2. order) : 0.1031600E-05  (-0.2881115E-04)
 number of electron     373.9999999 magnetization 
 augmentation part      -17.4513861 magnetization 

 Broyden mixing:
  rms(total) = 0.10125E-02    rms(broyden)= 0.22763E-01
  rms(prec ) = 0.13274E-02
  weight for this iteration     100.00
  WARNING: grid for Broyden might be to small

 eigenvalues of (default mixing * dielectric matrix)
  average eigenvalue GAMMA=   1.1160
  2.4879  2.2436  1.1097  1.1097  0.8586  0.4005  0.6438  0.6311  0.5594

 Free energy of the ion-electron system (eV)
  ---------------------------------------------------
  alpha Z        PSCENC =       133.14995359
  Ewald energy   TEWEN  =     -6983.33616940
  -Hartree energ DENC   =     -2997.80152613
  -exchange      EXHF   =         0.00000000
  -V(xc)+E(xc)   XCENC  =      -264.97469548
  PAW double counting   =     54323.40596221   -53497.09202901
  entropy T*S    EENTRO =        -0.10087634
  eigenvalues    EBANDS =      -741.81805155
  atomic energy  EATOM  =      9079.05857715
  Solvation  Ediel_sol  =         0.00000000
  ---------------------------------------------------
  free energy    TOTEN  =      -949.50885495 eV

  energy without entropy =     -949.40797861  energy(sigma->0) =     -949.45841678


--------------------------------------------------------------------------------------------------------




--------------------------------------- Iteration      1(  11)  ---------------------------------------


    POTLOK:  cpu time      0.7017: real time      0.7222
    SETDIJ:  cpu time      1.5201: real time      1.5206
    EDDIAG:  cpu time     22.1119: real time     22.1335
     EDDAV:  cpu time    116.0111: real time    116.1150
       DOS:  cpu time      0.0045: real time      0.0045
    CHARGE:  cpu time      9.7404: real time      9.7481
    MIXING:  cpu time      0.0163: real time      0.0163
    --------------------------------------------
      LOOP:  cpu time    150.1059: real time    150.2602

 eigenvalue-minimisations  :  4768
 total energy-change (2. order) :-0.1142143E-04  (-0.5583659E-05)
 number of electron     373.9999999 magnetization 
 augmentation part      -17.4515292 magnetization 

 Broyden mixing:
  rms(total) = 0.69930E-03    rms(broyden)= 0.31865E-01
  rms(prec ) = 0.11730E-02
  weight for this iteration     100.00
  WARNING: grid for Broyden might be to small

 eigenvalues of (default mixing * dielectric matrix)
  average eigenvalue GAMMA=   1.1358
  2.6610  2.6610  1.0898  1.0898  0.9183  0.4004  0.7270  0.6331  0.6230  0.5545

 Free energy of the ion-electron system (eV)
  ---------------------------------------------------
  alpha Z        PSCENC =       133.14995359
  Ewald energy   TEWEN  =     -6983.33616940
  -Hartree energ DENC   =     -2997.78240346
  -exchange      EXHF   =         0.00000000
  -V(xc)+E(xc)   XCENC  =      -264.98634003
  PAW double counting   =     54320.48456803   -53494.16973708
  entropy T*S    EENTRO =        -0.10081434
  eigenvalues    EBANDS =      -741.82650084
  atomic energy  EATOM  =      9079.05857715
  Solvation  Ediel_sol  =         0.00000000
  ---------------------------------------------------
  free energy    TOTEN  =      -949.50886638 eV

  energy without entropy =     -949.40805204  energy(sigma->0) =     -949.45845921


--------------------------------------------------------------------------------------------------------




--------------------------------------- Iteration      1(  12)  ---------------------------------------


    POTLOK:  cpu time      0.7161: real time      0.7216
    SETDIJ:  cpu time      1.5295: real time      1.5307
    EDDIAG:  cpu time     22.0600: real time     22.0795
     EDDAV:  cpu time    112.7198: real time    112.8180
       DOS:  cpu time      0.0062: real time      0.0062
    CHARGE:  cpu time      9.7406: real time      9.7486
    MIXING:  cpu time      0.0161: real time      0.0161
    --------------------------------------------
      LOOP:  cpu time    146.7884: real time    146.9208

 eigenvalue-minimisations  :  4544
 total energy-change (2. order) : 0.2374174E-05  (-0.2000971E-05)
 number of electron     373.9999999 magnetization 
 augmentation part      -17.4515364 magnetization 

 Broyden mixing:
  rms(total) = 0.26922E-03    rms(broyden)= 0.80967E-02
  rms(prec ) = 0.34727E-03
  weight for this iteration     100.00
  WARNING: grid for Broyden might be to small

 eigenvalues of (default mixing * dielectric matrix)
  average eigenvalue GAMMA=   1.1548
  2.8605  2.6556  1.1597  1.1083  1.1083  0.9262  0.4004  0.6769  0.6317  0.6161
  0.5592

 Free energy of the ion-electron system (eV)
  ---------------------------------------------------
  alpha Z        PSCENC =       133.14995359
  Ewald energy   TEWEN  =     -6983.33616940
  -Hartree energ DENC   =     -2997.77895686
[...]
   -.160E+02 -.710E+01 -.877E-01   0.133E+02 0.652E+01 0.402E+00   0.252E+01 0.521E+00 -.821E+00   0.213E-04 -.474E-04 -.286E-04
   0.550E+02 0.927E+02 0.259E+02   -.567E+02 -.929E+02 -.244E+02   0.293E+01 0.823E+00 -.115E+01   0.108E-05 -.237E-03 -.489E-04
   -.331E+01 0.118E+01 -.378E+02   0.415E+01 -.235E+01 0.352E+02   -.171E+01 0.182E+01 0.225E+01   -.323E-03 0.287E-04 0.573E-04
   -.157E+01 0.729E+01 -.462E+01   0.112E+01 -.866E+01 0.514E+01   0.456E+00 0.200E+01 0.167E+00   -.248E-04 -.603E-04 -.593E-04
   -.351E+02 0.130E+01 0.151E+02   0.366E+02 -.308E+01 -.160E+02   -.273E+01 0.172E+01 0.130E+01   -.116E-03 -.188E-04 -.100E-04
   0.734E+01 0.888E+02 0.688E+01   -.562E+01 -.875E+02 -.664E+01   -.106E+01 -.383E+00 0.219E+00   0.261E-04 -.480E-03 -.128E-03
   -.663E+01 0.110E+01 -.108E+02   0.769E+01 -.106E+00 0.101E+02   -.120E+01 -.160E+01 0.176E+01   -.317E-03 0.395E-04 -.125E-03
   0.507E+02 0.663E+02 0.179E+02   -.505E+02 -.655E+02 -.183E+02   0.578E+00 -.956E+00 -.401E+00   0.309E-04 -.572E-04 -.990E-04
   -.215E+02 -.146E+02 -.712E+01   0.226E+02 0.144E+02 0.631E+01   -.132E+01 0.756E+00 0.152E+01   -.406E-03 0.370E-04 -.418E-04
   0.835E+01 0.254E+02 -.171E+02   -.613E+01 -.250E+02 0.156E+02   -.263E+01 -.418E+00 0.203E+00   -.268E-04 0.416E-04 -.566E-05
 -----------------------------------------------------------------------------------------------
   0.168E+02 -.256E+01 0.901E+01   0.426E-13 0.782E-13 0.162E-12   -.168E+02 0.257E+01 -.900E+01   0.267E-03 -.196E-02 -.440E-03


 POSITION                                       TOTAL-FORCE (eV/Angst)
 -----------------------------------------------------------------------------------
      1.72918      5.61696      0.66316        -0.919719     -0.332564      0.838445
      3.66661      7.44549      5.48146        -0.263747     -0.184551     -0.180590
     11.67110      4.44230      0.12966         0.392128     -0.100189     -0.366626
     14.17320      8.41278      5.30281         0.226104     -0.698156      0.033272
     12.90860      2.58412      9.04956        -0.705679     -0.876022     -0.704395
      1.79566      4.83623      3.46573         0.561529      0.040602      0.520567
      3.04840      3.32819     10.23220         0.009755      0.017902      0.161014
      1.65208      1.55542      8.29835        -0.177715     -0.728864     -0.196501
      1.61090      4.78383      5.95327         1.098103     -1.155001      0.465239
      3.28258      4.05791      4.43510         0.509360      0.047780      0.224485
      2.24056      5.79940      0.20689         0.924218      0.345975     -0.837001
     12.93570      6.67362      4.85673         0.220494      0.198187      0.277030
     13.45850      7.06166     10.04220        -1.682150      0.569757     -0.710795
     14.08020      6.84852     10.26740         1.955548     -0.675716      0.606895
      1.06563      5.87079      8.26273         0.494879     -0.697247      0.012926
     13.59070      3.56899      3.52488         0.541372      0.517033     -0.784310
     12.46220      5.11539      2.94250        -0.063065     -0.088789     -0.084027
      1.14761      5.26305      5.73569        -1.148103      1.138873     -0.573140
      2.86230      8.03318      1.49740        -0.877888     -0.731625     -0.146703
      1.50698      5.26123      8.13339        -0.420510      0.597553      0.237450
     13.53230      2.48191      1.21935         0.467404     -0.386279     -0.584055
      5.21355      5.37135      2.14916         0.198674      0.175967      0.155672
     12.32260      7.75202      0.97392        -0.701768      0.325667      0.511279
      1.52316      2.32412      1.98355         0.063359      0.266474     -0.238608
      2.86607      3.46715      9.53178        -0.078042      0.070885     -0.130728
      5.73428      4.59082      9.30944         0.806566      0.309407      0.467511
      0.00235      6.39053      2.01013         0.040482      0.092432      0.001115
      0.79532      7.69145      7.52416         0.463310     -1.331619     -0.600038
      1.28883      4.82046      2.95375        -0.590914     -0.009819     -0.572137
      0.64059      8.32580      7.78171        -0.270804      1.593535      0.641705
      3.32609      7.77420      7.95323         0.047565      0.538162      0.121938
      2.05110     10.44920      7.12408        -0.047714      0.227466     -0.435009
      0.71406      0.52049     10.05540        -0.206897     -0.469882     -0.542742
     11.57360      6.83787      9.83284        -0.363169      0.057508     -0.016032
     13.99410      2.14134      0.70471        -0.622650      0.390036      0.580740
      4.50319      1.59718      9.70804         0.215591     -0.024838     -0.435942
      4.35803      4.38708      7.60743        -0.737659      0.694414      0.567164
     13.36610      9.19327      9.08227         0.161691     -0.106399     -0.144444
      1.45155      2.82953      1.42521         0.114700     -0.194255      0.184533
      1.14233      0.09949      1.17225        -0.819140     -0.401647      0.982102
     14.04550      6.48322      2.51467         0.049624      0.033767     -0.001756
     13.95330      6.32997      7.16343        -0.683139      0.429470     -0.503099
      6.79469      0.03295      4.34032        -0.815722     -0.128570      0.025989
     10.28620      7.24624      9.17650         0.148181     -1.065389     -0.008524
      3.65683     12.70050      1.99651        -1.529282      0.042950     -0.504760
     12.13730      9.88037      3.26585        -0.411786     -0.064705     -0.534725
      8.24577      3.50395      4.58853         0.022549      0.361698     -1.068470
      2.71824     13.02370      8.54562        -1.577722      0.620265      0.279188
     11.09120      5.63146      2.73514        -0.191495     -0.205462     -0.512932
      6.20698     11.32440      9.97324        -0.454496      0.328185      0.691391
     10.03840      1.99996      1.15541         1.075778     -0.245753      0.739587
      5.40228      9.68878      6.41576        -0.179963      0.219260      0.352945
      8.66614     10.67030      2.73003        -0.365671      0.859085     -0.152109
      5.00290      3.26362      6.99710         0.038768     -0.710963     -1.052426
      6.36256     10.79010      3.16942         0.141973     -0.447996      0.288039
      7.37384     14.07860      2.05631        -0.341547     -1.060451      0.677047
     11.60130      4.39031      5.96132         0.855075      0.724186      0.422915
      4.74153     11.24080      4.90020         0.522293      0.718269     -0.505958
      4.73099     13.64580      5.14940         1.153277     -0.729231      0.463665
      9.28853      9.14810      6.00451         0.457253     -0.769084     -0.794582
      9.22312      8.64739      1.80110         0.149365     -0.223922     -1.565291
      1.42892     11.83560      6.99980         0.694092     -1.100847     -0.136221
      3.78814      2.74736      4.97780         1.108973      1.042748      0.106060
      7.50604     10.44680      7.03093        -0.347902     -0.334980      1.010519
      2.00714      1.53483      4.43427        -0.351681     -0.937742     -0.034954
      6.79430      6.58225      6.44133        -0.418412     -0.105562     -0.440473
      0.54457     11.46790      1.27466        -0.557082      0.553594      0.271078
      7.77769      1.48482      1.00571         0.609353     -0.045370     -1.290110
     10.13830     10.58320      4.42308         1.304762      0.302849      0.448669
      8.99438      5.21315      9.63151         0.065966     -0.223138     -0.094066
      0.13797     13.76360      1.94776        -0.109511     -0.013494     -0.601991
      4.18627     10.22230     10.12760        -0.777311     -0.497016      0.568387
     12.74470     11.21020      1.08298        -0.542552     -0.531702      0.237971
      5.79946     12.38650      1.50816         1.752033      0.007220     -0.356802
      6.41831     12.53200      7.98856         0.947913     -0.223727      0.178369
      7.58163      1.38988      9.13037        -0.305510      0.450675      0.790553
     11.37770      7.87255      2.17426         0.740978      0.423935     -0.172863
      7.66148      7.12052      2.60515        -0.404593      1.444186      1.097406
     11.13600      8.09409      7.22512        -0.188198      0.885157     -0.371898
     14.09360     13.93500      4.26410         0.413389      0.503467      0.426727
      6.32324      7.56766      8.62450         0.460296     -0.255658      0.700427
      6.66791      5.28137      1.75872        -1.273516     -0.234330     -1.042380
      5.45525      1.91692      3.52052         0.447429     -0.415677      0.550216
     11.32420      0.37678     10.40010        -0.798257     -0.422892     -0.822485
     13.80420     11.17350      6.57161        -0.939198     -0.242451      0.290710
      3.38746     10.65740      3.10036        -0.707527     -0.268386      0.205897
     12.83580      2.90255      4.54160        -1.028729     -0.722256     -0.188662
      4.61967     13.96100      7.50527         0.320123     -0.105583     -0.333521
     12.06520      1.40650      8.35218         1.283474      1.184157      1.493022
     14.47870      1.46556      5.37951        -0.168774     -0.482479     -0.992262
     12.48220     13.51130      1.26415         1.046002      0.593990      0.212264
     10.55750      2.69543      7.10279        -0.693607     -0.067929      0.317105
      7.13314      3.12100      2.43362        -0.424066      0.645960      1.102614
     12.47950      9.87722      8.09568         0.380474     -0.136972     -0.327095
     10.37710      4.33586      0.81596        -0.299340      0.192931     -0.240050
      1.06505      0.16075      8.61985         0.501350      1.383699      0.506531
     12.70560      6.59399      6.33163        -0.447886     -1.880266     -0.221128
     10.93970      1.56099      3.43120         0.816449     -0.316188     -1.113109
      1.38769     12.66550      4.79988        -0.343101     -0.838645     -0.326525
     13.99260      9.70458      4.68079        -0.019118      1.177961      0.130671
      7.07630      4.19080      6.44017        -0.554177      0.261805      0.485361
      6.71097      5.59849      9.97505        -0.544421      0.230691      0.133574
      5.07367      7.78811      5.21634         0.569080     -0.705610     -0.217990
     13.75990      0.26249      7.18876        -0.377345      0.245868      1.021275
      9.23906     12.71150      1.62373        -0.021611      0.518281     -0.520191
      8.67032     14.26850      5.89969         0.561994     -0.117020     -0.455181
      8.49687      3.35713      8.17174         1.321460      0.442489     -0.223801
     12.64000     13.16170      6.07600         0.752747     -0.887038     -0.907831
      2.95672     14.02650      3.82153        -0.602262      0.606482     -0.360091
      5.33075      1.47588      8.44195        -0.575240     -0.514933      0.556343
      9.91249      5.27737      4.66188        -0.623323     -0.462378     -0.177419
      9.51505      9.22675     10.05820         1.459107     -0.024591      1.475196
      4.35780      8.82121      8.30372        -0.431203     -0.700785     -0.180931
      2.52875     11.86340      0.06725         0.612972      0.162158     -0.538978
      9.93100     13.01530      9.76140         0.681828      0.124379      1.281981
      8.29932     13.89500      8.28939        -0.084682     -0.015156     -0.547376
      3.93371      8.97624      1.55865         1.321529      0.615131      0.318020
     10.56790     12.77600      5.09540        -0.927793      0.780344     -0.266559
      8.48425      7.10147      4.86726         0.032993      0.706391      0.708591
     11.30670     10.94260      9.75806        -1.408477      0.017309      0.511211
      1.09512     10.62880      3.39831         0.603103      0.938093      0.458295
      9.56818      1.76230      5.19298        -0.202071     -0.659789      1.198811
      5.67907      8.47405      3.04229         0.754929     -0.209687     -0.803319
     10.97100     13.74460      2.94952        -0.391194      0.577650      0.770585
      7.49507      9.54205      9.27128        -0.553938     -0.027083     -1.301570
 -----------------------------------------------------------------------------------
    total drift:                                0.011266      0.005145      0.008604


--------------------------------------------------------------------------------------------------------



  FREE ENERGIE OF THE ION-ELECTRON SYSTEM (eV)
  ---------------------------------------------------
  free  energy   TOTEN  =      -949.50886497 eV

  energy  without entropy=     -949.40801429  energy(sigma->0) =     -949.45843963



--------------------------------------------------------------------------------------------------------


    POTLOK:  cpu time      2.2114: real time      2.2126


--------------------------------------------------------------------------------------------------------


     LOOP+:  cpu time   2126.8175: real time   2128.8705
    4ORBIT:  cpu time      0.0000: real time      0.0000



 total charge

# of ion       s       p       d       tot
------------------------------------------
    1        0.641   0.038   0.000   0.679
    2        0.572   0.016   0.000   0.588
    3        0.576   0.017   0.000   0.593
    4        0.589   0.018   0.000   0.608
    5        0.525   0.011   0.000   0.535
    6        0.631   0.037   0.000   0.668
    7        0.618   0.033   0.000   0.651
    8        0.550   0.013   0.000   0.562
    9        0.646   0.040   0.000   0.686
   10        0.561   0.015   0.000   0.576
   11        0.638   0.038   0.000   0.676
   12        0.567   0.016   0.000   0.583
   13        0.649   0.043   0.000   0.692
   14        0.653   0.041   0.000   0.694
   15        0.601   0.030   0.000   0.630
   16        0.598   0.019   0.000   0.617
   17        0.574   0.017   0.000   0.592
   18        0.645   0.040   0.000   0.686
   19        0.594   0.018   0.000   0.613
   20        0.600   0.029   0.000   0.629
   21        0.595   0.028   0.000   0.623
   22        0.560   0.015   0.000   0.575
   23        0.550   0.015   0.000   0.565
   24        0.603   0.031   0.000   0.635
   25        0.619   0.033   0.000   0.652
   26        0.542   0.013   0.000   0.556
   27        0.616   0.032   0.000   0.648
   28        0.646   0.041   0.000   0.687
   29        0.633   0.036   0.000   0.669
   30        0.646   0.040   0.000   0.686
   31        0.555   0.015   0.000   0.570
   32        0.558   0.014   0.000   0.572
   33        0.557   0.015   0.000   0.572
   34        0.566   0.016   0.000   0.582
   35        0.591   0.029   0.000   0.620
   36        0.553   0.014   0.000   0.567
   37        0.594   0.018   0.000   0.612
   38        0.568   0.016   0.000   0.583
   39        0.604   0.030   0.000   0.634
   40        0.528   0.014   0.000   0.542
   41        0.614   0.033   0.000   0.647
   42        0.550   0.015   0.000   0.565
   43        0.748   0.874   0.000   1.622
   44        0.743   0.978   0.000   1.721
   45        0.757   0.970   0.000   1.727
   46        0.752   0.886   0.000   1.638
   47        0.760   0.933   0.000   1.693
   48        0.742   0.939   0.000   1.681
   49        0.745   0.990   0.000   1.735
   50        0.752   0.961   0.000   1.713
   51        0.750   0.902   0.000   1.652
   52        0.751   1.002   0.000   1.754
   53        0.752   0.980   0.000   1.732
   54        0.746   0.990   0.000   1.736
   55        0.753   0.928   0.000   1.681
   56        0.748   0.945   0.000   1.693
   57        0.750   0.944   0.000   1.694
   58        0.763   0.933   0.000   1.697
   59        0.759   0.926   0.000   1.685
   60        0.750   0.893   0.000   1.643
   61        0.748   0.967   0.000   1.716
   62        0.740   0.967   0.000   1.708
   63        0.741   0.988   0.000   1.729
   64        0.755   0.892   0.000   1.648
   65        0.791   0.886   0.000   1.677
   66        0.747   0.906   0.000   1.653
   67        0.752   0.918   0.000   1.670
   68        0.747   0.968   0.000   1.714
   69        0.753   0.976   0.000   1.730
   70        0.742   0.921   0.000   1.663
   71        0.748   0.927   0.000   1.675
   72        0.749   0.960   0.000   1.709
   73        0.756   0.883   0.000   1.639
   74        0.755   0.949   0.000   1.704
   75        0.762   0.907   0.000   1.669
   76        0.748   0.925   0.000   1.672
   77        0.739   0.971   0.000   1.709
   78        0.746   0.959   0.000   1.706
   79        0.743   0.945   0.000   1.688
   80        0.765   0.898   0.000   1.664
   81        0.749   0.909   0.000   1.658
   82        0.740   0.988   0.000   1.728
   83        0.795   0.845   0.000   1.640
   84        0.751   0.894   0.000   1.645
   85        0.749   0.935   0.000   1.684
   86        0.759   0.961   0.000   1.719
   87        0.750   0.939   0.000   1.689
   88        0.747   0.928   0.000   1.675
   89        0.739   0.933   0.000   1.672
   90        0.751   0.960   0.000   1.711
   91        0.758   0.964   0.000   1.722
   92        0.749   0.958   0.000   1.707
   93        0.749   0.957   0.000   1.706
   94        0.745   0.972   0.000   1.716
   95        0.742   0.954   0.000   1.696
   96        0.737   0.962   0.000   1.699
   97        0.734   0.953   0.000   1.687
   98        0.750   0.912   0.000   1.661
   99        0.767   0.940   0.000   1.707
  100        0.743   0.986   0.000   1.729
  101        0.750   0.953   0.000   1.704
  102        0.736   0.945   0.000   1.681
  103        0.744   0.981   0.000   1.725
  104        0.747   0.965   0.000   1.712
  105        0.756   0.898   0.000   1.655
  106        0.754   0.870   0.000   1.624
  107        0.750   0.912   0.000   1.662
  108        0.757   0.936   0.000   1.692
  109        0.751   0.962   0.000   1.713
  110        0.739   0.971   0.000   1.711
  111        0.751   0.976   0.000   1.727
  112        0.753   0.969   0.000   1.722
  113        0.742   0.976   0.000   1.719
  114        0.750   0.900   0.000   1.650
  115        0.749   0.864   0.000   1.613
  116        0.749   0.922   0.000   1.671
  117        0.746   0.987   0.000   1.733
  118        0.754   0.906   0.000   1.659
  119        0.752   0.914   0.000   1.666
  120        0.753   0.889   0.000   1.642
  121        0.752   0.947   0.000   1.700
  122        0.753   1.000   0.000   1.753
  123        0.751   0.917   0.000   1.668
  124        0.758   0.926   0.000   1.684
  125        0.754   0.979   0.000   1.733
--------------------------------------------------
tot         87.183  79.047   0.000 166.230


 total amount of memory used by VASP MPI-rank0   197368. kBytes
=======================================================================

   base                                    :      30000. kBytes
   nonl-proj                               :      40158. kBytes
   fftplans                                :      40954. kBytes
   grid                                    :      31575. kBytes
   one-center                              :         24. kBytes
   wavefun                                 :      54657. kBytes

  
  
 General timing and accounting informations for this job:
 ========================================================
  
                  Total CPU time used (sec):     2201.296
                            User time (sec):     2193.574
                          System time (sec):        7.721
                         Elapsed time (sec):     2203.447
  
                   Maximum memory used (kb):      385448.
                   Average memory used (kb):          N/A
  
                          Minor page faults:       206513
                          Major page faults:         1145
                 Voluntary context switches:         2243
