 vasp.6.5.0 16Dec24 (build Jan 20 2025 08:32:48) complex                         
 executed on        HPECrayEX_GCC date 2025.07.22  03:32:57
 running  128 mpi-ranks, with    1 threads/rank, on    1 nodes
 distrk:  each k-point on  128 cores,    1 groups
 distr:  one band on NCORE=  16 cores,    8 groups


--------------------------------------------------------------------------------------------------------


 INCAR:
   SYSTEM = a-Si SPC
   NCORE = 16
   ISTART = 1
   ICHARG = 1
   ISPIN = 1
   ISYM = 1
   EDIFF = 1E-6
   NELM = 150
   EDIFFG = -0.01
   NSW = 0
   ISIF = 2
   IBRION = -1
   PREC = Accurate
   ENCUT = 1200
   KSPACING = 0.23
   KGAMMA = .TRUE.
   METAGGA = SCAN
   LASPH = .TRUE.
   LDIAG = .FALSE.
   LMIXTAU = .TRUE.
   ADDGRID = .TRUE.
   ALGO = Normal
   ISMEAR = 0
   SIGMA = 0.1
   LORBIT = 11
   NEDOS = 2000
   LWAVE = .FALSE.
   LCHARG = .FALSE.

 POTCAR:    PAW_PBE H 15Jun2001                   
 POTCAR:    PAW_PBE Si 05Jan2001                  
 POTCAR:    PAW_PBE H 15Jun2001                   
   SHA256 =  030f79b5d3ab3cf0e668861823c8fb652ff669f3e15e46930bd03bfd63a607b6 H/POTCAR              
   COPYR  = (c) Copyright 15Jun2001 Georg Kresse                                                    
   COPYR  = This file is part of the software VASP. Any use, copying, and all other rights are regul
   COPYR  = If you do not have a valid VASP license, you may not use, copy or distribute this file. 
   VRHFIN =H: ultrasoft test                                                                        
   LEXCH  = PE                                                                                      
   EATOM  =    12.4884 eV,    0.9179 Ry                                                             
                                                                                                    
   TITEL  = PAW_PBE H 15Jun2001                                                                     
   LULTRA =        F    use ultrasoft PP ?                                                          
   IUNSCR =        0    unscreen: 0-lin 1-nonlin 2-no                                               
   RPACOR =    0.000    partial core radius                                                         
   POMASS =    1.000; ZVAL   =    1.000    mass and valenz                                          
   RCORE  =    1.100    outmost cutoff radius                                                       
   RWIGS  =    0.700; RWIGS  =    0.370    wigner-seitz radius (au A)                               
   ENMAX  =  250.000; ENMIN  =  200.000 eV                                                          
   RCLOC  =    0.701    cutoff for local pot                                                        
   LCOR   =        T    correct aug charges                                                         
   LPAW   =        T    paw PP                                                                      
   EAUG   =  400.000                                                                                
   RMAX   =    1.123    core radius for proj-oper                                                   
   RAUG   =    1.200    factor for augmentation sphere                                              
   RDEP   =    1.112    radius for radial grids                                                     
   RDEPT  =    0.926    core radius for aug-charge                                                  
                                                                                                    
   Atomic configuration                                                                             
    2 entries                                                                                       
     n  l   j            E        occ.                                                              
     1  0  0.50        -6.4927   1.0000                                                             
     2  1  0.50        -3.4015   0.0000                                                             
   Description                                                                                      
     l       E           TYP  RCUT    TYP  RCUT                                                     
     0     -6.4927494     23  1.100                                                                 
     0      6.8029130     23  1.100                                                                 
     1     -4.0817478     23  1.100                                                                 
  local pseudopotential read in
  atomic valenz-charges read in
  non local Contribution for L=           0  read in
    real space projection operators read in
  non local Contribution for L=           0  read in
    real space projection operators read in
  non local Contribution for L=           1  read in
    real space projection operators read in
    PAW grid and wavefunctions read in

   number of l-projection  operators is LMAX  =           3
   number of lm-projection operators is LMMAX =           5

 POTCAR:    PAW_PBE Si 05Jan2001                  
   SHA256 =  79d9987ad8750f624c4d6acb2a16d13abf6a777132adc04dc6c8399be72b42bb Si/POTCAR             
   COPYR  = (c) Copyright 05Jan2001 Georg Kresse                                                    
   COPYR  = This file is part of the software VASP. Any use, copying, and all other rights are regul
   COPYR  = If you do not have a valid VASP license, you may not use, copy or distribute this file. 
   VRHFIN =Si: s2p2                                                                                 
   LEXCH  = PE                                                                                      
   EATOM  =   103.0669 eV,    7.5752 Ry                                                             
                                                                                                    
   TITEL  = PAW_PBE Si 05Jan2001                                                                    
   LULTRA =        F    use ultrasoft PP ?                                                          
   IUNSCR =        1    unscreen: 0-lin 1-nonlin 2-no                                               
   RPACOR =    1.500    partial core radius                                                         
   POMASS =   28.085; ZVAL   =    4.000    mass and valenz                                          
   RCORE  =    1.900    outmost cutoff radius                                                       
   RWIGS  =    2.480; RWIGS  =    1.312    wigner-seitz radius (au A)                               
   ENMAX  =  245.345; ENMIN  =  184.009 eV                                                          
   ICORE  =        2    local potential                                                             
   LCOR   =        T    correct aug charges                                                         
   LPAW   =        T    paw PP                                                                      
   EAUG   =  322.069                                                                                
   DEXC   =    0.000                                                                                
   RMAX   =    1.950    core radius for proj-oper                                                   
   RAUG   =    1.300    factor for augmentation sphere                                              
   RDEP   =    1.993    radius for radial grids                                                     
   RDEPT  =    1.837    core radius for aug-charge                                                  
                                                                                                    
   Atomic configuration                                                                             
    6 entries                                                                                       
     n  l   j            E        occ.                                                              
     1  0  0.50     -1785.8828   2.0000                                                             
     2  0  0.50      -139.4969   2.0000                                                             
     2  1  1.50       -95.5546   6.0000                                                             
     3  0  0.50       -10.8127   2.0000                                                             
     3  1  0.50        -4.0811   2.0000                                                             
     3  2  1.50        -4.0817   0.0000                                                             
   Description                                                                                      
     l       E           TYP  RCUT    TYP  RCUT                                                     
     0    -10.8127223     23  1.900                                                                 
     0     -7.6451159     23  1.900                                                                 
     1     -4.0811372     23  1.900                                                                 
     1      2.4879257     23  1.900                                                                 
     2     -4.0817478      7  1.900                                                                 
  local pseudopotential read in
  partial core-charges read in
  partial kinetic energy density read in
  atomic valenz-charges read in
  non local Contribution for L=           0  read in
    real space projection operators read in
  non local Contribution for L=           0  read in
    real space projection operators read in
  non local Contribution for L=           1  read in
    real space projection operators read in
  non local Contribution for L=           1  read in
    real space projection operators read in
    PAW grid and wavefunctions read in

   number of l-projection  operators is LMAX  =           4
   number of lm-projection operators is LMMAX =           8

 -----------------------------------------------------------------------------
|                                                                             |
|               ----> ADVICE to this user running VASP <----                  |
|                                                                             |
|     You have a (more or less) 'large supercell' and for larger cells it     |
|     might be more efficient to use real-space projection operators.         |
|     Therefore, try LREAL= Auto in the INCAR file.                           |
|     Mind: For very accurate calculation, you might also keep the            |
|     reciprocal projection scheme (i.e. LREAL=.FALSE.).                      |
|                                                                             |
 -----------------------------------------------------------------------------

 -----------------------------------------------------------------------------
|                                                                             |
|               ----> ADVICE to this user running VASP <----                  |
|                                                                             |
|     You enforced a specific xc type in the INCAR file but a different       |
|     type was found in the POTCAR file.                                      |
|     I HOPE YOU KNOW WHAT YOU ARE DOING!                                     |
|                                                                             |
 -----------------------------------------------------------------------------

  PAW_PBE H 15Jun2001                   :
 energy of atom  1       EATOM=  -12.4884
 kinetic energy error for atom=    0.0000 (will be added to EATOM!!)
  PAW_PBE Si 05Jan2001                  :
 energy of atom  2       EATOM= -103.0669
 kinetic energy error for atom=    0.0001 (will be added to EATOM!!)


 POSCAR:  H Si
  positions in cartesian coordinates
  No initial velocities read in


 exchange-correlation table for SCAN
   RHO(1)=    0.500       N(1)  =     2000
   RHO(2)=  100.500       N(2)  =     4000



--------------------------------------------------------------------------------------------------------


 ion  position               nearest neighbor table
   1  0.578  0.601  0.634-  24 1.88
   2  0.451  0.039  0.483-  21 1.51
   3  0.465  0.605  0.402-  68 1.55
   4  0.906  0.093  0.472-  49 1.56  25 1.75
   5  0.093  0.283  0.504-  18 2.27  51 2.38  37 2.38  65 2.39
   6  0.876  0.961  0.613-  29 2.35  12 2.49
   7  0.647  0.873  0.629-  39 2.23  62 2.40
   8  0.045  0.030  0.538-  19 2.32  37 2.33  29 2.35  49 2.36
   9  0.625  0.815  0.423-  17 2.32  35 2.39  28 2.50
  10  0.389  0.380  0.448-  74 2.20  23 2.27  58 2.33  78 2.38
  11  0.002  0.879  0.417-  59 2.30  46 2.30  49 2.47
  12  0.827  0.933  0.528-  69 2.28  45 2.32  49 2.37   6 2.49
  13  0.139  0.090  0.409-  59 2.15  37 2.37  36 2.41
  14  0.241  0.831  0.505-  82 2.22  60 2.36  53 2.40  19 2.51
  15  0.270  0.704  0.389-  53 2.30  68 2.38  61 2.41
  16  0.649  0.218  0.382-  38 2.30  34 2.36  57 2.52
  17  0.653  0.968  0.442-  45 2.14   9 2.32  21 2.42  57 2.44
  18  0.942  0.279  0.524-   5 2.27  25 2.28  56 2.28  41 2.50
  19  0.113  0.890  0.558-  72 2.28   8 2.32  64 2.43  14 2.51
  20  0.858  0.304  0.399-  31 2.18  34 2.32  25 2.39
  21  0.518  0.066  0.443-   2 1.51  38 2.29  30 2.39  17 2.42
  22  0.911  0.543  0.363-  27 2.39  31 2.43
  23  0.457  0.463  0.388-  10 2.27  66 2.54
  24  0.575  0.670  0.576-   1 1.88  71 2.26  47 2.32  39 2.35
  25  0.856  0.203  0.467-   4 1.75  18 2.28  48 2.29  20 2.39
  26  0.293  0.105  0.504-  37 2.29  60 2.31  79 2.36  36 2.39
  27  0.863  0.677  0.406-  22 2.39  28 2.42  46 2.44
  28  0.736  0.705  0.461-  69 2.34  73 2.40  27 2.42   9 2.50
  29  0.965  0.095  0.604-  56 2.32   8 2.35   6 2.35
  30  0.414  0.050  0.377-  36 2.26  33 2.28  21 2.39
  31  0.935  0.424  0.424-  20 2.18  41 2.26  51 2.32  22 2.43
  32  0.164  0.334  0.365-  51 2.33  58 2.58
  33  0.390  0.897  0.389-  53 2.21  30 2.28  35 2.33
  34  0.723  0.358  0.364-  20 2.32  16 2.36  66 2.40
  35  0.470  0.824  0.451-  68 2.28  33 2.33   9 2.39  54 2.41
  36  0.301  0.122  0.418-  30 2.26  58 2.35  26 2.39  13 2.41  37 3.14
  37  0.139  0.127  0.493-  26 2.29   8 2.33  13 2.37   5 2.38  36 3.14
  38  0.571  0.213  0.455-  78 2.27  21 2.29  16 2.30  48 2.49
  39  0.710  0.754  0.590-   7 2.23  69 2.24  24 2.35
  40  0.732  0.229  0.577-  56 2.28  48 2.35  70 2.37
  41  0.899  0.441  0.503-  31 2.26  80 2.27  77 2.35  18 2.50
  42  0.227  0.608  0.590-  82 2.25  52 2.32
  43  0.548  0.084  0.637-  76 2.38  62 2.44
  44  0.411  0.434  0.610-  50 2.29  81 2.39
  45  0.693  0.015  0.513-  17 2.14  48 2.30  12 2.32  62 2.54
  46  0.998  0.733  0.449-  11 2.30  75 2.32  61 2.40  27 2.44
  47  0.440  0.756  0.579-  54 2.28  24 2.32  82 2.44
  48  0.714  0.169  0.499-  25 2.29  45 2.30  40 2.35  38 2.49
  49  0.941  0.992  0.476-   4 1.56   8 2.36  12 2.37  11 2.47
  50  0.531  0.413  0.557-  78 2.28  71 2.28  44 2.29  70 2.34
  51  0.086  0.380  0.435-  63 2.31  31 2.32  32 2.33   5 2.38
  52  0.113  0.513  0.558-  42 2.32  65 2.32  77 2.35  63 2.43
  53  0.257  0.851  0.420-  33 2.21  59 2.29  15 2.30  14 2.40
  54  0.450  0.884  0.532-  60 2.26  47 2.28  62 2.40  35 2.41
  55  0.829  0.550  0.597-  77 2.28  80 2.43
  56  0.885  0.232  0.597-  40 2.28  18 2.28  29 2.32
  57  0.707  0.056  0.372-  17 2.44  16 2.52
  58  0.322  0.276  0.395-  10 2.33  36 2.35  32 2.58
  59  0.139  0.945  0.394-  13 2.15  53 2.29  11 2.30
  60  0.316  0.962  0.538-  54 2.26  26 2.31  72 2.33  14 2.36
  61  0.128  0.645  0.421-  46 2.40  15 2.41  63 2.46
  62  0.568  0.971  0.573-   7 2.40  54 2.40  43 2.44  45 2.54
  63  0.148  0.508  0.472-  74 2.30  51 2.31  52 2.43  61 2.46
  64  0.038  0.773  0.607-  19 2.43  75 2.53
  65  0.137  0.360  0.577-  81 2.30  52 2.32   5 2.39
  66  0.630  0.476  0.400-  34 2.40  73 2.46  23 2.54
  67  0.383  0.595  0.498-  82 2.31  68 2.34  71 2.36  74 2.44
  68  0.413  0.684  0.429-   3 1.55  35 2.28  67 2.34  15 2.38
  69  0.805  0.778  0.527-  39 2.24  12 2.28  28 2.34  75 2.38
  70  0.671  0.377  0.595-  50 2.34  40 2.37  80 2.51
  71  0.533  0.557  0.524-  24 2.26  50 2.28  67 2.36  73 2.39
  72  0.223  0.953  0.607-  19 2.28  60 2.33
  73  0.670  0.556  0.475-  80 2.36  71 2.39  28 2.40  66 2.46
  74  0.291  0.455  0.495-  10 2.20  63 2.30  67 2.44  81 2.44
  75  0.958  0.720  0.530-  46 2.32  77 2.36  69 2.38  64 2.53
  76  0.417  0.182  0.634-  43 2.38  79 2.38
  77  0.959  0.562  0.550-  55 2.28  52 2.35  41 2.35  75 2.36
  78  0.485  0.302  0.505-  38 2.27  50 2.28  10 2.38  79 2.45
  79  0.372  0.214  0.552-  26 2.36  81 2.37  76 2.38  78 2.45
  80  0.755  0.467  0.531-  41 2.27  73 2.36  55 2.43  70 2.51
  81  0.294  0.354  0.566-  65 2.30  79 2.37  44 2.39  74 2.44
  82  0.299  0.704  0.539-  14 2.22  42 2.25  67 2.31  47 2.44

  LATTYP: Found a simple tetragonal cell.
 ALAT       =    14.5284224467
 C/A-ratio  =     1.8976651251
  
  Lattice vectors:
  
 A1 = (  14.5284224467,   0.0000000000,   0.0000000000)
 A2 = (   0.0000000000,  14.5284224467,   0.0000000000)
 A3 = (   0.0000000000,   0.0000000000,  27.5700806000)


Analysis of symmetry for initial positions (statically):
=====================================================================
 Subroutine PRICEL returns:
 Original cell was already a primitive cell.
 

 Routine SETGRP: Setting up the symmetry group for a 
 simple tetragonal supercell.


 Subroutine GETGRP returns: Found  1 space group operations
 (whereof  1 operations were pure point group operations)
 out of a pool of 16 trial point group operations.


The static configuration has the point symmetry C_1 .


Analysis of symmetry for dynamics (positions and initial velocities):
=====================================================================
 Subroutine PRICEL returns:
 Original cell was already a primitive cell.
 

 Routine SETGRP: Setting up the symmetry group for a 
 simple tetragonal supercell.


 Subroutine GETGRP returns: Found  1 space group operations
 (whereof  1 operations were pure point group operations)
 out of a pool of 16 trial point group operations.


The dynamic configuration has the point symmetry C_1 .


 Subroutine INISYM returns: Found  1 space group operations
 (whereof  1 operations are pure point group operations),
 and found     1 'primitive' translations


----------------------------------------------------------------------------------------

                                     Primitive cell                                     

  volume of cell :    5819.3564

  direct lattice vectors                    reciprocal lattice vectors
    14.528422447  0.000000000  0.000000000     0.068830598  0.000000000  0.000000000
     0.000000000 14.528422447  0.000000000     0.000000000  0.068830598  0.000000000
     0.000000000  0.000000000 27.570080600     0.000000000  0.000000000  0.036271203

  length of vectors
    14.528422447 14.528422447 27.570080600     0.068830598  0.068830598  0.036271203

  position of ions in fractional coordinates (direct lattice)
     0.577848698  0.600749327  0.633842202
     0.450916128  0.038864509  0.482613772
     0.464747637  0.604953499  0.402407986
     0.905776250  0.093427900  0.471791533
     0.093351498  0.283412051  0.504450488
     0.876426883  0.960744365  0.613175959
     0.647032397  0.872503539  0.628803044
     0.044947619  0.029557029  0.538385825
     0.625487732  0.815064405  0.423355694
     0.388868098  0.380342740  0.448165197
     0.002455552  0.879097510  0.417262132
     0.826538466  0.933205243  0.528151180
     0.138823056  0.090073097  0.409240392
     0.240763924  0.830805963  0.505451210
     0.269835215  0.704254026  0.388662143
     0.648665747  0.218452486  0.381897926
     0.652991750  0.968040408  0.441971163
     0.941533745  0.278804531  0.523871178
     0.112745207  0.889993394  0.557988960
     0.858104178  0.303791414  0.398610028
     0.518088597  0.065574497  0.443023028
     0.911399710  0.542787080  0.362712034
     0.456540276  0.462916743  0.388110712
     0.574588193  0.669681793  0.576172077
     0.856163155  0.202869239  0.467286650
     0.292891401  0.105080920  0.503967355
     0.862667647  0.677182264  0.405863543
     0.736267137  0.704852852  0.460957325
     0.965287185  0.094759084  0.604105981
     0.414084187  0.050295275  0.376537296
     0.934574972  0.424065312  0.423752138
     0.163966873  0.334187694  0.364875342
     0.389552274  0.896842038  0.389122352
     0.723443997  0.358171028  0.363866785
     0.470015243  0.823530569  0.451034974
     0.300542610  0.121802626  0.417804386
     0.138513318  0.127354502  0.492910441
     0.570905068  0.212586742  0.454561986
     0.710070212  0.753543617  0.589934460
     0.732054704  0.229448862  0.577165908
     0.899492016  0.441341792  0.503180270
     0.226555224  0.607695022  0.589901090
     0.547632066  0.083525242  0.637287966
     0.411037057  0.433999632  0.609727293
     0.692635421  0.014689000  0.512725763
     0.998263924  0.732674180  0.449160841
     0.440133815  0.755932039  0.578964234
     0.714440954  0.168876560  0.498565485
     0.941024399  0.992076053  0.475620322
     0.531125112  0.412905119  0.557265349
     0.086432646  0.379721888  0.434901906
     0.112736948  0.513490025  0.558324106
     0.256503417  0.850925147  0.419522190
     0.450124576  0.884225390  0.531757263
     0.829284807  0.550146448  0.596559395
     0.884672789  0.231634234  0.597030195
     0.707062314  0.056421405  0.372440319
     0.321668097  0.276095358  0.394744026
     0.139472128  0.944782550  0.393659879
     0.315516706  0.961659812  0.537880930
     0.128124028  0.645029427  0.421277354
     0.567687926  0.970662854  0.572677709
     0.147888734  0.507658696  0.472385656
     0.037589835  0.772664757  0.607030891
     0.137263354  0.359911065  0.577464057
     0.629597607  0.475704780  0.399914340
     0.383491051  0.594654377  0.497629325
     0.413135702  0.683670924  0.428706422
     0.804863711  0.777999128  0.527343058
     0.670965484  0.377073287  0.594588055
     0.533028278  0.556792730  0.523971649
     0.222790878  0.953482737  0.606618488
     0.669551015  0.556244839  0.475487569
     0.291257362  0.454778213  0.494653273
     0.958266464  0.720277789  0.530353205
     0.417017059  0.181618480  0.633631104
     0.959058015  0.562353554  0.550497143
     0.484678913  0.301508303  0.504649979
     0.372102341  0.213784395  0.552251218
     0.754989060  0.467177357  0.530996656
     0.294027794  0.354353683  0.565660319
     0.299126076  0.704467401  0.539025649

  ion indices of the primitive-cell ions
   primitive index   ion index
                 1           1
                 2           2
                 3           3
                 4           4
                 5           5
                 6           6
                 7           7
                 8           8
                 9           9
                10          10
                11          11
                12          12
                13          13
                14          14
                15          15
                16          16
                17          17
                18          18
                19          19
                20          20
                21          21
                22          22
                23          23
                24          24
                25          25
                26          26
                27          27
                28          28
                29          29
                30          30
                31          31
                32          32
                33          33
                34          34
                35          35
                36          36
                37          37
                38          38
                39          39
                40          40
                41          41
                42          42
                43          43
                44          44
                45          45
                46          46
                47          47
                48          48
                49          49
                50          50
                51          51
                52          52
                53          53
                54          54
                55          55
                56          56
                57          57
                58          58
                59          59
                60          60
                61          61
                62          62
                63          63
                64          64
                65          65
                66          66
                67          67
                68          68
                69          69
                70          70
                71          71
                72          72
                73          73
                74          74
                75          75
                76          76
                77          77
                78          78
                79          79
                80          80
                81          81
                82          82

----------------------------------------------------------------------------------------


 -----------------------------------------------------------------------------
|                                                                             |
|           W    W    AA    RRRRR   N    N  II  N    N   GGGG   !!!           |
|           W    W   A  A   R    R  NN   N  II  NN   N  G    G  !!!           |
|           W    W  A    A  R    R  N N  N  II  N N  N  G       !!!           |
|           W WW W  AAAAAA  RRRRR   N  N N  II  N  N N  G  GGG   !            |
|           WW  WW  A    A  R   R   N   NN  II  N   NN  G    G                |
|           W    W  A    A  R    R  N    N  II  N    N   GGGG   !!!           |
|                                                                             |
|     The requested file  could not be found or opened for reading            |
|     k-point information. Automatic k-point generation is used as a          |
|     fallback, which may lead to unwanted results.                           |
|                                                                             |
 -----------------------------------------------------------------------------



Automatic generation of k-mesh.
 Grid dimensions derived from KSPACING:
 generate k-points for:    2    2    1

 Generating k-lattice:

  Cartesian coordinates                     Fractional coordinates (reciprocal lattice)
     0.034415299  0.000000000  0.000000000     0.500000000  0.000000000  0.000000000
     0.000000000  0.034415299  0.000000000     0.000000000  0.500000000  0.000000000
     0.000000000  0.000000000  0.036271203     0.000000000  0.000000000  1.000000000

  Length of vectors
     0.034415299  0.034415299  0.036271203

  Shift w.r.t. Gamma in fractional coordinates (k-lattice)
     0.000000000  0.000000000  0.000000000

 
 Subroutine IBZKPT returns following result:
 ===========================================
 
 Found      4 irreducible k-points:
 
 Following reciprocal coordinates:
            Coordinates               Weight
  0.000000  0.000000  0.000000      1.000000
  0.500000  0.000000  0.000000      1.000000
  0.000000  0.500000  0.000000      1.000000
  0.500000  0.500000  0.000000      1.000000
 
 Following cartesian coordinates:
            Coordinates               Weight
  0.000000  0.000000  0.000000      1.000000
  0.034415  0.000000  0.000000      1.000000
  0.000000  0.034415  0.000000      1.000000
  0.034415  0.034415  0.000000      1.000000
 


--------------------------------------------------------------------------------------------------------




 Dimension of arrays:
   k-points           NKPTS =      4   k-points in BZ     NKDIM =      4   number of bands    NBANDS=    200
   number of dos      NEDOS =   2000   number of ions     NIONS =     82
   non local maximal  LDIM  =      4   non local SUM 2l+1 LMDIM =      8
   total plane-waves  NPLWV = ******
   max r-space proj   IRMAX =      1   max aug-charges    IRDMAX= 415281
   dimension x,y,z NGX =   168 NGY =  168 NGZ =  320
   dimension x,y,z NGXF=   336 NGYF=  336 NGZF=  640
   support grid    NGXF=   672 NGYF=  672 NGZF= 1280
   ions per type =               4  78
   NGX,Y,Z   is equivalent  to a cutoff of  19.22, 19.22, 19.30 a.u.
   NGXF,Y,Z  is equivalent  to a cutoff of  38.45, 38.45, 38.59 a.u.

 SYSTEM =  a-Si SPC                                
 POSCAR =   H Si                                   

 Startparameter for this run:
   NWRITE =      2    write-flag & timer
   PREC   = accura    normal or accurate (medium, high low for compatibility)
   ISTART =      1    job   : 0-new  1-cont  2-samecut
   ICHARG =      1    charge: 1-file 2-atom 10-const
   ISPIN  =      1    spin polarized calculation?
   LNONCOLLINEAR =      F non collinear calculations
   LSORBIT =      F    spin-orbit coupling
   INIWAV =      1    electr: 0-lowe 1-rand  2-diag
   LASPH  =      T    aspherical Exc in radial PAW
 Electronic Relaxation 1
   ENCUT  = 1200.0 eV  88.20 Ry    9.39 a.u.  41.04 41.04 77.87*2*pi/ulx,y,z
   ENINI  = 1200.0     initial cutoff
   ENAUG  =  400.0 eV  augmentation charge cutoff
   NELM   =    150;   NELMIN=  2; NELMDL=  0     # of ELM steps 
   EDIFF  = 0.1E-05   stopping-criterion for ELM
   LREAL  =      F    real-space projection
   NLSPLINE    = F    spline interpolate recip. space projectors
   LCOMPAT=      F    compatible to vasp.4.4
   GGA_COMPAT  = T    GGA compatible to vasp.4.4-vasp.4.6
   LMAXPAW     = -100 max onsite density
   LMAXMIX     =    2 max onsite mixed and CHGCAR
   VOSKOWN=      0    Vosko Wilk Nusair interpolation
   ROPT   =    0.00000   0.00000
 Ionic relaxation
   EDIFFG = -.1E-01   stopping-criterion for IOM
   NSW    =      0    number of steps for IOM
   NBLOCK =      1;   KBLOCK =      1    inner block; outer block 
   IBRION =     -1    ionic relax: 0-MD 1-quasi-New 2-CG
   NFREE  =      0    steps in history (QN), initial steepest desc. (CG)
   ISIF   =      2    stress and relaxation
   IWAVPR =     10    prediction:  0-non 1-charg 2-wave 3-comb
   ISYM   =      1    0-nonsym 1-usesym 2-fastsym
   LCORR  =      T    Harris-Foulkes like correction to forces

   POTIM  = 0.5000    time-step for ionic-motion
   TEIN   =    0.0    initial temperature
   TEBEG  =    0.0;   TEEND  =   0.0 temperature during run
   SMASS  =  -3.00    Nose mass-parameter (am)
   estimated Nose-frequenzy (Omega)   =  0.10E-29 period in steps = 0.13E+47 mass=  -0.482E-26a.u.
   SCALEE = 1.0000    scale energy and forces
   NPACO  =    256;   APACO  = 10.0  distance and # of slots for P.C.
   PSTRESS=    0.0 pullay stress

  Mass of Ions in am
   POMASS =   1.00 28.09
  Ionic Valenz
   ZVAL   =   1.00  4.00
  Atomic Wigner-Seitz radii
   RWIGS  =  -1.00 -1.00
  virtual crystal weights 
   VCA    =   1.00  1.00
   NELECT =     316.0000    total number of electrons
   NUPDOWN=      -1.0000    fix difference up-down

 DOS related values:
   EMIN   =  10.00;   EMAX   =-10.00  energy-range for DOS
   EFERMI =   0.00;   METHOD = LEGACY      
   ISMEAR =     0;   SIGMA  =   0.10  broadening in eV -4-tet -1-fermi 0-gaus
   EFERMI_NEDOS =   21; number of points for ismear=-14 and -15

 Electronic relaxation 2 (details)
   IALGO  =     38    algorithm
   LDIAG  =      F    sub-space diagonalisation (order eigenvalues)
   LSUBROT=      F    optimize rotation matrix (better conditioning)
   TURBO    =      0    0=normal 1=particle mesh
   IRESTART =      0    0=no restart 2=restart with 2 vectors
   NREBOOT  =      0    no. of reboots
   NMIN     =      0    reboot dimension
   EREF     =   0.00    reference energy to select bands
   IMIX   =      4    mixing-type and parameters
     AMIX     =   0.40;   BMIX     =  1.00
     AMIX_MAG =   1.60;   BMIX_MAG =  1.00
     AMIN     =   0.10
     WC   =   100.;   INIMIX=   1;  MIXPRE=   1;  MAXMIX= -45

 Intra band minimization:
   WEIMIN = 0.0000     energy-eigenvalue tresh-hold
   EBREAK =  0.13E-08  absolut break condition
   DEPER  =   0.30     relativ break condition  

   TIME   =   0.40     timestep for ELM

  volume/ion in A,a.u.               =      70.97       478.91
  Fermi-wavevector in a.u.,A,eV,Ry     =   0.619934  1.171506  5.228968  0.384318
  Thomas-Fermi vector in A             =   1.678907

 Write flags
   LWAVE        =      F    write WAVECAR
   LDOWNSAMPLE  =      F    k-point downsampling of WAVECAR
   LCHARG       =      F    write CHGCAR
   LVTOT        =      F    write LOCPOT, total local potential
   LVHAR        =      F    write LOCPOT, Hartree potential only
   WRT_POTENTIAL= false  ! write potential to hdf5 file
   LELF         =      F    write electronic localiz. function (ELF)
   LORBIT       =     11    0 simple, 1 ext, 2 COOP (PROOUT), +10 PAW based schemes


 Python interface
   PLUGINS active      =      F    recompile with -DPLUGINS to activate

 Dipole corrections
   LMONO      =      F    monopole corrections only (constant potential shift)
   LDIPOL     =      F    correct potential (dipole corrections)
   IDIPOL     =      0    1-x, 2-y, 3-z, 4-all directions 
   EPSILON    =  1.0000000 bulk dielectric constant
   LVACPOTAV  =      F  vacuum potentials using an averaging scheme for the charge density
   VACPOTFLAT =  0.1000000 required flatness to determine vacuum potential

Coulomb truncation method
  LTRUNCATE          =      F  Coulomb kernel truncation to be used
  IDIMENSIONALITY    =      3  Dimensionality of cutoff (0 molecules / 2 surfaces)
  ISURFACE           =     -1  Direction of surface normal
  LCOARSEN           =      F  Coarsen the charge grid before padding, preferred


 Exchange correlation treatment:
   METAGGA = SCAN    functional components
   XC_C    = 1    coefficients multiplying the functional components
   LIBXC   =     F    Libxc                    
   VOSKOWN =     0    Vosko Wilk Nusair interpolation
   LHFCALC =     F    Hartree Fock is set to
   LHFONE  =     F    Hartree Fock one center treatment
   AEXX    =    0.0000 exact exchange contribution

 Parameters of functionals:
   SCAN:
     P1 =  0.000000E+00
     P2 =  0.000000E+00
     P3 =  0.000000E+00

 Accuracy and mixing parameters for tau-dependent meta-GGA functionals:
   LMAXTAU = 6
   LMIXTAU = T

 Van der Waals corrections
   IVDW    =     0    specifies the selected vdW correction

 Linear response parameters
   LEPSILON=     F    determine dielectric tensor
   LRPA    =     F    only Hartree local field effects (RPA)
   LNABLA  =     F    use nabla operator in PAW spheres
   LVEL    =     F    velocity operator in full k-point grid
   CSHIFT  =0.1000    complex shift for real part using Kramers Kronig
   OMEGAMAX=  -1.0    maximum frequency
   DEG_THRESHOLD= 0.2000000E-02 threshold for treating states as degnerate
   RTIME   =   -0.100 relaxation time in fs
  (WPLASMAI=    0.000 imaginary part of plasma frequency in eV, 0.658/RTIME)
   DFIELD  = 0.0000000 0.0000000 0.0000000 field for delta impulse in time

  Optional k-point grid parameters
   LKPOINTS_OPT  =     F    use optional k-point grid
   KPOINTS_OPT_MODE=     1    mode for optional k-point grid

 Orbital magnetization related:
   ORBITALMAG=     F  switch on orbital magnetization
   LCHIMAG   =     F  perturbation theory with respect to B field
   DQ        =  0.001000  dq finite difference perturbation B field
   LLRAUG    =     F  two centre corrections for induced B field
   LBONE     =     F  B-component reconstruction in AE one-centre
   LVGVCALC  =     T  calculate vGv susceptibility
   LVGVAPPL  =     F  apply vGv susceptibility instead of pGv for G=0

 Random number generation:
   RANDOM_GENERATOR = DEFAULT
   PCG_SEED         = not used


--------------------------------------------------------------------------------------------------------


 Static calculation
 charge density and potential will be updated during run
 non-spin polarized calculation
 Variant of blocked Davidson
 perform Loewdin sub-space diagonalisation
    ordering is kept fixed
    before iterative eigenvector-optimisation
 modified Broyden-mixing scheme, WC =      100.0
 initial mixing is a Kerker type mixing with AMIX =  0.4000 and BMIX =      1.0000
 Hartree-type preconditioning will be used
 using additional bands           42
 reciprocal scheme for non local part
 use partial core corrections
 calculate Harris-corrections to forces   (improved forces if not selfconsistent)
 use gradient corrections 
 use of overlap-Matrix (Vanderbilt PP)
 Gauss-broadening in eV      SIGMA  =   0.10


--------------------------------------------------------------------------------------------------------


  energy-cutoff  :     1200.00
  volume of cell :     5819.36
      direct lattice vectors                 reciprocal lattice vectors
    14.528422447  0.000000000  0.000000000     0.068830598  0.000000000  0.000000000
     0.000000000 14.528422447  0.000000000     0.000000000  0.068830598  0.000000000
     0.000000000  0.000000000 27.570080600     0.000000000  0.000000000  0.036271203

  length of vectors
    14.528422447 14.528422447 27.570080600     0.068830598  0.068830598  0.036271203



 old parameters found on file WAVECAR:
  energy-cutoff  :     1200.00
  volume of cell :     5819.36
      direct lattice vectors                 reciprocal lattice vectors
    14.528422447  0.000000000  0.000000000     0.068830598  0.000000000  0.000000000
     0.000000000 14.528422447  0.000000000     0.000000000  0.068830598  0.000000000
     0.000000000  0.000000000 27.570080600     0.000000000  0.000000000  0.036271203

  length of vectors


 k-points in units of 2pi/SCALE and weight: read from INCAR                         
   0.00000000  0.00000000  0.00000000       0.250
   0.03441530  0.00000000  0.00000000       0.250
   0.00000000  0.03441530  0.00000000       0.250
   0.03441530  0.03441530  0.00000000       0.250

 k-points in reciprocal lattice and weights: read from INCAR                         
   0.00000000  0.00000000  0.00000000       0.250
   0.50000000  0.00000000  0.00000000       0.250
   0.00000000  0.50000000  0.00000000       0.250
   0.50000000  0.50000000  0.00000000       0.250

 position of ions in fractional coordinates (direct lattice) 
   0.57784870  0.60074933  0.63384220
   0.45091613  0.03886451  0.48261377
   0.46474764  0.60495350  0.40240799
   0.90577625  0.09342790  0.47179153
   0.09335150  0.28341205  0.50445049
   0.87642688  0.96074437  0.61317596
   0.64703240  0.87250354  0.62880304
   0.04494762  0.02955703  0.53838583
   0.62548773  0.81506441  0.42335569
   0.38886810  0.38034274  0.44816520
   0.00245555  0.87909751  0.41726213
   0.82653847  0.93320524  0.52815118
   0.13882306  0.09007310  0.40924039
   0.24076392  0.83080596  0.50545121
   0.26983522  0.70425403  0.38866214
   0.64866575  0.21845249  0.38189793
   0.65299175  0.96804041  0.44197116
   0.94153375  0.27880453  0.52387118
   0.11274521  0.88999339  0.55798896
   0.85810418  0.30379141  0.39861003
   0.51808860  0.06557450  0.44302303
   0.91139971  0.54278708  0.36271203
   0.45654028  0.46291674  0.38811071
   0.57458819  0.66968179  0.57617208
   0.85616316  0.20286924  0.46728665
   0.29289140  0.10508092  0.50396736
   0.86266765  0.67718226  0.40586354
   0.73626714  0.70485285  0.46095732
   0.96528718  0.09475908  0.60410598
   0.41408419  0.05029527  0.37653730
   0.93457497  0.42406531  0.42375214
   0.16396687  0.33418769  0.36487534
   0.38955227  0.89684204  0.38912235
   0.72344400  0.35817103  0.36386679
   0.47001524  0.82353057  0.45103497
   0.30054261  0.12180263  0.41780439
   0.13851332  0.12735450  0.49291044
   0.57090507  0.21258674  0.45456199
   0.71007021  0.75354362  0.58993446
   0.73205470  0.22944886  0.57716591
   0.89949202  0.44134179  0.50318027
   0.22655522  0.60769502  0.58990109
   0.54763207  0.08352524  0.63728797
   0.41103706  0.43399963  0.60972729
   0.69263542  0.01468900  0.51272576
   0.99826392  0.73267418  0.44916084
   0.44013382  0.75593204  0.57896423
   0.71444095  0.16887656  0.49856548
   0.94102440  0.99207605  0.47562032
   0.53112511  0.41290512  0.55726535
   0.08643265  0.37972189  0.43490191
   0.11273695  0.51349002  0.55832411
   0.25650342  0.85092515  0.41952219
   0.45012458  0.88422539  0.53175726
   0.82928481  0.55014645  0.59655939
   0.88467279  0.23163423  0.59703020
   0.70706231  0.05642140  0.37244032
   0.32166810  0.27609536  0.39474403
   0.13947213  0.94478255  0.39365988
   0.31551671  0.96165981  0.53788093
   0.12812403  0.64502943  0.42127735
   0.56768793  0.97066285  0.57267771
   0.14788873  0.50765870  0.47238566
   0.03758983  0.77266476  0.60703089
   0.13726335  0.35991107  0.57746406
   0.62959761  0.47570478  0.39991434
   0.38349105  0.59465438  0.49762933
   0.41313570  0.68367092  0.42870642
   0.80486371  0.77799913  0.52734306
   0.67096548  0.37707329  0.59458805
   0.53302828  0.55679273  0.52397165
   0.22279088  0.95348274  0.60661849
   0.66955102  0.55624484  0.47548757
   0.29125736  0.45477821  0.49465327
   0.95826646  0.72027779  0.53035320
   0.41701706  0.18161848  0.63363110
   0.95905802  0.56235355  0.55049714
   0.48467891  0.30150830  0.50464998
   0.37210234  0.21378439  0.55225122
   0.75498906  0.46717736  0.53099666
   0.29402779  0.35435368  0.56566032
   0.29912608  0.70446740  0.53902565

 position of ions in cartesian coordinates  (Angst):
   8.39523000  8.72794000 17.47508060
   6.55110000  0.56464000 13.30570060
   6.75205000  8.78902000 11.09442060
  13.15950000  1.35736000 13.00733060
   1.35625000  4.11753000 13.90774060
  12.73310000 13.95810000 16.90531060
   9.40036000 12.67610000 17.33615060
   0.65301800  0.42941700 14.84334060
   9.08735000 11.84160000 11.67195060
   5.64964000  5.52578000 12.35595060
   0.03567530 12.77190000 11.50395060
  12.00830000 13.55800000 14.56117060
   2.01688000  1.30862000 11.28279060
   3.49792000 12.07030000 13.93533060
   3.92028000 10.23170000 10.71544660
   9.42409000  3.17377000 10.52895660
   9.48694000 14.06410000 12.18518060
  13.67900000  4.05059000 14.44317060
   1.63801000 12.93020000 15.38380060
  12.46690000  4.41361000 10.98971060
   7.52701000  0.95269400 12.21418060
  13.24120000  7.88584000 10.00000000
   6.63281000  6.72545000 10.70024360
   8.34786000  9.72942000 15.88511060
  12.43870000  2.94737000 12.88313060
   4.25525000  1.52666000 13.89442060
  12.53320000  9.83839000 11.18969060
  10.69680000 10.24040000 12.70863060
  14.02410000  1.37670000 16.65525060
   6.01599000  0.73071100 10.38116360
  13.57790000  6.16100000 11.68288060
   2.38218000  4.85522000 10.05964260
   5.65958000 13.02970000 10.72813460
  10.51050000  5.20366000 10.03183660
   6.82858000 11.96460000 12.43507060
   4.36641000  1.76960000 11.51890060
   2.01238000  1.85026000 13.58958060
   8.29435000  3.08855000 12.53231060
  10.31620000 10.94780000 16.26454060
  10.63560000  3.33353000 15.91251060
  13.06820000  6.41200000 13.87272060
   3.29149000  8.82885000 16.26362060
   7.95623000  1.21349000 17.57008060
   5.97172000  6.30533000 16.81023060
  10.06290000  0.21340800 14.13589060
  14.50320000 10.64460000 12.38340060
   6.39445000 10.98250000 15.96209060
  10.37970000  2.45351000 13.74549060
  13.67160000 14.41330000 13.11289060
   7.71641000  5.99886000 15.36385060
   1.25573000  5.51676000 11.99028060
   1.63789000  7.46020000 15.39304060
   3.72659000 12.36260000 11.56626060
   6.53960000 12.84640000 14.66059060
  12.04820000  7.99276000 16.44719060
  12.85290000  3.36528000 16.46017060
  10.27250000  0.81971400 10.26820960
   4.67333000  4.01123000 10.88312460
   2.02631000 13.72620000 10.85323460
   4.58396000 13.97140000 14.82942060
   1.86144000  9.37126000 11.61465060
   8.24761000 14.10220000 15.78877060
   2.14859000  7.37548000 13.02371060
   0.54612100 11.22560000 16.73589060
   1.99422000  5.22894000 15.92073060
   9.14706000  6.91124000 11.02567060
   5.57152000  8.63939000 13.71968060
   6.00221000  9.93266000 11.81947060
  11.69340000 11.30310000 14.53889060
   9.74807000  5.47828000 16.39284060
   7.74406000  8.08932000 14.44594060
   3.23680000 13.85260000 16.72452060
   9.72752000  8.08136000 13.10923060
   4.23151000  6.60721000 13.63763060
  13.92210000 10.46450000 14.62188060
   6.05860000  2.63863000 17.46926060
  13.93360000  8.17011000 15.17725060
   7.04162000  4.38044000 13.91324060
   5.40606000  3.10595000 15.22561060
  10.96880000  6.78735000 14.63962060
   4.27176000  5.14820000 15.59530060
   4.34583000 10.23480000 14.86098060



--------------------------------------------------------------------------------------------------------


 k-point     1 :   0.0000 0.0000 0.0000  plane waves:  549075
 k-point     2 :   0.5000 0.0000 0.0000  plane waves:  549282
 k-point     3 :   0.0000 0.5000 0.0000  plane waves:  549282
 k-point     4 :   0.5000 0.5000 0.0000  plane waves:  549348

 maximum and minimum number of plane-waves per node :     34410    34270

 maximum number of plane-waves:    549348
 maximum index in each direction: 
   IXMAX=   41   IYMAX=   41   IZMAX=   77
   IXMIN=  -41   IYMIN=  -41   IZMIN=  -77


 parallel 3D FFT for wavefunctions:
    minimum data exchange during FFTs selected (reduces bandwidth)
 parallel 3D FFT for charge:
    minimum data exchange during FFTs selected (reduces bandwidth)


 total amount of memory used by VASP MPI-rank0   340497. kBytes
=======================================================================

   base                                    :      30000. kBytes
   nonl-proj                               :      62628. kBytes
   fftplans                                :     108846. kBytes
   grid                                    :      83991. kBytes
   one-center                              :         18. kBytes
   wavefun                                 :      55014. kBytes

     INWAV:  cpu time     16.3727: real time     16.3831
 Broyden mixing: mesh for mixing (old mesh)
   NGX = 83   NGY = 83   NGZ =155
  (NGX  =336   NGY  =336   NGZ  =640)
  gives a total of ****** points

 initial charge density was supplied:
 number of electron     315.9999999 magnetization 
 keeping initial charge density in first step


--------------------------------------------------------------------------------------------------------


 Maximum index for augmentation-charges        11253 (set IRDMAX)


--------------------------------------------------------------------------------------------------------


 First call to EWALD:  gamma=   0.099
 Maximum number of real-space cells   3x   3x   2
 Maximum number of reciprocal cells   2x   2x   4

    FEWALD:  cpu time      0.0153: real time      0.0160


--------------------------------------- Ionic step        1  -------------------------------------------




--------------------------------------- Iteration      1(   1)  ---------------------------------------


    POTLOK:  cpu time      2.2053: real time      2.2060
    SETDIJ:  cpu time      1.5675: real time      1.5691
    EDDIAG:  cpu time     33.2187: real time     33.2400
     EDDAV:  cpu time    148.8164: real time    148.8994
       DOS:  cpu time      0.0089: real time      0.0090
    CHARGE:  cpu time     19.7162: real time     19.7527
    MIXING:  cpu time      0.0512: real time      0.0520
    --------------------------------------------
      LOOP:  cpu time    205.5844: real time    205.7282

 eigenvalue-minimisations  :  1600
 total energy-change (2. order) :-0.7819226E+03  (-0.9015806E+00)
 number of electron     315.9999999 magnetization 
 augmentation part      -17.9529388 magnetization 

 Broyden mixing:
  rms(total) = 0.10483E+01    rms(broyden)= 0.25214E+02
  rms(prec ) = 0.10795E+01
  weight for this iteration     100.00
  WARNING: grid for Broyden might be to small

 Free energy of the ion-electron system (eV)
  ---------------------------------------------------
  alpha Z        PSCENC =        36.17436600
  Ewald energy   TEWEN  =     43844.93421723
  -Hartree energ DENC   =    -50869.37041261
  -exchange      EXHF   =         0.00000000
  -V(xc)+E(xc)   XCENC  =      -383.86564081
  PAW double counting   =     27410.98823694   -26632.88510316
  entropy T*S    EENTRO =        -0.21949955
  eigenvalues    EBANDS =     -2276.84537459
  atomic energy  EATOM  =      8089.16663890
  Solvation  Ediel_sol  =         0.00000000
  ---------------------------------------------------
  free energy    TOTEN  =      -781.92257163 eV

  energy without entropy =     -781.70307208  energy(sigma->0) =     -781.81282186


--------------------------------------------------------------------------------------------------------




--------------------------------------- Iteration      1(   2)  ---------------------------------------


    POTLOK:  cpu time      2.1708: real time      2.1986
    SETDIJ:  cpu time      1.5604: real time      1.5614
    EDDIAG:  cpu time     33.1678: real time     33.1883
     EDDAV:  cpu time    149.8839: real time    149.9691
       DOS:  cpu time      0.0025: real time      0.0025
    CHARGE:  cpu time     19.6446: real time     19.6615
    MIXING:  cpu time      0.0449: real time      0.0452
    --------------------------------------------
      LOOP:  cpu time    206.4749: real time    206.6266

 eigenvalue-minimisations  :  1624
 total energy-change (2. order) : 0.5635510E+02  (-0.8479417E+00)
 number of electron     315.9999999 magnetization 
 augmentation part      -17.8939289 magnetization 

 Broyden mixing:
  rms(total) = 0.71197E+00    rms(broyden)= 0.14594E+02
  rms(prec ) = 0.72812E+00
  weight for this iteration     100.00
  WARNING: grid for Broyden might be to small

 eigenvalues of (default mixing * dielectric matrix)
  average eigenvalue GAMMA=   0.6335
  0.6335

 Free energy of the ion-electron system (eV)
  ---------------------------------------------------
  alpha Z        PSCENC =        36.17436600
  Ewald energy   TEWEN  =     43844.93421723
  -Hartree energ DENC   =    -50857.93162839
  -exchange      EXHF   =         0.00000000
  -V(xc)+E(xc)   XCENC  =      -375.62860968
  PAW double counting   =     32686.61640019   -31908.32437252
  entropy T*S    EENTRO =        -0.20965321
  eigenvalues    EBANDS =     -2240.36482982
  atomic energy  EATOM  =      8089.16663890
  Solvation  Ediel_sol  =         0.00000000
  ---------------------------------------------------
  free energy    TOTEN  =      -725.56747129 eV

  energy without entropy =     -725.35781808  energy(sigma->0) =     -725.46264469


--------------------------------------------------------------------------------------------------------




--------------------------------------- Iteration      1(   3)  ---------------------------------------


    POTLOK:  cpu time      2.1669: real time      2.2011
    SETDIJ:  cpu time      1.5481: real time      1.5491
    EDDIAG:  cpu time     33.2190: real time     33.2393
     EDDAV:  cpu time    148.6478: real time    148.7354
       DOS:  cpu time      0.0041: real time      0.0041
    CHARGE:  cpu time     19.6217: real time     19.6375
    MIXING:  cpu time      0.0419: real time      0.0419
    --------------------------------------------
      LOOP:  cpu time    205.2494: real time    205.4084

 eigenvalue-minimisations  :  1600
 total energy-change (2. order) :-0.2914419E+01  (-0.6921588E+00)
 number of electron     315.9999999 magnetization 
 augmentation part      -17.8396888 magnetization 

 Broyden mixing:
  rms(total) = 0.29460E+00    rms(broyden)= 0.21481E+02
  rms(prec ) = 0.36724E+00
  weight for this iteration     100.00
  WARNING: grid for Broyden might be to small

 eigenvalues of (default mixing * dielectric matrix)
  average eigenvalue GAMMA=   0.8002
  0.9736  0.6268

 Free energy of the ion-electron system (eV)
  ---------------------------------------------------
  alpha Z        PSCENC =        36.17436600
  Ewald energy   TEWEN  =     43844.93421723
  -Hartree energ DENC   =    -50854.39959852
  -exchange      EXHF   =         0.00000000
  -V(xc)+E(xc)   XCENC  =      -378.72825089
  PAW double counting   =     38926.56925781   -38148.41824078
  entropy T*S    EENTRO =        -0.21480247
  eigenvalues    EBANDS =     -2243.56547776
  atomic energy  EATOM  =      8089.16663890
  Solvation  Ediel_sol  =         0.00000000
  ---------------------------------------------------
  free energy    TOTEN  =      -728.48189046 eV

  energy without entropy =     -728.26708799  energy(sigma->0) =     -728.37448923


--------------------------------------------------------------------------------------------------------




--------------------------------------- Iteration      1(   4)  ---------------------------------------


    POTLOK:  cpu time      2.1990: real time      2.2011
    SETDIJ:  cpu time      1.5546: real time      1.5555
    EDDIAG:  cpu time     33.1908: real time     33.2107
     EDDAV:  cpu time    153.5246: real time    153.6150
       DOS:  cpu time      0.0022: real time      0.0022
    CHARGE:  cpu time     19.6276: real time     19.6447
    MIXING:  cpu time      0.0424: real time      0.0424
    --------------------------------------------
      LOOP:  cpu time    210.1412: real time    210.2715

 eigenvalue-minimisations  :  1696
 total energy-change (2. order) : 0.3469224E+00  (-0.7664413E-01)
 number of electron     315.9999999 magnetization 
 augmentation part      -17.8313291 magnetization 

 Broyden mixing:
  rms(total) = 0.58792E-01    rms(broyden)= 0.21709E+01
  rms(prec ) = 0.82970E-01
  weight for this iteration     100.00
  WARNING: grid for Broyden might be to small

 eigenvalues of (default mixing * dielectric matrix)
  average eigenvalue GAMMA=   1.0256
  1.7771  0.6833  0.6165

 Free energy of the ion-electron system (eV)
  ---------------------------------------------------
  alpha Z        PSCENC =        36.17436600
  Ewald energy   TEWEN  =     43844.93421723
  -Hartree energ DENC   =    -50854.24511279
  -exchange      EXHF   =         0.00000000
  -V(xc)+E(xc)   XCENC  =      -379.45849663
  PAW double counting   =     43746.96766621   -42968.88028526
  entropy T*S    EENTRO =        -0.20534824
  eigenvalues    EBANDS =     -2242.58861343
  atomic energy  EATOM  =      8089.16663890
  Solvation  Ediel_sol  =         0.00000000
  ---------------------------------------------------
  free energy    TOTEN  =      -728.13496801 eV

  energy without entropy =     -727.92961977  energy(sigma->0) =     -728.03229389


--------------------------------------------------------------------------------------------------------




--------------------------------------- Iteration      1(   5)  ---------------------------------------


    POTLOK:  cpu time      2.1764: real time      2.2040
    SETDIJ:  cpu time      1.5584: real time      1.5591
    EDDIAG:  cpu time     33.2315: real time     33.2525
     EDDAV:  cpu time    167.0969: real time    167.1894
       DOS:  cpu time      0.0023: real time      0.0023
    CHARGE:  cpu time     19.6491: real time     19.6654
    MIXING:  cpu time      0.0420: real time      0.0429
    --------------------------------------------
      LOOP:  cpu time    223.7566: real time    223.9156

 eigenvalue-minimisations  :  1960
 total energy-change (2. order) :-0.4490761E-01  (-0.1400755E-01)
 number of electron     315.9999999 magnetization 
 augmentation part      -17.8347050 magnetization 

 Broyden mixing:
  rms(total) = 0.72313E-01    rms(broyden)= 0.75524E+00
  rms(prec ) = 0.11695E+00
  weight for this iteration     100.00
  WARNING: grid for Broyden might be to small

 eigenvalues of (default mixing * dielectric matrix)
  average eigenvalue GAMMA=   1.0045
  2.3430  0.7458  0.6206  0.3086

 Free energy of the ion-electron system (eV)
  ---------------------------------------------------
  alpha Z        PSCENC =        36.17436600
  Ewald energy   TEWEN  =     43844.93421723
  -Hartree energ DENC   =    -50854.66916823
  -exchange      EXHF   =         0.00000000
  -V(xc)+E(xc)   XCENC  =      -380.38974137
  PAW double counting   =     43369.76983611   -42591.65882676
  entropy T*S    EENTRO =        -0.22086431
  eigenvalues    EBANDS =     -2241.28633320
  atomic energy  EATOM  =      8089.16663890
  Solvation  Ediel_sol  =         0.00000000
  ---------------------------------------------------
  free energy    TOTEN  =      -728.17987562 eV

  energy without entropy =     -727.95901131  energy(sigma->0) =     -728.06944346


--------------------------------------------------------------------------------------------------------




--------------------------------------- Iteration      1(   6)  ---------------------------------------


    POTLOK:  cpu time      2.1686: real time      2.1998
    SETDIJ:  cpu time      1.5519: real time      1.5525
    EDDIAG:  cpu time     33.2755: real time     33.2952
     EDDAV:  cpu time    158.1455: real time    158.2309
       DOS:  cpu time      0.0019: real time      0.0019
    CHARGE:  cpu time     19.6100: real time     19.6266
    MIXING:  cpu time      0.0464: real time      0.0464
    --------------------------------------------
      LOOP:  cpu time    214.7998: real time    214.9532

 eigenvalue-minimisations  :  1784
 total energy-change (2. order) : 0.1395308E-01  (-0.9073723E-02)
 number of electron     315.9999999 magnetization 
 augmentation part      -17.8338721 magnetization 

 Broyden mixing:
  rms(total) = 0.31517E-01    rms(broyden)= 0.31474E+00
  rms(prec ) = 0.36310E-01
  weight for this iteration     100.00
  WARNING: grid for Broyden might be to small

 eigenvalues of (default mixing * dielectric matrix)
  average eigenvalue GAMMA=   0.9550
  2.5166  0.7559  0.6145  0.6145  0.2737

 Free energy of the ion-electron system (eV)
  ---------------------------------------------------
  alpha Z        PSCENC =        36.17436600
  Ewald energy   TEWEN  =     43844.93421723
  -Hartree energ DENC   =    -50855.41926566
  -exchange      EXHF   =         0.00000000
  -V(xc)+E(xc)   XCENC  =      -380.64177822
  PAW double counting   =     43233.76279875   -42455.64256250
  entropy T*S    EENTRO =        -0.20790934
  eigenvalues    EBANDS =     -2240.29242772
  atomic energy  EATOM  =      8089.16663890
  Solvation  Ediel_sol  =         0.00000000
  ---------------------------------------------------
  free energy    TOTEN  =      -728.16592254 eV

  energy without entropy =     -727.95801320  energy(sigma->0) =     -728.06196787


--------------------------------------------------------------------------------------------------------




--------------------------------------- Iteration      1(   7)  ---------------------------------------


    POTLOK:  cpu time      2.1869: real time      2.1978
    SETDIJ:  cpu time      1.5483: real time      1.5490
    EDDIAG:  cpu time     33.2165: real time     33.2363
     EDDAV:  cpu time    151.8370: real time    151.9246
       DOS:  cpu time      0.0030: real time      0.0030
    CHARGE:  cpu time     19.6148: real time     19.6322
    MIXING:  cpu time      0.0443: real time      0.0443
    --------------------------------------------
      LOOP:  cpu time    208.4508: real time    208.5873

 eigenvalue-minimisations  :  1664
 total energy-change (2. order) : 0.1292355E-02  (-0.3596699E-02)
 number of electron     315.9999999 magnetization 
 augmentation part      -17.8323958 magnetization 

 Broyden mixing:
  rms(total) = 0.20009E-01    rms(broyden)= 0.14070E+00
  rms(prec ) = 0.22812E-01
  weight for this iteration     100.00
  WARNING: grid for Broyden might be to small

 eigenvalues of (default mixing * dielectric matrix)
  average eigenvalue GAMMA=   0.9625
  2.5684  1.0409  0.7026  0.6337  0.5311  0.2982

 Free energy of the ion-electron system (eV)
  ---------------------------------------------------
  alpha Z        PSCENC =        36.17436600
  Ewald energy   TEWEN  =     43844.93421723
  -Hartree energ DENC   =    -50854.89538046
  -exchange      EXHF   =         0.00000000
  -V(xc)+E(xc)   XCENC  =      -380.55886551
  PAW double counting   =     43208.92943547   -42430.80152999
  entropy T*S    EENTRO =        -0.20979665
  eigenvalues    EBANDS =     -2240.90371519
  atomic energy  EATOM  =      8089.16663890
  Solvation  Ediel_sol  =         0.00000000
  ---------------------------------------------------
  free energy    TOTEN  =      -728.16463019 eV

  energy without entropy =     -727.95483354  energy(sigma->0) =     -728.05973186


--------------------------------------------------------------------------------------------------------




--------------------------------------- Iteration      1(   8)  ---------------------------------------


    POTLOK:  cpu time      2.1703: real time      2.2002
    SETDIJ:  cpu time      1.5567: real time      1.5581
    EDDIAG:  cpu time     33.2629: real time     33.2833
     EDDAV:  cpu time    155.7991: real time    155.8857
       DOS:  cpu time      0.0033: real time      0.0033
    CHARGE:  cpu time     19.6412: real time     19.6583
    MIXING:  cpu time      0.0453: real time      0.0453
    --------------------------------------------
      LOOP:  cpu time    212.4788: real time    212.6342

 eigenvalue-minimisations  :  1736
 total energy-change (2. order) :-0.8890200E-03  (-0.7334306E-03)
 number of electron     315.9999999 magnetization 
 augmentation part      -17.8303995 magnetization 

 Broyden mixing:
  rms(total) = 0.64361E-02    rms(broyden)= 0.73758E-01
  rms(prec ) = 0.79351E-02
  weight for this iteration     100.00
  WARNING: grid for Broyden might be to small

 eigenvalues of (default mixing * dielectric matrix)
  average eigenvalue GAMMA=   0.9580
  2.5641  1.2275  0.8051  0.3000  0.6423  0.6423  0.5248

 Free energy of the ion-electron system (eV)
  ---------------------------------------------------
  alpha Z        PSCENC =        36.17436600
  Ewald energy   TEWEN  =     43844.93421723
  -Hartree energ DENC   =    -50854.15115469
  -exchange      EXHF   =         0.00000000
  -V(xc)+E(xc)   XCENC  =      -380.31821285
  PAW double counting   =     43224.68799072   -42446.54743900
  entropy T*S    EENTRO =        -0.21115776
  eigenvalues    EBANDS =     -2241.90076777
  atomic energy  EATOM  =      8089.16663890
  Solvation  Ediel_sol  =         0.00000000
  ---------------------------------------------------
  free energy    TOTEN  =      -728.16551921 eV

  energy without entropy =     -727.95436144  energy(sigma->0) =     -728.05994032


--------------------------------------------------------------------------------------------------------




--------------------------------------- Iteration      1(   9)  ---------------------------------------


    POTLOK:  cpu time      2.1760: real time      2.2031
    SETDIJ:  cpu time      1.5582: real time      1.5590
    EDDIAG:  cpu time     33.2328: real time     33.2550
     EDDAV:  cpu time    158.5625: real time    158.6545
       DOS:  cpu time      0.0039: real time      0.0039
    CHARGE:  cpu time     19.6284: real time     19.6444
    MIXING:  cpu time      0.0463: real time      0.0463
    --------------------------------------------
      LOOP:  cpu time    215.2084: real time    215.3664

 eigenvalue-minimisations  :  1792
 total energy-change (2. order) :-0.8457706E-04  (-0.1390058E-03)
 number of electron     315.9999999 magnetization 
 augmentation part      -17.8305780 magnetization 

 Broyden mixing:
  rms(total) = 0.31139E-02    rms(broyden)= 0.28158E-01
  rms(prec ) = 0.41260E-02
  weight for this iteration     100.00
  WARNING: grid for Broyden might be to small

 eigenvalues of (default mixing * dielectric matrix)
  average eigenvalue GAMMA=   1.0036
  2.5372  1.8176  0.9048  0.2983  0.7290  0.6456  0.5943  0.5025

 Free energy of the ion-electron system (eV)
  ---------------------------------------------------
  alpha Z        PSCENC =        36.17436600
  Ewald energy   TEWEN  =     43844.93421723
  -Hartree energ DENC   =    -50853.77940810
  -exchange      EXHF   =         0.00000000
  -V(xc)+E(xc)   XCENC  =      -380.32720769
  PAW double counting   =     43250.50478792   -42472.36045586
  entropy T*S    EENTRO =        -0.21125963
  eigenvalues    EBANDS =     -2242.26728257
  atomic energy  EATOM  =      8089.16663890
  Solvation  Ediel_sol  =         0.00000000
  ---------------------------------------------------
  free energy    TOTEN  =      -728.16560378 eV

  energy without entropy =     -727.95434415  energy(sigma->0) =     -728.05997397


--------------------------------------------------------------------------------------------------------




--------------------------------------- Iteration      1(  10)  ---------------------------------------


    POTLOK:  cpu time      2.1687: real time      2.2005
    SETDIJ:  cpu time      1.5628: real time      1.5646
    EDDIAG:  cpu time     33.2564: real time     33.2774
     EDDAV:  cpu time    154.1079: real time    154.1925
       DOS:  cpu time      0.0051: real time      0.0051
    CHARGE:  cpu time     19.6368: real time     19.6547
    MIXING:  cpu time      0.0466: real time      0.0466
    --------------------------------------------
      LOOP:  cpu time    210.7841: real time    210.9412

 eigenvalue-minimisations  :  1704
 total energy-change (2. order) : 0.9510077E-05  (-0.5826170E-04)
 number of electron     315.9999999 magnetization 
 augmentation part      -17.8307823 magnetization 

 Broyden mixing:
  rms(total) = 0.18166E-02    rms(broyden)= 0.21661E-01
  rms(prec ) = 0.21921E-02
  weight for this iteration     100.00
  WARNING: grid for Broyden might be to small

 eigenvalues of (default mixing * dielectric matrix)
  average eigenvalue GAMMA=   1.0761
  2.5596  2.5596  1.0074  0.9037  0.2976  0.6737  0.6276  0.5279  0.5279

 Free energy of the ion-electron system (eV)
  ---------------------------------------------------
  alpha Z        PSCENC =        36.17436600
  Ewald energy   TEWEN  =     43844.93421723
  -Hartree energ DENC   =    -50853.47560259
  -exchange      EXHF   =         0.00000000
  -V(xc)+E(xc)   XCENC  =      -380.34679083
  PAW double counting   =     43256.86370717   -42478.71797602
  entropy T*S    EENTRO =        -0.21112103
  eigenvalues    EBANDS =     -2242.55303312
  atomic energy  EATOM  =      8089.16663890
  Solvation  Ediel_sol  =         0.00000000
  ---------------------------------------------------
  free energy    TOTEN  =      -728.16559427 eV

  energy without entropy =     -727.95447324  energy(sigma->0) =     -728.06003376


--------------------------------------------------------------------------------------------------------




--------------------------------------- Iteration      1(  11)  ---------------------------------------


    POTLOK:  cpu time      2.1672: real time      2.2001
    SETDIJ:  cpu time      1.5603: real time      1.5615
    EDDIAG:  cpu time     33.2560: real time     33.2779
     EDDAV:  cpu time    152.7832: real time    152.8712
       DOS:  cpu time      0.0038: real time      0.0038
    CHARGE:  cpu time     19.6494: real time     19.6675
    MIXING:  cpu time      0.0468: real time      0.0468
    --------------------------------------------
      LOOP:  cpu time    209.4668: real time    209.6288

 eigenvalue-minimisations  :  1680
 total energy-change (2. order) :-0.1309120E-03  (-0.4130646E-04)
 number of electron     315.9999999 magnetization 
 augmentation part      -17.8309160 magnetization 

 Broyden mixing:
  rms(total) = 0.95364E-03    rms(broyden)= 0.16620E-01
  rms(prec ) = 0.13202E-02
  weight for this iteration     100.00
  WARNING: grid for Broyden might be to small

 eigenvalues of (default mixing * dielectric matrix)
  average eigenvalue GAMMA=   1.0795
  2.6672  2.6672  1.0195  1.0195  0.2976  0.8037  0.6513  0.6285  0.5203  0.5203

 Free energy of the ion-electron system (eV)
  ---------------------------------------------------
  alpha Z        PSCENC =        36.17436600
  Ewald energy   TEWEN  =     43844.93421723
  -Hartree energ DENC   =    -50853.09112320
  -exchange      EXHF   =         0.00000000
  -V(xc)+E(xc)   XCENC  =      -380.36130455
  PAW double counting   =     43252.52612482   -42474.37889140
  entropy T*S    EENTRO =        -0.21099572
  eigenvalues    EBANDS =     -2242.92475727
  atomic energy  EATOM  =      8089.16663890
  Solvation  Ediel_sol  =         0.00000000
  ---------------------------------------------------
  free energy    TOTEN  =      -728.16572519 eV

  energy without entropy =     -727.95472947  energy(sigma->0) =     -728.06022733


--------------------------------------------------------------------------------------------------------




--------------------------------------- Iteration      1(  12)  ---------------------------------------


    POTLOK:  cpu time      2.2438: real time      2.2756
    SETDIJ:  cpu time      1.5619: real time      1.5626
    EDDIAG:  cpu time     33.2191: real time     33.2409
     EDDAV:  cpu time    152.0118: real time    152.0961
       DOS:  cpu time      0.0018: real time      0.0018
    CHARGE:  cpu time     19.6158: real time     19.6321
    MIXING:  cpu time      0.0479: real time      0.0479
    --------------------------------------------
      LOOP:  cpu time    208.7022: real time    208.8570

 eigenvalue-minimisations  :  1664
 total energy-change (2. order) :-0.1876397E-03  (-0.3330068E-04)
 number of electron     315.9999999 magnetization 
 augmentation part      -17.8310452 magnetization 

 Broyden mixing:
  rms(total) = 0.48097E-03    rms(broyden)= 0.49676E-02
  rms(prec ) = 0.75688E-03
  weight for this iteration     100.00
  WARNING: grid for Broyden might be to small

 eigenvalues of (default mixing * dielectric matrix)
  average eigenvalue GAMMA=   1.1260
  2.7390  2.7390  1.5529  1.0707  0.9339  0.2976  0.7520  0.6353  0.6196  0.5228
  0.5228

 Free energy of the ion-electron system (eV)
  ---------------------------------------------------
  alpha Z        PSCENC =        36.17436600
  Ewald energy   TEWEN  =     43844.93421723
  -Hartree energ DENC   =    -50852.70447447
  -exchange      EXHF   =         0.00000000
  -V(xc)+E(xc)   XCENC  =      -380.37062812
  PAW double counting   =     43250.75709036   -42472.60909983
  entropy T*S    EENTRO =        -0.21103039
  eigenvalues    EBANDS =     -2243.30299253
  atomic energy  EATOM  =      8089.16663890
  Solvation  Ediel_sol  =         0.00000000
  ---------------------------------------------------
  free energy    TOTEN  =      -728.16591283 eV

  energy without entropy =     -727.95488243  energy(sigma->0) =     -728.06039763


--------------------------------------------------------------------------------------------------------




--------------------------------------- Iteration      1(  13)  ---------------------------------------


    POTLOK:  cpu time      2.1920: real time      2.2029
    SETDIJ:  cpu time      1.6104: real time      1.6113
    EDDIAG:  cpu time     33.2198: real time     33.2402
     EDDAV:  cpu time    152.1054: real time    152.1930
       DOS:  cpu time      0.0033: real time      0.0033
    CHARGE:  cpu time     19.6316: real time     19.6498
    MIXING:  cpu time      0.0496: real time      0.0496
    --------------------------------------------
      LOOP:  cpu time    208.8122: real time    208.9502

 eigenvalue-minimisations  :  1664
 total energy-change (2. order) :-0.1735445E-03  (-0.2147659E-04)
 number of electron     315.9999999 magnetization 
 augmentation part      -17.8311224 magnetization 

 Broyden mixing:
  rms(total) = 0.37345E-03    rms(broyden)= 0.33341E-02
  rms(prec ) = 0.60023E-03
  weight for this iteration     100.00
  WARNING: grid for Broyden might be to small

 eigenvalues of (default mixing * dielectric matrix)
  average eigenvalue GAMMA=   1.1369
  2.7996  2.7996  1.9124  0.9650  0.9650  0.9423  0.2976  0.5283  0.5283  0.6656
  0.6196  0.6196

 Free energy of the ion-electron system (eV)
  ---------------------------------------------------
  alpha Z        PSCENC =        36.17436600
  Ewald energy   TEWEN  =     43844.93421723
  -Hartree energ DENC   =    -50852.46238588
  -exchange      EXHF   =         0.00000000
  -V(xc)+E(xc)   XCENC  =      -380.37691359
  PAW double counting   =     43251.01022891   -42472.86241480
  entropy T*S    EENTRO =        -0.21106414
  eigenvalues    EBANDS =     -2243.53875901
  atomic energy  EATOM  =      8089.16663890
  Solvation  Ediel_sol  =         0.00000000
  ---------------------------------------------------
  free energy    TOTEN  =      -728.16608637 eV

  energy without entropy =     -727.95502223  energy(sigma->0) =     -728.06055430


--------------------------------------------------------------------------------------------------------




--------------------------------------- Iteration      1(  14)  ---------------------------------------


    POTLOK:  cpu time      2.1965: real time      2.1994
    SETDIJ:  cpu time      1.5620: real time      1.5628
    EDDIAG:  cpu time     33.2623: real time     33.2850
     EDDAV:  cpu time    151.9779: real time    152.0651
       DOS:  cpu time      0.0044: real time      0.0044
    CHARGE:  cpu time     19.6398: real time     19.6564
    MIXING:  cpu time      0.0497: real time      0.0497
    --------------------------------------------
      LOOP:  cpu time    208.6926: real time    208.8229

 eigenvalue-minimisations  :  1664
 total energy-change (2. order) :-0.1771972E-03  (-0.2611870E-04)
 number of electron     315.9999999 magnetization 
 augmentation part      -17.8311829 magnetization 

 Broyden mixing:
  rms(total) = 0.23135E-03    rms(broyden)= 0.18409E-02
  rms(prec ) = 0.39258E-03
  weight for this iteration     100.00
  WARNING: grid for Broyden might be to small

 eigenvalues of (default mixing * dielectric matrix)
  average eigenvalue GAMMA=   1.1485
  2.9490  2.7970  2.1183  1.1714  0.9598  0.9598  0.2976  0.7930  0.6333  0.6333
  0.5337  0.5337  0.5502

 Free energy of the ion-electron system (eV)
  ---------------------------------------------------
  alpha Z        PSCENC =        36.17436600
  Ewald energy   TEWEN  =     43844.93421723
  -Hartree energ DENC   =    -50852.20006447
  -exchange      EXHF   =         0.00000000
  -V(xc)+E(xc)   XCENC  =      -380.38176406
  PAW double counting   =     43251.14472858   -42472.99725238
  entropy T*S    EENTRO =        -0.21104956
  eigenvalues    EBANDS =     -2243.79608383
  atomic energy  EATOM  =      8089.16663890
  Solvation  Ediel_sol  =         0.00000000
  ---------------------------------------------------
  free energy    TOTEN  =      -728.16626357 eV

  energy without entropy =     -727.95521401  energy(sigma->0) =     -728.06073879


--------------------------------------------------------------------------------------------------------




--------------------------------------- Iteration      1(  15)  ---------------------------------------


    POTLOK:  cpu time      2.1603: real time      2.1908
    SETDIJ:  cpu time      1.5642: real time      1.5655
    EDDIAG:  cpu time     33.2514: real time     33.2724
     EDDAV:  cpu time    153.7259: real time    153.8142
       DOS:  cpu time      0.0029: real time      0.0029
    CHARGE:  cpu time     19.6333: real time     19.6520
    MIXING:  cpu time      0.0509: real time      0.0509
    --------------------------------------------
      LOOP:  cpu time    210.3889: real time    210.5487

 eigenvalue-minimisations  :  1696
 total energy-change (2. order) :-0.2093509E-03  (-0.3297202E-04)
 number of electron     315.9999999 magnetization 
 augmentation part      -17.8312464 magnetization 

 Broyden mixing:
  rms(total) = 0.16867E-03    rms(broyden)= 0.21544E-02
  rms(prec ) = 0.26677E-03
  weight for this iteration     100.00
  WARNING: grid for Broyden might be to small

 eigenvalues of (default mixing * dielectric matrix)
  average eigenvalue GAMMA=   1.1875
  3.2610  2.7127  2.4075  1.4814  1.0739  0.8944  0.8944  0.2976  0.7393  0.6484
  0.6201  0.5328  0.5328  0.5284

 Free energy of the ion-electron system (eV)
  ---------------------------------------------------
  alpha Z        PSCENC =        36.17436600
  Ewald energy   TEWEN  =     43844.93421723
  -Hartree energ DENC   =    -50851.92326657
  -exchange      EXHF   =         0.00000000
  -V(xc)+E(xc)   XCENC  =      -380.38624026
  PAW double counting   =     43250.91948039   -42472.77238141
  entropy T*S    EENTRO =        -0.21104195
  eigenvalues    EBANDS =     -2244.06824527
  atomic energy  EATOM  =      8089.16663890
  Solvation  Ediel_sol  =         0.00000000
  ---------------------------------------------------
  free energy    TOTEN  =      -728.16647292 eV

  energy without entropy =     -727.95543097  energy(sigma->0) =     -728.06095194


--------------------------------------------------------------------------------------------------------




--------------------------------------- Iteration      1(  16)  ---------------------------------------


    POTLOK:  cpu time      2.2100: real time      2.2117
    SETDIJ:  cpu time      1.5654: real time      1.5662
    EDDIAG:  cpu time     33.2252: real time     33.2449
     EDDAV:  cpu time    152.3939: real time    152.4825
       DOS:  cpu time      0.0039: real time      0.0039
    CHARGE:  cpu time     19.6258: real time     19.6436
    MIXING:  cpu time      0.0515: real time      0.0516
    --------------------------------------------
      LOOP:  cpu time    209.0758: real time    209.2044

 eigenvalue-minimisations  :  1672
 total energy-change (2. order) :-0.9514981E-04  (-0.1636118E-04)
 number of electron     315.9999999 magnetization 
 augmentation part      -17.8312819 magnetization 

 Broyden mixing:
  rms(total) = 0.11110E-03    rms(broyden)= 0.16336E-02
  rms(prec ) = 0.16948E-03
  weight for this iteration     100.00
  WARNING: grid for Broyden might be to small

 eigenvalues of (default mixing * dielectric matrix)
  average eigenvalue GAMMA=   1.2438
  3.7894  2.6716  2.6716  1.7994  1.0505  1.0505  0.8846  0.8846  0.2976  0.7029
  0.6400  0.6175  0.5329  0.5329  0.5310

 Free energy of the ion-electron system (eV)
  ---------------------------------------------------
  alpha Z        PSCENC =        36.17436600
  Ewald energy   TEWEN  =     43844.93421723
  -Hartree energ DENC   =    -50851.76924587
  -exchange      EXHF   =         0.00000000
  -V(xc)+E(xc)   XCENC  =      -380.38797668
  PAW double counting   =     43251.21693606   -42473.07004408
  entropy T*S    EENTRO =        -0.21105556
  eigenvalues    EBANDS =     -2244.22040408
  atomic energy  EATOM  =      8089.16663890
  Solvation  Ediel_sol  =         0.00000000
  ---------------------------------------------------
  free energy    TOTEN  =      -728.16656807 eV

  energy without entropy =     -727.95551251  energy(sigma->0) =     -728.06104029


--------------------------------------------------------------------------------------------------------




--------------------------------------- Iteration      1(  17)  ---------------------------------------


    POTLOK:  cpu time      2.1666: real time      2.1984
    SETDIJ:  cpu time      1.5579: real time      1.5591
    EDDIAG:  cpu time     33.2022: real time     33.2256
     EDDAV:  cpu time    152.0221: real time    152.1113
       DOS:  cpu time      0.0025: real time      0.0025
    CHARGE:  cpu time     19.6393: real time     19.6571
    MIXING:  cpu time      0.0531: real time      0.0531
    --------------------------------------------
      LOOP:  cpu time    208.6436: real time    208.8070

 eigenvalue-minimisations  :  1664
[...]
   -.161E+02 -.113E+02 0.330E+03   0.154E+02 0.119E+02 -.327E+03   0.172E+01 -.541E+00 -.261E+01   -.132E-04 0.243E-04 -.121E-03
   0.418E+00 -.240E+02 0.201E+03   -.123E+01 0.213E+02 -.200E+03   0.121E+01 0.420E+01 -.161E+01   0.187E-04 0.525E-04 -.121E-03
   0.753E+01 -.252E+01 0.322E+03   -.988E+01 0.311E+01 -.326E+03   0.312E+01 -.137E+01 0.417E+01   -.282E-04 0.364E-04 -.914E-04
   -.212E+02 0.131E+02 0.306E+03   0.197E+02 -.114E+02 -.302E+03   0.237E+01 -.913E+00 -.328E+01   -.259E-04 -.272E-04 -.114E-03
   0.675E+00 -.211E+02 0.317E+03   0.243E+00 0.197E+02 -.315E+03   -.128E+01 0.112E+01 -.148E+01   0.315E-04 0.398E-04 -.286E-04
   -.310E+02 0.101E+02 0.114E+03   0.315E+02 -.977E+01 -.117E+03   0.984E+00 -.549E-01 0.199E+01   -.608E-04 -.937E-04 -.219E-04
   0.902E+01 -.113E+02 0.207E+03   -.859E+01 0.102E+02 -.207E+03   -.111E+01 0.125E+01 0.332E+00   -.364E-04 0.603E-04 -.963E-04
   0.181E+02 -.103E+02 -.166E+01   -.169E+02 0.964E+01 0.283E+01   -.152E+01 0.109E+01 -.902E+00   -.135E-04 0.487E-04 -.589E-04
   -.252E+01 -.255E+02 0.102E+03   0.218E+01 0.237E+02 -.103E+03   0.147E+01 0.144E+01 0.115E+01   -.142E-05 0.801E-04 -.490E-04
   -.232E+02 0.270E+02 -.249E+03   0.213E+02 -.223E+02 0.247E+03   0.152E+01 -.568E+01 0.196E+01   -.744E-05 -.993E-04 0.232E-04
   0.188E+02 0.100E+02 -.231E+03   -.181E+02 -.866E+01 0.228E+03   -.166E+01 -.972E+00 0.231E+01   -.389E-04 0.908E-04 0.422E-04
   0.331E+01 -.609E+01 -.242E+02   -.458E+01 0.663E+01 0.237E+02   0.125E+01 -.145E+01 0.121E+01   0.121E-04 0.674E-04 -.426E-04
   0.837E+01 -.568E+01 -.284E+03   -.693E+01 0.550E+01 0.285E+03   -.159E+01 -.404E-01 0.201E+00   0.327E-04 -.323E-04 0.286E-05
   -.128E+02 -.650E+01 -.313E+03   0.148E+02 0.788E+01 0.315E+03   -.155E+01 -.976E+00 -.249E+01   -.192E-04 0.593E-04 0.115E-03
   0.850E+01 -.204E+02 -.319E+03   -.816E+01 0.207E+02 0.320E+03   -.157E+01 -.332E+00 -.107E+01   0.132E-05 0.105E-04 0.109E-04
   -.653E+01 0.165E+01 -.665E+02   0.733E+01 -.194E+01 0.630E+02   -.677E+00 0.333E+00 0.594E+01   0.221E-04 0.243E-04 -.173E-04
   0.138E+00 0.830E+00 0.133E+03   -.119E+01 0.182E+00 -.133E+03   0.104E+01 -.134E+01 -.156E+01   -.440E-04 -.734E-04 -.731E-04
   0.101E+02 0.618E+01 -.259E+03   -.992E+01 -.455E+01 0.258E+03   -.101E+01 -.146E+01 0.150E+01   -.576E-05 -.865E-04 0.216E-04
   0.338E+01 -.128E+02 -.771E+01   -.234E+01 0.122E+02 0.914E+01   -.190E+01 0.105E+01 -.135E+01   0.223E-04 0.104E-03 -.329E-04
   0.101E+02 0.800E+01 0.102E+03   -.937E+01 -.946E+01 -.975E+02   -.470E+00 -.390E+00 -.396E+01   0.164E-04 -.300E-04 -.107E-03
   -.208E+02 0.670E+01 -.169E+03   0.189E+02 -.611E+01 0.170E+03   0.231E+01 -.742E+00 0.775E-01   -.358E-04 0.179E-04 0.199E-04
   -.275E+01 0.894E+01 0.181E+03   0.394E+01 -.791E+01 -.182E+03   -.617E+00 -.121E+01 0.395E+00   -.288E-04 0.423E-04 -.910E-04
   0.163E+02 -.129E+02 -.196E+03   -.156E+02 0.127E+02 0.195E+03   -.116E+01 0.538E+00 0.195E+00   0.168E-04 0.323E-04 0.711E-05
   0.304E+02 0.289E+01 0.196E+03   -.279E+02 -.329E+01 -.199E+03   -.345E+01 0.163E+00 0.209E+01   -.476E-04 -.427E-04 -.721E-04
   -.188E+02 -.662E+01 -.999E+02   0.176E+02 0.611E+01 0.103E+03   0.229E+01 0.983E+00 -.279E+01   -.516E-05 -.962E-04 0.424E-04
   0.288E+01 -.467E+01 -.295E+03   -.264E+01 0.576E+01 0.296E+03   -.164E+01 -.562E+00 -.666E-02   -.240E-05 -.206E-05 0.182E-04
   -.117E+02 -.220E+02 -.293E+03   0.113E+02 0.229E+02 0.291E+03   0.960E+00 -.114E+01 0.303E+01   -.306E-04 0.104E-03 0.234E-04
   -.403E+02 0.254E+02 0.309E+03   0.438E+02 -.282E+02 -.313E+03   -.336E+01 0.326E+01 0.417E+01   0.599E-04 -.473E-05 -.156E-03
   -.443E+01 -.107E+02 0.275E+03   0.291E+01 0.988E+01 -.274E+03   0.234E+00 0.140E+01 -.173E+01   -.181E-04 0.540E-04 -.741E-04
   0.292E+02 0.750E+01 0.289E+03   -.288E+02 -.652E+01 -.285E+03   -.103E+01 -.265E+01 -.421E+01   -.489E-04 -.135E-04 -.772E-04
   -.364E+01 -.205E+02 -.133E+03   0.297E+01 0.189E+02 0.134E+03   0.476E+00 0.140E+01 -.106E+01   0.966E-05 -.251E-04 0.207E-04
   0.134E+02 0.779E+01 0.213E+03   -.118E+02 -.739E+01 -.212E+03   -.830E+00 -.928E+00 -.899E+00   -.747E-04 -.407E-04 -.456E-04
   0.281E+01 -.134E+02 -.192E+03   -.339E+01 0.135E+02 0.193E+03   0.109E+01 0.784E-01 -.130E+01   -.376E-04 0.221E-05 0.908E-04
   0.783E+01 -.275E+02 0.822E+02   -.805E+01 0.253E+02 -.811E+02   -.849E-01 0.292E+01 -.122E+01   -.148E-04 0.423E-04 -.555E-04
   0.248E+00 0.169E+02 -.297E+03   -.759E-01 -.185E+02 0.300E+03   -.380E+00 0.182E+01 -.393E+01   0.301E-04 -.108E-03 0.104E-04
   0.240E+02 0.224E+02 -.267E+03   -.232E+02 -.226E+02 0.267E+03   -.792E+00 -.333E+00 0.424E+00   0.235E-04 0.346E-04 0.316E-04
   -.559E+01 -.255E+02 0.246E+03   0.399E+01 0.241E+02 -.245E+03   0.105E+01 0.585E+00 -.100E+01   0.175E-04 0.380E-05 -.552E-04
   0.110E+01 0.823E+01 -.269E+01   -.840E+00 -.747E+01 0.635E+00   -.274E+00 -.140E+01 0.188E+01   -.915E-05 -.439E-04 0.205E-04
   -.213E+02 0.144E+02 0.202E+03   0.206E+02 -.147E+02 -.199E+03   -.488E+00 -.112E+01 -.218E+01   -.685E-05 -.741E-04 -.306E-04
   -.588E+01 0.689E+01 -.702E+02   0.520E+01 -.619E+01 0.704E+02   0.152E+01 -.119E+01 -.919E+00   0.593E-04 -.109E-03 -.642E-04
   -.995E+01 -.265E+01 -.278E+03   0.939E+01 0.251E+01 0.279E+03   0.138E+01 0.400E+00 -.173E+01   -.263E-04 0.256E-04 0.494E-04
   -.819E+01 -.433E+01 -.617E+02   0.895E+01 0.401E+01 0.630E+02   -.522E+00 0.316E+00 -.223E+01   -.270E-04 -.284E-04 0.161E-04
   -.551E+01 -.157E+02 -.321E+03   0.460E+01 0.156E+02 0.322E+03   0.147E+01 0.585E+00 -.614E+00   0.726E-06 -.166E-04 0.837E-04
   -.935E+01 -.695E+01 0.802E+02   0.862E+01 0.649E+01 -.781E+02   0.361E+00 0.531E+00 -.262E+01   0.694E-05 -.618E-05 -.204E-04
   0.108E+02 -.657E+01 0.593E+01   -.967E+01 0.584E+01 -.818E+01   -.115E+01 0.179E+01 0.309E+01   0.299E-04 0.310E-04 -.711E-05
   -.104E+02 -.380E+01 -.966E+02   0.987E+01 0.385E+01 0.975E+02   0.593E+00 -.386E-02 0.311E+00   0.139E-05 -.806E-04 -.101E-03
   0.199E+02 -.489E+01 -.318E+03   -.211E+02 0.503E+01 0.321E+03   0.118E+01 -.129E+00 -.284E+01   0.310E-04 0.680E-04 0.710E-04
   -.104E+02 -.826E+01 -.161E+03   0.871E+01 0.758E+01 0.161E+03   0.239E+01 0.437E+00 -.696E+00   -.814E-05 0.251E-04 -.177E-04
   -.204E+02 0.112E+02 -.255E+02   0.195E+02 -.102E+02 0.249E+02   -.185E+00 -.134E+01 0.499E+00   -.148E-04 0.102E-03 0.337E-04
   0.363E+01 0.204E+02 -.158E+03   -.385E+01 -.198E+02 0.160E+03   0.722E+00 -.210E+00 -.149E+01   -.675E-05 0.931E-04 0.518E-04
   0.120E+02 0.882E+01 -.884E+02   -.924E+01 -.779E+01 0.887E+02   -.328E+01 -.105E+01 0.111E+00   -.161E-04 0.360E-04 0.107E-04
   0.174E+02 0.113E+02 -.207E+03   -.169E+02 -.114E+02 0.208E+03   0.172E-01 0.440E+00 -.420E+00   0.371E-04 0.428E-04 0.377E-04
   0.210E+02 0.145E+01 -.133E+03   -.212E+02 -.332E+01 0.133E+03   0.126E+01 0.134E+01 0.446E+00   0.987E-06 -.836E-04 0.159E-04
 -----------------------------------------------------------------------------------------------
   -.538E+01 0.446E+01 0.253E+02   0.675E-13 -.488E-14 0.313E-12   0.538E+01 -.446E+01 -.253E+02   -.896E-04 0.120E-03 -.207E-02


 POSITION                                       TOTAL-FORCE (eV/Angst)
 -----------------------------------------------------------------------------------
      8.39523      8.72794     17.47508        -0.177178      1.449116     -2.171978
      6.55110      0.56464     13.30570         0.403503      0.093729      0.189071
      6.75205      8.78902     11.09442         0.231708      0.089105     -0.239491
     13.15950      1.35736     13.00733        -0.161037      0.679938     -0.703890
      1.35625      4.11753     13.90774         0.341481     -0.437919      0.289026
     12.73310     13.95810     16.90531        -0.367094     -0.684311     -0.538981
      9.40036     12.67610     17.33615         0.223296      0.833449      0.441089
      0.65302      0.42942     14.84334         0.168017      0.441982     -0.233500
      9.08735     11.84160     11.67195         0.014183     -0.487416      0.509535
      5.64964      5.52578     12.35595         1.135373     -1.188285     -0.073426
      0.03568     12.77190     11.50395        -0.000738      1.419981      0.434665
     12.00830     13.55800     14.56117         0.515904      0.998745      0.626678
      2.01688      1.30862     11.28279         0.663849      2.128539      0.263066
      3.49792     12.07030     13.93533        -1.512817      1.814778     -0.515784
      3.92028     10.23170     10.71545        -0.892723     -0.261764      0.301730
      9.42409      3.17377     10.52896         0.416382     -0.485129      0.171664
      9.48694     14.06410     12.18518        -0.968091      0.091030     -2.524682
     13.67900      4.05059     14.44317        -0.193425      1.161370      0.109612
      1.63801     12.93020     15.38380        -0.263095     -1.442650     -0.170306
     12.46690      4.41361     10.98971        -1.215804     -1.217667     -0.253841
      7.52701      0.95269     12.21418        -0.560419     -0.957288     -0.544145
     13.24120      7.88584     10.00000         0.291427      0.371148      0.487458
      6.63281      6.72545     10.70024         1.343882      0.605410     -0.954121
      8.34786      9.72942     15.88511         0.350577     -1.247981      3.218944
     12.43870      2.94737     12.88313        -0.384027      0.339781     -0.885633
      4.25525      1.52666     13.89442         0.606247      0.348640     -0.132117
     12.53320      9.83839     11.18969         0.467270     -0.542222      0.938973
     10.69680     10.24040     12.70863        -0.537286      0.282292     -0.954164
     14.02410      1.37670     16.65525        -0.615166     -0.397102     -0.310004
      6.01599      0.73071     10.38116         1.051795     -0.097013     -0.253806
     13.57790      6.16100     11.68288         0.448170      1.685358     -0.763184
      2.38218      4.85522     10.05964         1.002393     -0.874275      0.203622
      5.65958     13.02970     10.72813         0.943071      0.714471      0.414577
     10.51050      5.20366     10.03184        -0.478271     -0.304190      0.645619
      6.82858     11.96460     12.43507         1.466433      0.167829     -0.643085
      4.36641      1.76960     11.51890        -0.741209      0.182728     -0.207534
      2.01238      1.85026     13.58958        -0.420324      0.496972      0.195231
      8.29435      3.08855     12.53231         1.231990     -0.297042      0.183474
     10.31620     10.94780     16.26454        -0.357574     -1.266033      0.038341
     10.63560      3.33353     15.91251        -0.936531      0.422722      0.018398
     13.06820      6.41200     13.87272         0.021072     -0.983715      0.757456
      3.29149      8.82885     16.26362        -0.315259     -0.183291      0.754394
      7.95623      1.21349     17.57008         0.112545      0.320644     -0.929500
      5.97172      6.30533     16.81023        -1.303694     -0.203867      0.393567
     10.06290      0.21341     14.13589         0.100018      0.055872      2.687803
     14.50320     10.64460     12.38340         0.039836     -0.389168     -1.033564
      6.39445     10.98250     15.96209        -0.807933      0.121304     -0.183782
     10.37970      2.45351     13.74549        -0.919012      0.419821      0.032340
     13.67160     14.41330     13.11289         0.160147     -1.795665      0.177950
      7.71641      5.99886     15.36385         0.512199     -0.183110      0.435607
      1.25573      5.51676     11.99028         0.513634     -0.204202      0.085894
      1.63789      7.46020     15.39304        -0.460110      0.386643     -0.617926
      3.72659     12.36260     11.56626        -1.091040     -0.226278     -0.277336
      6.53960     12.84640     14.66059         1.201296      0.521451      0.435747
     12.04820      7.99276     16.44719        -1.399279      0.435957      0.207516
     12.85290      3.36528     16.46017         0.669698     -0.468363      0.258173
     10.27250      0.81971     10.26821        -0.193386      0.809965      0.072555
      4.67333      4.01123     10.88312        -1.349077      0.682313     -0.037353
      2.02631     13.72620     10.85323        -0.805032     -1.795585      0.210963
      4.58396     13.97140     14.82942        -0.197564     -0.203375      0.087784
      1.86144      9.37126     11.61465         0.759985     -0.543084      0.630283
      8.24761     14.10220     15.78877         0.625372      0.061586     -0.407966
      2.14859      7.37548     13.02371        -0.260176      0.830997     -0.205689
      0.54612     11.22560     16.73589        -0.222689      0.399215     -1.227339
      1.99422      5.22894     15.92073         0.027114     -0.424679     -0.339906
      9.14706      6.91124     11.02567        -0.468573     -0.863680      0.688580
      5.57152      8.63939     13.71968        -0.025034     -0.688976     -0.042304
      6.00221      9.93266     11.81947        -1.158006     -1.487489      0.139351
     11.69340     11.30310     14.53889         0.917526     -0.561887     -0.662367
      9.74807      5.47828     16.39284         0.907170      0.249938     -0.580514
      7.74406      8.08932     14.44594         0.221453      0.020934     -1.008578
      3.23680     13.85260     16.72452         0.622599      0.433636      0.565678
      9.72752      8.08136     13.10923        -0.368831      0.097856     -0.664788
      4.23151      6.60721     13.63763        -0.049715      1.174489      0.997090
     13.92210     10.46450     14.62188         0.017343     -0.006514      1.153100
      6.05860      2.63863     17.46926         0.201349     -0.078108     -0.316381
     13.93360      8.17011     15.17725         0.820692     -0.266281     -0.245368
      7.04162      4.38044     13.91324        -1.145296     -0.474727     -0.086365
      5.40606      3.10595     15.22561         0.504682      0.455507     -0.193629
     10.96880      6.78735     14.63962        -0.594689     -0.013033      0.499505
      4.27176      5.14820     15.59530         0.548003      0.383351     -0.024058
      4.34583     10.23480     14.86098         1.096519     -0.447224      1.206279
 -----------------------------------------------------------------------------------
    total drift:                                0.002460      0.003985     -0.011033


--------------------------------------------------------------------------------------------------------



  FREE ENERGIE OF THE ION-ELECTRON SYSTEM (eV)
  ---------------------------------------------------
  free  energy   TOTEN  =      -728.16665072 eV

  energy  without entropy=     -727.95558724  energy(sigma->0) =     -728.06111898



--------------------------------------------------------------------------------------------------------


    POTLOK:  cpu time      3.7058: real time      3.7266


--------------------------------------------------------------------------------------------------------


     LOOP+:  cpu time   4542.0904: real time   4545.4994
    4ORBIT:  cpu time      0.0000: real time      0.0000



 total charge

# of ion       s       p       d       tot
------------------------------------------
    1        0.447   0.005   0.000   0.452
    2        0.566   0.017   0.000   0.583
    3        0.547   0.016   0.000   0.563
    4        0.574   0.019   0.000   0.593
    5        0.760   0.935   0.000   1.695
    6        0.842   0.716   0.000   1.558
    7        0.851   0.755   0.000   1.607
    8        0.762   0.922   0.000   1.685
    9        0.801   0.829   0.000   1.630
   10        0.769   0.975   0.000   1.744
   11        0.784   0.860   0.000   1.644
   12        0.760   0.942   0.000   1.702
   13        0.786   0.905   0.000   1.690
   14        0.779   0.906   0.000   1.685
   15        0.795   0.850   0.000   1.645
   16        0.801   0.813   0.000   1.614
   17        0.764   0.973   0.000   1.737
   18        0.763   0.950   0.000   1.712
   19        0.770   0.898   0.000   1.668
   20        0.792   0.885   0.000   1.678
   21        0.755   0.930   0.000   1.686
   22        0.872   0.693   0.000   1.565
   23        0.866   0.718   0.000   1.584
   24        0.752   0.902   0.000   1.654
   25        0.788   0.879   0.000   1.667
   26        0.765   0.936   0.000   1.701
   27        0.800   0.813   0.000   1.612
   28        0.758   0.882   0.000   1.640
   29        0.786   0.863   0.000   1.649
   30        0.796   0.891   0.000   1.687
   31        0.769   0.981   0.000   1.751
   32        0.878   0.681   0.000   1.558
   33        0.802   0.897   0.000   1.699
   34        0.782   0.848   0.000   1.630
   35        0.766   0.914   0.000   1.681
   36        0.770   0.910   0.000   1.680
   37        0.757   0.938   0.000   1.695
   38        0.761   0.952   0.000   1.713
   39        0.785   0.905   0.000   1.690
   40        0.795   0.834   0.000   1.629
   41        0.772   0.935   0.000   1.707
   42        0.844   0.774   0.000   1.618
   43        0.864   0.709   0.000   1.572
   44        0.862   0.739   0.000   1.601
   45        0.767   0.965   0.000   1.733
   46        0.755   0.906   0.000   1.661
   47        0.803   0.853   0.000   1.656
   48        0.764   0.928   0.000   1.692
   49        0.781   0.875   0.000   1.656
   50        0.758   0.981   0.000   1.739
   51        0.768   0.946   0.000   1.714
   52        0.766   0.921   0.000   1.688
   53        0.761   0.962   0.000   1.723
   54        0.767   0.932   0.000   1.698
   55        0.861   0.722   0.000   1.583
   56        0.791   0.888   0.000   1.678
   57        0.884   0.670   0.000   1.553
   58        0.802   0.816   0.000   1.618
   59        0.779   0.935   0.000   1.714
   60        0.763   0.970   0.000   1.733
   61        0.784   0.810   0.000   1.593
   62        0.776   0.842   0.000   1.618
   63        0.767   0.911   0.000   1.678
   64        0.877   0.670   0.000   1.547
   65        0.806   0.859   0.000   1.665
   66        0.802   0.772   0.000   1.574
   67        0.764   0.925   0.000   1.689
   68        0.766   0.929   0.000   1.695
   69        0.761   0.960   0.000   1.721
   70        0.816   0.804   0.000   1.620
   71        0.763   0.962   0.000   1.725
   72        0.878   0.739   0.000   1.617
   73        0.758   0.883   0.000   1.641
   74        0.773   0.933   0.000   1.706
   75        0.770   0.892   0.000   1.662
   76        0.856   0.730   0.000   1.586
   77        0.767   0.935   0.000   1.702
   78        0.761   0.939   0.000   1.700
   79        0.761   0.900   0.000   1.661
   80        0.767   0.908   0.000   1.675
   81        0.767   0.907   0.000   1.674
   82        0.761   0.972   0.000   1.733
--------------------------------------------------
tot         63.729  68.145   0.000 131.874


 total amount of memory used by VASP MPI-rank0   340497. kBytes
=======================================================================

   base                                    :      30000. kBytes
   nonl-proj                               :      62628. kBytes
   fftplans                                :     108846. kBytes
   grid                                    :      83991. kBytes
   one-center                              :         18. kBytes
   wavefun                                 :      55014. kBytes

  
  
 General timing and accounting informations for this job:
 ========================================================
  
                  Total CPU time used (sec):     4683.395
                            User time (sec):     4166.705
                          System time (sec):      516.689
                         Elapsed time (sec):     4686.957
  
                   Maximum memory used (kb):      603764.
                   Average memory used (kb):          N/A
  
                          Minor page faults:      8322534
                          Major page faults:         1154
                 Voluntary context switches:         2982
