 vasp.6.5.0 16Dec24 (build Jan 20 2025 08:32:48) complex                         
 executed on        HPECrayEX_GCC date 2025.07.25  17:07:24
 running   64 mpi-ranks, with    1 threads/rank, on    1 nodes
 distrk:  each k-point on   64 cores,    1 groups
 distr:  one band on NCORE=  16 cores,    4 groups


--------------------------------------------------------------------------------------------------------


 INCAR:
   SYSTEM = a-Si SPC
   NCORE = 16
   ISTART = 1
   ICHARG = 1
   ISPIN = 1
   ISYM = 1
   EDIFF = 1E-6
   NELM = 150
   EDIFFG = -0.01
   NSW = 0
   ISIF = 2
   IBRION = -1
   PREC = Accurate
   ENCUT = 1200
   KSPACING = 0.23
   KGAMMA = .TRUE.
   METAGGA = SCAN
   LASPH = .TRUE.
   LDIAG = .FALSE.
   LMIXTAU = .TRUE.
   ADDGRID = .TRUE.
   ALGO = Normal
   ISMEAR = 0
   SIGMA = 0.1
   LORBIT = 11
   NEDOS = 2000
   LWAVE = .FALSE.
   LCHARG = .FALSE.

 POTCAR:    PAW_PBE Si_GW 04May2012               
 POTCAR:    PAW_PBE H 15Jun2001                   
 POTCAR:    PAW_PBE Si_GW 04May2012               
   SHA256 =  9ee269d4247e69d62ab9db642b0c3f6e4981ddd1f39659ad08dec53e20e43eb1 Si_GW/POTCAR          
   COPYR  = (c) Copyright 04May2012 Georg Kresse                                                    
   COPYR  = This file is part of the software VASP. Any use, copying, and all other rights are regul
   COPYR  = If you do not have a valid VASP license, you may not use, copy or distribute this file. 
   VRHFIN =Si: s2p2                                                                                 
   LEXCH  = PE                                                                                      
   EATOM  =   103.0669 eV,    7.5752 Ry                                                             
                                                                                                    
   TITEL  = PAW_PBE Si_GW 04May2012                                                                 
   LULTRA =        F    use ultrasoft PP ?                                                          
   IUNSCR =        1    unscreen: 0-lin 1-nonlin 2-no                                               
   RPACOR =    1.500    partial core radius                                                         
   POMASS =   28.085; ZVAL   =    4.000    mass and valenz                                          
   RCORE  =    1.900    outmost cutoff radius                                                       
   RWIGS  =    2.480; RWIGS  =    1.312    wigner-seitz radius (au A)                               
   ENMAX  =  245.345; ENMIN  =  184.009 eV                                                          
   ICORE  =        3    local potential                                                             
   LCOR   =        T    correct aug charges                                                         
   LPAW   =        T    paw PP                                                                      
   EAUG   =  412.952                                                                                
   DEXC   =    0.000                                                                                
   RMAX   =    1.950    core radius for proj-oper                                                   
   RAUG   =    1.300    factor for augmentation sphere                                              
   RDEP   =    1.993    radius for radial grids                                                     
   RDEPT  =    2.000    core radius for aug-charge                                                  
                                                                                                    
   Atomic configuration                                                                             
    7 entries                                                                                       
     n  l   j            E        occ.                                                              
     1  0  0.50     -1785.8828   2.0000                                                             
     2  0  0.50      -139.4969   2.0000                                                             
     2  1  1.50       -95.5546   6.0000                                                             
     3  0  0.50       -10.8127   2.0000                                                             
     3  1  0.50        -4.0811   2.0000                                                             
     3  2  1.50        -4.0817   0.0000                                                             
     4  3  2.50        -4.0817   0.0000                                                             
   Description                                                                                      
     l       E           TYP  RCUT    TYP  RCUT                                                     
     0    -10.8127223     23  1.900                                                                 
     0     95.2407820     23  1.900                                                                 
     1     -4.0811372     23  1.900                                                                 
     1     54.4233040     23  1.900                                                                 
     2     -8.1634956     23  1.900                                                                 
     2     81.6349560     23  1.900                                                                 
     3     27.2116520     23  1.900                                                                 
  local pseudopotential read in
  partial core-charges read in
  partial kinetic energy density read in
  kinetic energy density of atom read in
  atomic valenz-charges read in
  non local Contribution for L=           0  read in
    real space projection operators read in
  non local Contribution for L=           0  read in
    real space projection operators read in
  non local Contribution for L=           1  read in
    real space projection operators read in
  non local Contribution for L=           1  read in
    real space projection operators read in
  non local Contribution for L=           2  read in
    real space projection operators read in
  non local Contribution for L=           2  read in
    real space projection operators read in
    PAW grid and wavefunctions read in

   number of l-projection  operators is LMAX  =           6
   number of lm-projection operators is LMMAX =          18

 POTCAR:    PAW_PBE H 15Jun2001                   
   SHA256 =  030f79b5d3ab3cf0e668861823c8fb652ff669f3e15e46930bd03bfd63a607b6 H/POTCAR              
   COPYR  = (c) Copyright 15Jun2001 Georg Kresse                                                    
   COPYR  = This file is part of the software VASP. Any use, copying, and all other rights are regul
   COPYR  = If you do not have a valid VASP license, you may not use, copy or distribute this file. 
   VRHFIN =H: ultrasoft test                                                                        
   LEXCH  = PE                                                                                      
   EATOM  =    12.4884 eV,    0.9179 Ry                                                             
                                                                                                    
   TITEL  = PAW_PBE H 15Jun2001                                                                     
   LULTRA =        F    use ultrasoft PP ?                                                          
   IUNSCR =        0    unscreen: 0-lin 1-nonlin 2-no                                               
   RPACOR =    0.000    partial core radius                                                         
   POMASS =    1.000; ZVAL   =    1.000    mass and valenz                                          
   RCORE  =    1.100    outmost cutoff radius                                                       
   RWIGS  =    0.700; RWIGS  =    0.370    wigner-seitz radius (au A)                               
   ENMAX  =  250.000; ENMIN  =  200.000 eV                                                          
   RCLOC  =    0.701    cutoff for local pot                                                        
   LCOR   =        T    correct aug charges                                                         
   LPAW   =        T    paw PP                                                                      
   EAUG   =  400.000                                                                                
   RMAX   =    1.123    core radius for proj-oper                                                   
   RAUG   =    1.200    factor for augmentation sphere                                              
   RDEP   =    1.112    radius for radial grids                                                     
   RDEPT  =    0.926    core radius for aug-charge                                                  
                                                                                                    
   Atomic configuration                                                                             
    2 entries                                                                                       
     n  l   j            E        occ.                                                              
     1  0  0.50        -6.4927   1.0000                                                             
     2  1  0.50        -3.4015   0.0000                                                             
   Description                                                                                      
     l       E           TYP  RCUT    TYP  RCUT                                                     
     0     -6.4927494     23  1.100                                                                 
     0      6.8029130     23  1.100                                                                 
     1     -4.0817478     23  1.100                                                                 
  local pseudopotential read in
  atomic valenz-charges read in
  non local Contribution for L=           0  read in
    real space projection operators read in
  non local Contribution for L=           0  read in
    real space projection operators read in
  non local Contribution for L=           1  read in
    real space projection operators read in
    PAW grid and wavefunctions read in

   number of l-projection  operators is LMAX  =           3
   number of lm-projection operators is LMMAX =           5

 -----------------------------------------------------------------------------
|                                                                             |
|               ----> ADVICE to this user running VASP <----                  |
|                                                                             |
|     You have a (more or less) 'large supercell' and for larger cells it     |
|     might be more efficient to use real-space projection operators.         |
|     Therefore, try LREAL= Auto in the INCAR file.                           |
|     Mind: For very accurate calculation, you might also keep the            |
|     reciprocal projection scheme (i.e. LREAL=.FALSE.).                      |
|                                                                             |
 -----------------------------------------------------------------------------

 -----------------------------------------------------------------------------
|                                                                             |
|               ----> ADVICE to this user running VASP <----                  |
|                                                                             |
|     You enforced a specific xc type in the INCAR file but a different       |
|     type was found in the POTCAR file.                                      |
|     I HOPE YOU KNOW WHAT YOU ARE DOING!                                     |
|                                                                             |
 -----------------------------------------------------------------------------

  PAW_PBE Si_GW 04May2012               :
 energy of atom  1       EATOM= -103.0669
 kinetic energy error for atom=    0.0001 (will be added to EATOM!!)
  PAW_PBE H 15Jun2001                   :
 energy of atom  2       EATOM=  -12.4884
 kinetic energy error for atom=    0.0000 (will be added to EATOM!!)


 POSCAR: Si H
  positions in direct lattice
  velocities in cartesian coordinates


 exchange-correlation table for SCAN
   RHO(1)=    0.500       N(1)  =     2000
   RHO(2)=  100.500       N(2)  =     4000



--------------------------------------------------------------------------------------------------------


 ion  position               nearest neighbor table
   1  0.999  0.999  0.999-   2 2.34  56 2.35  46 2.35  28 2.35
   2  0.123  0.123  0.123-   1 2.34   7 2.37   5 2.38   3 2.38
   3  0.998  0.250  0.250-  40 2.35  38 2.35   4 2.37   2 2.38
   4  0.123  0.377  0.377-  25 2.34  15 2.37   3 2.37  21 2.37
   5  0.250  0.998  0.250-  24 2.35  20 2.35   6 2.37   2 2.38
   6  0.377  0.123  0.377-  41 2.34  15 2.37  35 2.37   5 2.37
   7  0.250  0.250  0.998-  12 2.35  14 2.35   2 2.37   8 2.37
   8  0.377  0.377  0.123-  49 2.34   7 2.37  35 2.38  21 2.38
   9  0.000  0.000  0.500-  64 2.35  10 2.35  38 2.35  20 2.35
  10  0.125  0.125  0.626-  15 2.35  13 2.35  11 2.35   9 2.35
  11  1.000  0.250  0.750-  12 2.35  46 2.35  10 2.35  48 2.35
  12  0.125  0.375  0.874-   7 2.35  29 2.35  11 2.35  17 2.35
  13  0.250  1.000  0.750-  14 2.35  28 2.35  10 2.35  32 2.35
  14  0.375  0.125  0.874-   7 2.35  13 2.35  43 2.35  33 2.35
  15  0.250  0.250  0.502-  10 2.35  16 2.35   4 2.37   6 2.37
  16  0.375  0.375  0.626-  15 2.35  29 2.35  43 2.35  57 2.35
  17  0.000  0.500  1.000-  62 2.35  40 2.35  18 2.35  12 2.35
  18  0.125  0.626  0.125-  21 2.35  23 2.35  19 2.35  17 2.35
  19  1.000  0.750  0.250-  54 2.35  20 2.35  56 2.35  18 2.35
  20  0.125  0.875  0.375-   5 2.35  19 2.35  31 2.35   9 2.35
  21  0.250  0.502  0.250-  18 2.35  22 2.35   4 2.37   8 2.38
  22  0.375  0.625  0.375-  21 2.35  51 2.35  31 2.35  57 2.35
  23  0.250  0.750  1.000-  18 2.35  24 2.35  28 2.35  30 2.35
  24  0.375  0.874  0.125-   5 2.35  23 2.35  51 2.35  33 2.35
  25  0.999  0.501  0.501-   4 2.34  54 2.35  48 2.35  26 2.35
  26  0.125  0.625  0.625-  27 2.35  25 2.35  31 2.35  29 2.35
  27  1.000  0.750  0.750-  28 2.35  26 2.35  62 2.35  64 2.35
  28  0.125  0.875  0.875-  27 2.35   1 2.35  13 2.35  23 2.35
  29  0.250  0.500  0.750-  12 2.35  30 2.35  16 2.35  26 2.35
  30  0.375  0.625  0.875-  59 2.35  49 2.35  29 2.35  23 2.35
  31  0.250  0.750  0.500-  26 2.35  32 2.35  20 2.35  22 2.35
  32  0.375  0.875  0.625-  59 2.35  41 2.35  31 2.35  13 2.35
  33  0.500  0.000  1.000-  60 2.35  34 2.35  24 2.35  14 2.35
  34  0.626  0.125  0.125-  35 2.35  39 2.35  37 2.35  33 2.35
  35  0.502  0.250  0.250-  34 2.35  36 2.35   6 2.37   8 2.38
  36  0.625  0.375  0.375-  35 2.35  53 2.35  47 2.35  57 2.35
  37  0.750  1.000  0.250-  52 2.35  38 2.35  56 2.35  34 2.35
  38  0.875  0.125  0.375-   3 2.35  37 2.35  47 2.35   9 2.35
  39  0.750  0.250  1.000-  34 2.35  40 2.35  44 2.35  46 2.35
  40  0.874  0.375  0.125-   3 2.35  39 2.35  53 2.35  17 2.35
  41  0.501  0.999  0.501-   6 2.34  52 2.35  42 2.35  32 2.35
  42  0.625  0.125  0.625-  45 2.35  41 2.35  47 2.35  43 2.35
  43  0.500  0.250  0.750-  14 2.35  44 2.35  16 2.35  42 2.35
  44  0.625  0.375  0.875-  61 2.35  49 2.35  43 2.35  39 2.35
  45  0.750  1.000  0.750-  46 2.35  42 2.35  60 2.35  64 2.35
  46  0.875  0.125  0.875-  45 2.35   1 2.35  11 2.35  39 2.35
  47  0.750  0.250  0.500-  42 2.35  48 2.35  36 2.35  38 2.35
  48  0.875  0.375  0.625-  61 2.35  25 2.35  47 2.35  11 2.35
  49  0.501  0.501  0.999-   8 2.34  50 2.35  44 2.35  30 2.35
  50  0.625  0.625  0.125-  55 2.35  49 2.35  53 2.35  51 2.35
  51  0.500  0.750  0.250-  52 2.35  22 2.35  50 2.35  24 2.35
  52  0.625  0.875  0.375-  63 2.35  41 2.35  51 2.35  37 2.35
  53  0.750  0.500  0.250-  54 2.35  36 2.35  50 2.35  40 2.35
  54  0.875  0.625  0.375-  63 2.35  25 2.35  53 2.35  19 2.35
  55  0.750  0.750  1.000-  50 2.35  56 2.35  60 2.35  62 2.35
  56  0.875  0.875  0.125-  55 2.35   1 2.35  37 2.35  19 2.35
  57  0.500  0.500  0.500-  58 2.35  16 2.35  36 2.35  22 2.35
  58  0.625  0.625  0.625-  63 2.35  61 2.35  59 2.35  57 2.35
  59  0.500  0.750  0.750-  30 2.35  32 2.35  60 2.35  58 2.35
  60  0.625  0.875  0.875-  45 2.35  59 2.35  33 2.35  55 2.35
  61  0.750  0.500  0.750-  44 2.35  48 2.35  62 2.35  58 2.35
  62  0.875  0.625  0.875-  27 2.35  61 2.35  17 2.35  55 2.35
  63  0.750  0.750  0.500-  52 2.35  54 2.35  58 2.35  64 2.35
  64  0.875  0.875  0.625-  63 2.35  45 2.35  27 2.35   9 2.35
  65  0.225  0.225  0.251-  66 0.77
  66  0.275  0.275  0.251-  65 0.77

  LATTYP: Found a base centered orthorhombic cell.
 ALAT       =    15.3670030691
 B/A-ratio  =     1.0002860145
 C/A-ratio  =     0.7073537568
  
  Lattice vectors:
  
 A1 = (  10.8676660094,  -0.0015539327,  -0.0000000000)
 A2 = (  -0.0015539327,  10.8676660094,   0.0000000000)
 A3 = (   0.0000000000,  -0.0000000000,  10.8699073520)


Analysis of symmetry for initial positions (statically):
=====================================================================
 Subroutine PRICEL returns:
 Original cell was already a primitive cell.
 

 Routine SETGRP: Setting up the symmetry group for a 
 base centered orthorhombic supercell.


 Subroutine GETGRP returns: Found  4 space group operations
 (whereof  2 operations were pure point group operations)
 out of a pool of  8 trial point group operations.


The static configuration has the point symmetry C_1h.
 The point group associated with its full space group is C_2v.


Analysis of symmetry for dynamics (positions and initial velocities):
=====================================================================
 Subroutine PRICEL returns:
 Original cell was already a primitive cell.
 

 Routine SETGRP: Setting up the symmetry group for a 
 base centered orthorhombic supercell.


 Subroutine GETGRP returns: Found  4 space group operations
 (whereof  2 operations were pure point group operations)
 out of a pool of  8 trial point group operations.


The dynamic configuration has the point symmetry C_1h.
 The point group associated with its full space group is C_2v.


 Subroutine INISYM returns: Found  4 space group operations
 (whereof  2 operations are pure point group operations),
 and found     1 'primitive' translations


----------------------------------------------------------------------------------------

                                     Primitive cell                                     

  volume of cell :    1283.8030

  direct lattice vectors                    reciprocal lattice vectors
    10.867666009 -0.001553933 -0.000000000     0.092016080  0.000013157  0.000000000
    -0.001553933 10.867666009  0.000000000     0.000013157  0.092016080  0.000000000
     0.000000000 -0.000000000 10.869907352     0.000000000  0.000000000  0.091997104

  length of vectors
    10.867666120 10.867666120 10.869907352     0.092016081  0.092016081  0.091997104

  position of ions in fractional coordinates (direct lattice)
     0.998629909  0.998629909  0.998727941
     0.123318820  0.123318820  0.122715683
     0.998322545  0.250263768  0.249918686
     0.123346300  0.376653700  0.376937390
     0.250263768  0.998322545  0.249918686
     0.376653700  0.123346300  0.376937390
     0.250000000  0.250000000  0.998061208
     0.376681180  0.376681180  0.122715683
     0.000158886  0.000158886  0.499901615
     0.124872114  0.124872114  0.625656705
     0.999656248  0.250010861  0.749939065
     0.124857588  0.375142412  0.874269173
     0.250010861  0.999656248  0.749939065
     0.375142412  0.124857588  0.874269173
     0.250000000  0.250000000  0.501829138
     0.375127886  0.375127886  0.625656705
     0.000086892  0.499913108  0.999915818
     0.124690408  0.625591127  0.124755879
     0.999707978  0.749996470  0.250065281
     0.124887564  0.874545501  0.375091511
     0.249736232  0.501677455  0.249918686
     0.375112436  0.625454499  0.375091511
     0.250000000  0.750000000  0.999779260
     0.375309592  0.874408873  0.124755879
     0.998895158  0.501104842  0.501097770
     0.124976263  0.625362395  0.625262403
     0.999970147  0.750029319  0.749957000
     0.125065100  0.874644964  0.874669430
     0.249989139  0.500343752  0.749939065
     0.374934900  0.625355036  0.874669430
     0.250000000  0.750000000  0.500194321
     0.375023737  0.874637605  0.625262403
     0.499913108  0.000086892  0.999915818
     0.625591127  0.124690408  0.124755879
     0.501677455  0.249736232  0.249918686
     0.625454499  0.375112436  0.375091511
     0.749996470  0.999707978  0.250065281
     0.874545501  0.124887564  0.375091511
     0.750000000  0.250000000  0.999779260
     0.874408873  0.375309592  0.124755879
     0.501104842  0.998895158  0.501097770
     0.625362395  0.124976263  0.625262403
     0.500343752  0.249989139  0.749939065
     0.625355036  0.374934900  0.874669430
     0.750029319  0.999970147  0.749957000
     0.874644964  0.125065100  0.874669430
     0.750000000  0.250000000  0.500194321
     0.874637605  0.375023737  0.625262403
     0.501370091  0.501370091  0.998727941
     0.625394552  0.625394552  0.125090389
     0.500292022  0.750003530  0.250065281
     0.625314543  0.874685457  0.375107636
     0.750003530  0.500292022  0.250065281
     0.874685457  0.625314543  0.375107636
     0.750000000  0.750000000  0.999912667
     0.874605448  0.874605448  0.125090389
     0.499841114  0.499841114  0.499901615
     0.624893979  0.624893979  0.624895388
     0.500029853  0.749970681  0.749957000
     0.624952096  0.875047904  0.874992576
     0.749970681  0.500029853  0.749957000
     0.875047904  0.624952096  0.874992576
     0.750000000  0.750000000  0.500061591
     0.875106021  0.875106021  0.624895388
     0.225068391  0.225068391  0.251467521
     0.274931609  0.274931609  0.251467521

  ion indices of the primitive-cell ions
   primitive index   ion index
                 1           1
                 2           2
                 3           3
                 4           4
                 5           5
                 6           6
                 7           7
                 8           8
                 9           9
                10          10
                11          11
                12          12
                13          13
                14          14
                15          15
                16          16
                17          17
                18          18
                19          19
                20          20
                21          21
                22          22
                23          23
                24          24
                25          25
                26          26
                27          27
                28          28
                29          29
                30          30
                31          31
                32          32
                33          33
                34          34
                35          35
                36          36
                37          37
                38          38
                39          39
                40          40
                41          41
                42          42
                43          43
                44          44
                45          45
                46          46
                47          47
                48          48
                49          49
                50          50
                51          51
                52          52
                53          53
                54          54
                55          55
                56          56
                57          57
                58          58
                59          59
                60          60
                61          61
                62          62
                63          63
                64          64
                65          65
                66          66

----------------------------------------------------------------------------------------


 -----------------------------------------------------------------------------
|                                                                             |
|           W    W    AA    RRRRR   N    N  II  N    N   GGGG   !!!           |
|           W    W   A  A   R    R  NN   N  II  NN   N  G    G  !!!           |
|           W    W  A    A  R    R  N N  N  II  N N  N  G       !!!           |
|           W WW W  AAAAAA  RRRRR   N  N N  II  N  N N  G  GGG   !            |
|           WW  WW  A    A  R   R   N   NN  II  N   NN  G    G                |
|           W    W  A    A  R    R  N    N  II  N    N   GGGG   !!!           |
|                                                                             |
|     The requested file  could not be found or opened for reading            |
|     k-point information. Automatic k-point generation is used as a          |
|     fallback, which may lead to unwanted results.                           |
|                                                                             |
 -----------------------------------------------------------------------------



Automatic generation of k-mesh.
 Grid dimensions derived from KSPACING:
 generate k-points for:    3    3    3

 Generating k-lattice:

  Cartesian coordinates                     Fractional coordinates (reciprocal lattice)
     0.030672027  0.000004386  0.000000000     0.333333333 -0.000000000  0.000000000
     0.000004386  0.030672027  0.000000000     0.000000000  0.333333333  0.000000000
     0.000000000  0.000000000  0.030665701     0.000000000  0.000000000  0.333333333

  Length of vectors
     0.030672027  0.030672027  0.030665701

  Shift w.r.t. Gamma in fractional coordinates (k-lattice)
     0.000000000  0.000000000  0.000000000

 
 Subroutine IBZKPT returns following result:
 ===========================================
 
 Found      8 irreducible k-points:
 
 Following reciprocal coordinates:
            Coordinates               Weight
  0.000000  0.000000  0.000000      1.000000
  0.333333  0.000000  0.000000      4.000000
  0.333333  0.333333  0.000000      2.000000
 -0.333333  0.333333  0.000000      2.000000
  0.000000  0.000000  0.333333      2.000000
  0.333333  0.000000  0.333333      8.000000
  0.333333  0.333333  0.333333      4.000000
 -0.333333  0.333333  0.333333      4.000000
 
 Following cartesian coordinates:
            Coordinates               Weight
  0.000000  0.000000  0.000000      1.000000
  0.030672  0.000004  0.000000      4.000000
  0.030676  0.030676  0.000000      2.000000
 -0.030668  0.030668  0.000000      2.000000
  0.000000  0.000000  0.030666      2.000000
  0.030672  0.000004  0.030666      8.000000
  0.030676  0.030676  0.030666      4.000000
 -0.030668  0.030668  0.030666      4.000000
 


--------------------------------------------------------------------------------------------------------




 Dimension of arrays:
   k-points           NKPTS =      8   k-points in BZ     NKDIM =      8   number of bands    NBANDS=    164
   number of dos      NEDOS =   2000   number of ions     NIONS =     66
   non local maximal  LDIM  =      6   non local SUM 2l+1 LMDIM =     18
   total plane-waves  NPLWV = ******
   max r-space proj   IRMAX =      1   max aug-charges    IRDMAX= 612017
   dimension x,y,z NGX =   126 NGY =  126 NGZ =  126
   dimension x,y,z NGXF=   252 NGYF=  252 NGZF=  252
   support grid    NGXF=   504 NGYF=  504 NGZF=  504
   ions per type =              64   2
   NGX,Y,Z   is equivalent  to a cutoff of  19.27, 19.27, 19.27 a.u.
   NGXF,Y,Z  is equivalent  to a cutoff of  38.55, 38.55, 38.54 a.u.

 SYSTEM =  a-Si SPC                                
 POSCAR =  Si H                                    

 Startparameter for this run:
   NWRITE =      2    write-flag & timer
   PREC   = accura    normal or accurate (medium, high low for compatibility)
   ISTART =      1    job   : 0-new  1-cont  2-samecut
   ICHARG =      1    charge: 1-file 2-atom 10-const
   ISPIN  =      1    spin polarized calculation?
   LNONCOLLINEAR =      F non collinear calculations
   LSORBIT =      F    spin-orbit coupling
   INIWAV =      1    electr: 0-lowe 1-rand  2-diag
   LASPH  =      T    aspherical Exc in radial PAW
 Electronic Relaxation 1
   ENCUT  = 1200.0 eV  88.20 Ry    9.39 a.u.  30.70 30.70 30.70*2*pi/ulx,y,z
   ENINI  = 1200.0     initial cutoff
   ENAUG  =  413.0 eV  augmentation charge cutoff
   NELM   =    150;   NELMIN=  2; NELMDL=  0     # of ELM steps 
   EDIFF  = 0.1E-05   stopping-criterion for ELM
   LREAL  =      F    real-space projection
   NLSPLINE    = F    spline interpolate recip. space projectors
   LCOMPAT=      F    compatible to vasp.4.4
   GGA_COMPAT  = T    GGA compatible to vasp.4.4-vasp.4.6
   LMAXPAW     = -100 max onsite density
   LMAXMIX     =    2 max onsite mixed and CHGCAR
   VOSKOWN=      0    Vosko Wilk Nusair interpolation
   ROPT   =    0.00000   0.00000
 Ionic relaxation
   EDIFFG = -.1E-01   stopping-criterion for IOM
   NSW    =      0    number of steps for IOM
   NBLOCK =      1;   KBLOCK =      1    inner block; outer block 
   IBRION =     -1    ionic relax: 0-MD 1-quasi-New 2-CG
   NFREE  =      0    steps in history (QN), initial steepest desc. (CG)
   ISIF   =      2    stress and relaxation
   IWAVPR =     10    prediction:  0-non 1-charg 2-wave 3-comb
   ISYM   =      1    0-nonsym 1-usesym 2-fastsym
   LCORR  =      T    Harris-Foulkes like correction to forces

   POTIM  = 0.5000    time-step for ionic-motion
   TEIN   =    0.0    initial temperature
   TEBEG  =    0.0;   TEEND  =   0.0 temperature during run
   SMASS  =  -3.00    Nose mass-parameter (am)
   estimated Nose-frequenzy (Omega)   =  0.10E-29 period in steps = 0.13E+47 mass=  -0.270E-26a.u.
   SCALEE = 1.0000    scale energy and forces
   NPACO  =    256;   APACO  = 10.0  distance and # of slots for P.C.
   PSTRESS=    0.0 pullay stress

  Mass of Ions in am
   POMASS =  28.09  1.00
  Ionic Valenz
   ZVAL   =   4.00  1.00
  Atomic Wigner-Seitz radii
   RWIGS  =  -1.00 -1.00
  virtual crystal weights 
   VCA    =   1.00  1.00
   NELECT =     258.0000    total number of electrons
   NUPDOWN=      -1.0000    fix difference up-down

 DOS related values:
   EMIN   =  10.00;   EMAX   =-10.00  energy-range for DOS
   EFERMI =   0.00;   METHOD = LEGACY      
   ISMEAR =     0;   SIGMA  =   0.10  broadening in eV -4-tet -1-fermi 0-gaus
   EFERMI_NEDOS =   21; number of points for ismear=-14 and -15

 Electronic relaxation 2 (details)
   IALGO  =     38    algorithm
   LDIAG  =      F    sub-space diagonalisation (order eigenvalues)
   LSUBROT=      F    optimize rotation matrix (better conditioning)
   TURBO    =      0    0=normal 1=particle mesh
   IRESTART =      0    0=no restart 2=restart with 2 vectors
   NREBOOT  =      0    no. of reboots
   NMIN     =      0    reboot dimension
   EREF     =   0.00    reference energy to select bands
   IMIX   =      4    mixing-type and parameters
     AMIX     =   0.40;   BMIX     =  1.00
     AMIX_MAG =   1.60;   BMIX_MAG =  1.00
     AMIN     =   0.10
     WC   =   100.;   INIMIX=   1;  MIXPRE=   1;  MAXMIX= -45

 Intra band minimization:
   WEIMIN = 0.0000     energy-eigenvalue tresh-hold
   EBREAK =  0.15E-08  absolut break condition
   DEPER  =   0.30     relativ break condition  

   TIME   =   0.40     timestep for ELM

  volume/ion in A,a.u.               =      19.45       131.27
  Fermi-wavevector in a.u.,A,eV,Ry     =   0.958919  1.812094 12.510907  0.919526
  Thomas-Fermi vector in A             =   2.088069

 Write flags
   LWAVE        =      F    write WAVECAR
   LDOWNSAMPLE  =      F    k-point downsampling of WAVECAR
   LCHARG       =      F    write CHGCAR
   LVTOT        =      F    write LOCPOT, total local potential
   LVHAR        =      F    write LOCPOT, Hartree potential only
   WRT_POTENTIAL= false  ! write potential to hdf5 file
   LELF         =      F    write electronic localiz. function (ELF)
   LORBIT       =     11    0 simple, 1 ext, 2 COOP (PROOUT), +10 PAW based schemes


 Python interface
   PLUGINS active      =      F    recompile with -DPLUGINS to activate

 Dipole corrections
   LMONO      =      F    monopole corrections only (constant potential shift)
   LDIPOL     =      F    correct potential (dipole corrections)
   IDIPOL     =      0    1-x, 2-y, 3-z, 4-all directions 
   EPSILON    =  1.0000000 bulk dielectric constant
   LVACPOTAV  =      F  vacuum potentials using an averaging scheme for the charge density
   VACPOTFLAT =  0.1000000 required flatness to determine vacuum potential

Coulomb truncation method
  LTRUNCATE          =      F  Coulomb kernel truncation to be used
  IDIMENSIONALITY    =      3  Dimensionality of cutoff (0 molecules / 2 surfaces)
  ISURFACE           =     -1  Direction of surface normal
  LCOARSEN           =      F  Coarsen the charge grid before padding, preferred


 Exchange correlation treatment:
   METAGGA = SCAN    functional components
   XC_C    = 1    coefficients multiplying the functional components
   LIBXC   =     F    Libxc                    
   VOSKOWN =     0    Vosko Wilk Nusair interpolation
   LHFCALC =     F    Hartree Fock is set to
   LHFONE  =     F    Hartree Fock one center treatment
   AEXX    =    0.0000 exact exchange contribution

 Parameters of functionals:
   SCAN:
     P1 =  0.000000E+00
     P2 =  0.000000E+00
     P3 =  0.000000E+00

 Accuracy and mixing parameters for tau-dependent meta-GGA functionals:
   LMAXTAU = 6
   LMIXTAU = T

 Van der Waals corrections
   IVDW    =     0    specifies the selected vdW correction

 Linear response parameters
   LEPSILON=     F    determine dielectric tensor
   LRPA    =     F    only Hartree local field effects (RPA)
   LNABLA  =     F    use nabla operator in PAW spheres
   LVEL    =     F    velocity operator in full k-point grid
   CSHIFT  =0.1000    complex shift for real part using Kramers Kronig
   OMEGAMAX=  -1.0    maximum frequency
   DEG_THRESHOLD= 0.2000000E-02 threshold for treating states as degnerate
   RTIME   =   -0.100 relaxation time in fs
  (WPLASMAI=    0.000 imaginary part of plasma frequency in eV, 0.658/RTIME)
   DFIELD  = 0.0000000 0.0000000 0.0000000 field for delta impulse in time

  Optional k-point grid parameters
   LKPOINTS_OPT  =     F    use optional k-point grid
   KPOINTS_OPT_MODE=     1    mode for optional k-point grid

 Orbital magnetization related:
   ORBITALMAG=     F  switch on orbital magnetization
   LCHIMAG   =     F  perturbation theory with respect to B field
   DQ        =  0.001000  dq finite difference perturbation B field
   LLRAUG    =     F  two centre corrections for induced B field
   LBONE     =     F  B-component reconstruction in AE one-centre
   LVGVCALC  =     T  calculate vGv susceptibility
   LVGVAPPL  =     F  apply vGv susceptibility instead of pGv for G=0

 Random number generation:
   RANDOM_GENERATOR = DEFAULT
   PCG_SEED         = not used


--------------------------------------------------------------------------------------------------------


 Static calculation
 charge density and potential will be updated during run
 non-spin polarized calculation
 Variant of blocked Davidson
 perform Loewdin sub-space diagonalisation
    ordering is kept fixed
    before iterative eigenvector-optimisation
 modified Broyden-mixing scheme, WC =      100.0
 initial mixing is a Kerker type mixing with AMIX =  0.4000 and BMIX =      1.0000
 Hartree-type preconditioning will be used
 using additional bands           35
 reciprocal scheme for non local part
 use partial core corrections
 calculate Harris-corrections to forces   (improved forces if not selfconsistent)
 use gradient corrections 
 use of overlap-Matrix (Vanderbilt PP)
 Gauss-broadening in eV      SIGMA  =   0.10


--------------------------------------------------------------------------------------------------------


  energy-cutoff  :     1200.00
  volume of cell :     1283.80
      direct lattice vectors                 reciprocal lattice vectors
    10.867666009 -0.001553933 -0.000000000     0.092016080  0.000013157  0.000000000
    -0.001553933 10.867666009  0.000000000     0.000013157  0.092016080  0.000000000
     0.000000000 -0.000000000 10.869907352     0.000000000  0.000000000  0.091997104

  length of vectors
    10.867666120 10.867666120 10.869907352     0.092016081  0.092016081  0.091997104



 old parameters found on file WAVECAR:
  energy-cutoff  :     1200.00
  volume of cell :     1283.80
      direct lattice vectors                 reciprocal lattice vectors
    10.867666009 -0.001553933 -0.000000000     0.092016080  0.000013157  0.000000000
    -0.001553933 10.867666009  0.000000000     0.000013157  0.092016080  0.000000000
     0.000000000 -0.000000000 10.869907352     0.000000000  0.000000000  0.091997104

  length of vectors


 k-points in units of 2pi/SCALE and weight: read from INCAR                         
   0.00000000  0.00000000  0.00000000       0.037
   0.03067203  0.00000439  0.00000000       0.148
   0.03067641  0.03067641  0.00000000       0.074
  -0.03066764  0.03066764  0.00000000       0.074
   0.00000000  0.00000000  0.03066570       0.074
   0.03067203  0.00000439  0.03066570       0.296
   0.03067641  0.03067641  0.03066570       0.148
  -0.03066764  0.03066764  0.03066570       0.148

 k-points in reciprocal lattice and weights: read from INCAR                         
   0.00000000  0.00000000  0.00000000       0.037
   0.33333333  0.00000000  0.00000000       0.148
   0.33333333  0.33333333  0.00000000       0.074
  -0.33333333  0.33333333  0.00000000       0.074
   0.00000000  0.00000000  0.33333333       0.074
   0.33333333  0.00000000  0.33333333       0.296
   0.33333333  0.33333333  0.33333333       0.148
  -0.33333333  0.33333333  0.33333333       0.148

 position of ions in fractional coordinates (direct lattice) 
   0.99862991  0.99862991  0.99872794
   0.12331882  0.12331882  0.12271568
   0.99832254  0.25026377  0.24991869
   0.12334630  0.37665370  0.37693739
   0.25026377  0.99832254  0.24991869
   0.37665370  0.12334630  0.37693739
   0.25000000  0.25000000  0.99806121
   0.37668118  0.37668118  0.12271568
   0.00015889  0.00015889  0.49990161
   0.12487211  0.12487211  0.62565670
   0.99965625  0.25001086  0.74993906
   0.12485759  0.37514241  0.87426917
   0.25001086  0.99965625  0.74993906
   0.37514241  0.12485759  0.87426917
   0.25000000  0.25000000  0.50182914
   0.37512789  0.37512789  0.62565670
   0.00008689  0.49991311  0.99991582
   0.12469041  0.62559113  0.12475588
   0.99970798  0.74999647  0.25006528
   0.12488756  0.87454550  0.37509151
   0.24973623  0.50167746  0.24991869
   0.37511244  0.62545450  0.37509151
   0.25000000  0.75000000  0.99977926
   0.37530959  0.87440887  0.12475588
   0.99889516  0.50110484  0.50109777
   0.12497626  0.62536240  0.62526240
   0.99997015  0.75002932  0.74995700
   0.12506510  0.87464496  0.87466943
   0.24998914  0.50034375  0.74993906
   0.37493490  0.62535504  0.87466943
   0.25000000  0.75000000  0.50019432
   0.37502374  0.87463760  0.62526240
   0.49991311  0.00008689  0.99991582
   0.62559113  0.12469041  0.12475588
   0.50167746  0.24973623  0.24991869
   0.62545450  0.37511244  0.37509151
   0.74999647  0.99970798  0.25006528
   0.87454550  0.12488756  0.37509151
   0.75000000  0.25000000  0.99977926
   0.87440887  0.37530959  0.12475588
   0.50110484  0.99889516  0.50109777
   0.62536240  0.12497626  0.62526240
   0.50034375  0.24998914  0.74993906
   0.62535504  0.37493490  0.87466943
   0.75002932  0.99997015  0.74995700
   0.87464496  0.12506510  0.87466943
   0.75000000  0.25000000  0.50019432
   0.87463760  0.37502374  0.62526240
   0.50137009  0.50137009  0.99872794
   0.62539455  0.62539455  0.12509039
   0.50029202  0.75000353  0.25006528
   0.62531454  0.87468546  0.37510764
   0.75000353  0.50029202  0.25006528
   0.87468546  0.62531454  0.37510764
   0.75000000  0.75000000  0.99991267
   0.87460545  0.87460545  0.12509039
   0.49984111  0.49984111  0.49990161
   0.62489398  0.62489398  0.62489539
   0.50002985  0.74997068  0.74995700
   0.62495210  0.87504790  0.87499258
   0.74997068  0.50002985  0.74995700
   0.87504790  0.62495210  0.87499258
   0.75000000  0.75000000  0.50006159
   0.87510602  0.87510602  0.62489539
   0.22506839  0.22506839  0.25146752
   0.27493161  0.27493161  0.25146752

 position of ions in cartesian coordinates  (Angst):
  10.85122452 10.85122452 10.85608019
   1.33999612  1.33999612  1.33390810
  10.84904710  2.71823171  2.71659296
   1.33990110  4.09315494  4.09727451
   2.71823171 10.84904710  2.71659296
   4.09315494  1.33990110  4.09727451
   2.71652802  2.71652802 10.84883287
   4.09305992  4.09305992  1.33390810
   0.00172647  0.00172647  5.43388424
   1.35687438  1.35687438  6.80083042
  10.86354173  2.71548113  8.15176815
   1.35632762  4.07672842  9.50322491
   2.71548113 10.86354173  8.15176815
   4.07672842  1.35632762  9.50322491
   2.71652802  2.71652802  5.45483624
   4.07618166  4.07618166  6.80083042
   0.00016748  5.43288855 10.86899231
   1.35412159  6.79852166  1.35608484
  10.86332696  8.14915767  2.71818644
   1.35587735  9.50407435  4.07720998
   2.71327039  5.45167495  2.71659296
   4.07562475  6.79664770  4.07720998
   2.71575105  8.15036102 10.86750793
   4.07738052  9.50220038  1.35608484
  10.85488028  5.44428784  5.44688634
   1.35722851  6.79603544  6.79654440
  10.86617608  8.14951424  8.15196311
   1.35780659  9.50515501  9.50757566
   2.71602097  5.43718032  8.15176815
   4.07369551  6.79556704  9.50757566
   2.71575105  8.15036102  5.43706593
   4.07427360  9.50468660  6.79654440
   5.43288855  0.00016748 10.86899231
   6.79852166  1.35412159  1.35608484
   5.45167495  2.71327039  2.71659296
   6.79664770  4.07562475  4.07720998
   8.14915767 10.86332696  2.71818644
   9.50407435  1.35587735  4.07720998
   8.15036102  2.71575105 10.86750793
   9.50220038  4.07738052  1.35608484
   5.44428784 10.85488028  5.44688634
   6.79603544  1.35722851  6.79654440
   5.43718032  2.71602097  8.15176815
   6.79556704  4.07369551  9.50757566
   8.14951424 10.86617608  8.15196311
   9.50515501  1.35780659  9.50757566
   8.15036102  2.71575105  5.43706593
   9.50468660  4.07427360  6.79654440
   5.44794360  5.44794360 10.85608019
   6.79560730  6.79560730  1.35972094
   5.43584115  8.15001045  2.71818644
   6.79435041  9.50481771  4.07738525
   8.15001045  5.43584115  2.71818644
   9.50481771  6.79435041  4.07738525
   8.14958406  8.14958406 10.86895805
   9.50356082  9.50356082  1.35972094
   5.43132957  5.43132957  5.43388424
   6.79016802  6.79016802  6.79255498
   5.43299204  8.14965387  8.15196311
   6.79041088  9.50875723  9.51108823
   8.14965387  5.43299204  8.15196311
   9.50875723  6.79041088  9.51108823
   8.14958406  8.14958406  5.43562316
   9.50900010  9.50900010  6.79255498
   2.44561836  2.44561836  2.73342866
   2.98743768  2.98743768  2.73342866



--------------------------------------------------------------------------------------------------------


 k-point     1 :   0.0000 0.0000 0.0000  plane waves:  121409
 k-point     2 :   0.3333 0.0000 0.0000  plane waves:  121155
 k-point     3 :   0.3333 0.3333 0.0000  plane waves:  121108
 k-point     4 :  -0.3333 0.3333 0.0000  plane waves:  121108
 k-point     5 :   0.0000 0.0000 0.3333  plane waves:  121162
 k-point     6 :   0.3333 0.0000 0.3333  plane waves:  121112
 k-point     7 :   0.3333 0.3333 0.3333  plane waves:  121246
 k-point     8 :  -0.3333 0.3333 0.3333  plane waves:  121251

 maximum and minimum number of plane-waves per node :      7619     7529

 maximum number of plane-waves:    121409
 maximum index in each direction: 
   IXMAX=   31   IYMAX=   30   IZMAX=   30
   IXMIN=  -31   IYMIN=  -31   IZMIN=  -31


 parallel 3D FFT for wavefunctions:
    minimum data exchange during FFTs selected (reduces bandwidth)
 parallel 3D FFT for charge:
    minimum data exchange during FFTs selected (reduces bandwidth)


 total amount of memory used by VASP MPI-rank0   162118. kBytes
=======================================================================

   base                                    :      30000. kBytes
   nonl-proj                               :      25522. kBytes
   fftplans                                :      40723. kBytes
   grid                                    :      25513. kBytes
   one-center                              :         77. kBytes
   wavefun                                 :      40283. kBytes

     INWAV:  cpu time      2.3148: real time      2.3155
 Broyden mixing: mesh for mixing (old mesh)
   NGX = 61   NGY = 61   NGZ = 61
  (NGX  =252   NGY  =252   NGZ  =252)
  gives a total of 226981 points

 initial charge density was supplied:
 number of electron     257.9999999 magnetization 
 keeping initial charge density in first step


--------------------------------------------------------------------------------------------------------


 Maximum index for augmentation-charges         8541 (set IRDMAX)


--------------------------------------------------------------------------------------------------------


 First call to EWALD:  gamma=   0.163
 Maximum number of real-space cells   3x   3x   3
 Maximum number of reciprocal cells   3x   3x   3

    FEWALD:  cpu time      0.0079: real time      0.0079


--------------------------------------- Ionic step        1  -------------------------------------------




--------------------------------------- Iteration      1(   1)  ---------------------------------------


    POTLOK:  cpu time      0.6972: real time      0.6983
    SETDIJ:  cpu time      1.9606: real time      1.9623
    EDDIAG:  cpu time     13.8836: real time     13.8931
     EDDAV:  cpu time     89.8288: real time     89.8895
       DOS:  cpu time      0.0060: real time      0.0060
    CHARGE:  cpu time      9.4486: real time      9.4536
    MIXING:  cpu time      0.0195: real time      0.0195
    --------------------------------------------
      LOOP:  cpu time    115.8444: real time    115.9224

 eigenvalue-minimisations  :  4024
 total energy-change (2. order) :-0.6886259E+03  (-0.6029759E+00)
 number of electron     257.9999999 magnetization 
 augmentation part      -14.9581073 magnetization 

 Broyden mixing:
  rms(total) = 0.90033E-01    rms(broyden)= 0.60663E+02
  rms(prec ) = 0.61966E+00
  weight for this iteration     100.00
  WARNING: grid for Broyden might be to small

 Free energy of the ion-electron system (eV)
  ---------------------------------------------------
  alpha Z        PSCENC =       196.88772197
  Ewald energy   TEWEN  =     -7340.11597195
  -Hartree energ DENC   =      -488.00443252
  -exchange      EXHF   =         0.00000000
  -V(xc)+E(xc)   XCENC  =      -303.14187921
  PAW double counting   =      7932.91734387    -7280.27884286
  entropy T*S    EENTRO =        -0.00000527
  eigenvalues    EBANDS =       -28.14404051
  atomic energy  EATOM  =      6621.25421386
  Solvation  Ediel_sol  =         0.00000000
  ---------------------------------------------------
  free energy    TOTEN  =      -688.62589262 eV

  energy without entropy =     -688.62588735  energy(sigma->0) =     -688.62588999


--------------------------------------------------------------------------------------------------------




--------------------------------------- Iteration      1(   2)  ---------------------------------------


    POTLOK:  cpu time      0.7023: real time      0.7095
    SETDIJ:  cpu time      1.9610: real time      1.9619
    EDDIAG:  cpu time     13.9156: real time     13.9250
     EDDAV:  cpu time     73.6842: real time     73.7307
       DOS:  cpu time      0.0047: real time      0.0047
    CHARGE:  cpu time      9.4356: real time      9.4407
    MIXING:  cpu time      0.0178: real time      0.0178
    --------------------------------------------
      LOOP:  cpu time     99.7212: real time     99.7902

 eigenvalue-minimisations  :  2968
 total energy-change (2. order) : 0.4543076E+02  (-0.6263807E+00)
 number of electron     257.9999999 magnetization 
 augmentation part      -14.8847708 magnetization 

 Broyden mixing:
  rms(total) = 0.95593E-01    rms(broyden)= 0.35161E+02
  rms(prec ) = 0.37030E+00
  weight for this iteration     100.00
  WARNING: grid for Broyden might be to small

 eigenvalues of (default mixing * dielectric matrix)
  average eigenvalue GAMMA=   0.6330
  0.6330

 Free energy of the ion-electron system (eV)
  ---------------------------------------------------
  alpha Z        PSCENC =       196.88772197
  Ewald energy   TEWEN  =     -7340.11597195
  -Hartree energ DENC   =      -484.36532704
  -exchange      EXHF   =         0.00000000
  -V(xc)+E(xc)   XCENC  =      -297.35924870
  PAW double counting   =      7961.30213431    -7308.84974443
  entropy T*S    EENTRO =        -0.00000000
  eigenvalues    EBANDS =         8.05109314
  atomic energy  EATOM  =      6621.25421386
  Solvation  Ediel_sol  =         0.00000000
  ---------------------------------------------------
  free energy    TOTEN  =      -643.19512884 eV

  energy without entropy =     -643.19512884  energy(sigma->0) =     -643.19512884


--------------------------------------------------------------------------------------------------------




--------------------------------------- Iteration      1(   3)  ---------------------------------------


    POTLOK:  cpu time      0.7102: real time      0.7110
    SETDIJ:  cpu time      1.9613: real time      1.9625
    EDDIAG:  cpu time     13.9424: real time     13.9515
     EDDAV:  cpu time     72.4934: real time     72.5409
       DOS:  cpu time      0.0053: real time      0.0053
    CHARGE:  cpu time      9.4650: real time      9.4714
    MIXING:  cpu time      0.0167: real time      0.0167
    --------------------------------------------
      LOOP:  cpu time     98.5942: real time     98.6594

 eigenvalue-minimisations  :  2888
 total energy-change (2. order) :-0.2846366E+01  (-0.5332543E+00)
 number of electron     257.9999999 magnetization 
 augmentation part      -14.8464420 magnetization 

 Broyden mixing:
  rms(total) = 0.10248E+00    rms(broyden)= 0.80128E+00
  rms(prec ) = 0.12395E+00
  weight for this iteration     100.00
  WARNING: grid for Broyden might be to small

 eigenvalues of (default mixing * dielectric matrix)
  average eigenvalue GAMMA=   0.6708
  0.7222  0.6193

 Free energy of the ion-electron system (eV)
  ---------------------------------------------------
  alpha Z        PSCENC =       196.88772197
  Ewald energy   TEWEN  =     -7340.11597195
  -Hartree energ DENC   =      -485.83022695
  -exchange      EXHF   =         0.00000000
  -V(xc)+E(xc)   XCENC  =      -302.24868841
  PAW double counting   =      8001.14626395    -7348.73412566
  entropy T*S    EENTRO =        -0.00000000
  eigenvalues    EBANDS =        11.59931865
  atomic energy  EATOM  =      6621.25421386
  Solvation  Ediel_sol  =         0.00000000
  ---------------------------------------------------
  free energy    TOTEN  =      -646.04149455 eV

  energy without entropy =     -646.04149455  energy(sigma->0) =     -646.04149455


--------------------------------------------------------------------------------------------------------




--------------------------------------- Iteration      1(   4)  ---------------------------------------


    POTLOK:  cpu time      0.7104: real time      0.7112
    SETDIJ:  cpu time      1.9588: real time      1.9601
    EDDIAG:  cpu time     13.9083: real time     13.9187
     EDDAV:  cpu time     78.3846: real time     78.4396
       DOS:  cpu time      0.0050: real time      0.0050
    CHARGE:  cpu time      9.4766: real time      9.4810
    MIXING:  cpu time      0.0171: real time      0.0171
    --------------------------------------------
      LOOP:  cpu time    104.4609: real time    104.5327

 eigenvalue-minimisations  :  3280
 total energy-change (2. order) :-0.2090954E+00  (-0.5105076E-01)
 number of electron     257.9999999 magnetization 
 augmentation part      -14.8488296 magnetization 

 Broyden mixing:
  rms(total) = 0.12401E+00    rms(broyden)= 0.11249E+01
  rms(prec ) = 0.15108E+00
  weight for this iteration     100.00
  WARNING: grid for Broyden might be to small

 eigenvalues of (default mixing * dielectric matrix)
  average eigenvalue GAMMA=   0.6203
  0.8672  0.6349  0.3589

 Free energy of the ion-electron system (eV)
  ---------------------------------------------------
  alpha Z        PSCENC =       196.88772197
  Ewald energy   TEWEN  =     -7340.11597195
  -Hartree energ DENC   =      -485.39029288
  -exchange      EXHF   =         0.00000000
  -V(xc)+E(xc)   XCENC  =      -304.31858169
  PAW double counting   =      7993.78651538    -7341.37876754
  entropy T*S    EENTRO =        -0.00000000
  eigenvalues    EBANDS =        13.02457291
  atomic energy  EATOM  =      6621.25421386
  Solvation  Ediel_sol  =         0.00000000
  ---------------------------------------------------
  free energy    TOTEN  =      -646.25058995 eV

  energy without entropy =     -646.25058995  energy(sigma->0) =     -646.25058995


--------------------------------------------------------------------------------------------------------




--------------------------------------- Iteration      1(   5)  ---------------------------------------


    POTLOK:  cpu time      0.7067: real time      0.7075
    SETDIJ:  cpu time      1.9563: real time      1.9573
    EDDIAG:  cpu time     13.9295: real time     13.9387
     EDDAV:  cpu time     81.9385: real time     81.9930
       DOS:  cpu time      0.0047: real time      0.0048
    CHARGE:  cpu time      9.4610: real time      9.4656
    MIXING:  cpu time      0.0171: real time      0.0171
    --------------------------------------------
      LOOP:  cpu time    108.0140: real time    108.0839

 eigenvalue-minimisations  :  3520
 total energy-change (2. order) :-0.1076903E-02  (-0.9342199E-02)
 number of electron     257.9999999 magnetization 
 augmentation part      -14.8443791 magnetization 

 Broyden mixing:
  rms(total) = 0.56601E-01    rms(broyden)= 0.14472E+01
  rms(prec ) = 0.73233E-01
  weight for this iteration     100.00
  WARNING: grid for Broyden might be to small

 eigenvalues of (default mixing * dielectric matrix)
  average eigenvalue GAMMA=   0.6982
  1.2023  0.6460  0.6164  0.3282

 Free energy of the ion-electron system (eV)
  ---------------------------------------------------
  alpha Z        PSCENC =       196.88772197
  Ewald energy   TEWEN  =     -7340.11597195
  -Hartree energ DENC   =      -488.13141979
  -exchange      EXHF   =         0.00000000
  -V(xc)+E(xc)   XCENC  =      -302.65843962
  PAW double counting   =      8074.41885899    -7422.07519788
  entropy T*S    EENTRO =        -0.00000000
  eigenvalues    EBANDS =        14.16856758
  atomic energy  EATOM  =      6621.25421386
  Solvation  Ediel_sol  =         0.00000000
  ---------------------------------------------------
  free energy    TOTEN  =      -646.25166685 eV

  energy without entropy =     -646.25166685  energy(sigma->0) =     -646.25166685


--------------------------------------------------------------------------------------------------------




--------------------------------------- Iteration      1(   6)  ---------------------------------------


    POTLOK:  cpu time      0.7097: real time      0.7107
    SETDIJ:  cpu time      1.9598: real time      1.9606
    EDDIAG:  cpu time     13.9015: real time     13.9108
     EDDAV:  cpu time     84.5924: real time     84.6492
       DOS:  cpu time      0.0064: real time      0.0064
    CHARGE:  cpu time      9.5078: real time      9.5136
    MIXING:  cpu time      0.0181: real time      0.0181
    --------------------------------------------
      LOOP:  cpu time    110.6958: real time    110.7695

 eigenvalue-minimisations  :  3680
 total energy-change (2. order) :-0.2470939E-02  (-0.7955959E-03)
 number of electron     257.9999999 magnetization 
 augmentation part      -14.8439825 magnetization 

 Broyden mixing:
  rms(total) = 0.46371E-01    rms(broyden)= 0.49392E+00
  rms(prec ) = 0.59526E-01
  weight for this iteration     100.00
  WARNING: grid for Broyden might be to small

 eigenvalues of (default mixing * dielectric matrix)
  average eigenvalue GAMMA=   0.9200
  2.0203  0.9264  0.3678  0.6488  0.6364

 Free energy of the ion-electron system (eV)
  ---------------------------------------------------
  alpha Z        PSCENC =       196.88772197
  Ewald energy   TEWEN  =     -7340.11597195
  -Hartree energ DENC   =      -489.00517999
  -exchange      EXHF   =         0.00000000
  -V(xc)+E(xc)   XCENC  =      -302.80678989
  PAW double counting   =      8085.22566073    -7432.90039515
  entropy T*S    EENTRO =        -0.00000000
  eigenvalues    EBANDS =        15.20660262
  atomic energy  EATOM  =      6621.25421386
  Solvation  Ediel_sol  =         0.00000000
  ---------------------------------------------------
  free energy    TOTEN  =      -646.25413779 eV

  energy without entropy =     -646.25413779  energy(sigma->0) =     -646.25413779


--------------------------------------------------------------------------------------------------------




--------------------------------------- Iteration      1(   7)  ---------------------------------------


    POTLOK:  cpu time      0.7063: real time      0.7071
    SETDIJ:  cpu time      1.9591: real time      1.9601
    EDDIAG:  cpu time     13.8907: real time     13.9009
     EDDAV:  cpu time     85.5888: real time     85.6463
       DOS:  cpu time      0.0055: real time      0.0055
    CHARGE:  cpu time      9.4677: real time      9.4741
    MIXING:  cpu time      0.0180: real time      0.0180
    --------------------------------------------
      LOOP:  cpu time    111.6362: real time    111.7119

 eigenvalue-minimisations  :  3768
 total energy-change (2. order) :-0.4076645E-03  (-0.1097291E-03)
 number of electron     257.9999999 magnetization 
 augmentation part      -14.8430205 magnetization 

 Broyden mixing:
  rms(total) = 0.42982E-01    rms(broyden)= 0.58803E+00
  rms(prec ) = 0.55161E-01
  weight for this iteration     100.00
  WARNING: grid for Broyden might be to small

 eigenvalues of (default mixing * dielectric matrix)
  average eigenvalue GAMMA=   0.9994
  2.3432  1.2050  0.3623  0.7995  0.6606  0.6257

 Free energy of the ion-electron system (eV)
  ---------------------------------------------------
  alpha Z        PSCENC =       196.88772197
  Ewald energy   TEWEN  =     -7340.11597195
  -Hartree energ DENC   =      -489.35858734
  -exchange      EXHF   =         0.00000000
  -V(xc)+E(xc)   XCENC  =      -302.86348395
  PAW double counting   =      8085.78941312    -7433.47038554
  entropy T*S    EENTRO =        -0.00000000
  eigenvalues    EBANDS =        15.62253436
  atomic energy  EATOM  =      6621.25421386
  Solvation  Ediel_sol  =         0.00000000
  ---------------------------------------------------
  free energy    TOTEN  =      -646.25454546 eV

  energy without entropy =     -646.25454546  energy(sigma->0) =     -646.25454546


--------------------------------------------------------------------------------------------------------




--------------------------------------- Iteration      1(   8)  ---------------------------------------


    POTLOK:  cpu time      0.7067: real time      0.7076
    SETDIJ:  cpu time      1.9602: real time      1.9608
    EDDIAG:  cpu time     13.8789: real time     13.8892
     EDDAV:  cpu time     76.4564: real time     76.5066
       DOS:  cpu time      0.0048: real time      0.0048
    CHARGE:  cpu time      9.4558: real time      9.4610
    MIXING:  cpu time      0.0180: real time      0.0180
    --------------------------------------------
      LOOP:  cpu time    102.4807: real time    102.5479

 eigenvalue-minimisations  :  3160
 total energy-change (2. order) : 0.2964027E-03  (-0.1316151E-03)
 number of electron     257.9999999 magnetization 
 augmentation part      -14.8405024 magnetization 

 Broyden mixing:
  rms(total) = 0.31850E-01    rms(broyden)= 0.41791E+00
  rms(prec ) = 0.40822E-01
  weight for this iteration     100.00
  WARNING: grid for Broyden might be to small

 eigenvalues of (default mixing * dielectric matrix)
  average eigenvalue GAMMA=   1.0272
  2.5009  1.4378  0.9335  0.3654  0.7156  0.6187  0.6187

 Free energy of the ion-electron system (eV)
  ---------------------------------------------------
  alpha Z        PSCENC =       196.88772197
  Ewald energy   TEWEN  =     -7340.11597195
  -Hartree energ DENC   =      -490.35100337
  -exchange      EXHF   =         0.00000000
  -V(xc)+E(xc)   XCENC  =      -302.76692718
  PAW double counting   =      8089.56325772    -7437.25916541
  entropy T*S    EENTRO =        -0.00000000
  eigenvalues    EBANDS =        16.53362531
  atomic energy  EATOM  =      6621.25421386
  Solvation  Ediel_sol  =         0.00000000
  ---------------------------------------------------
  free energy    TOTEN  =      -646.25424905 eV

  energy without entropy =     -646.25424905  energy(sigma->0) =     -646.25424905


--------------------------------------------------------------------------------------------------------




--------------------------------------- Iteration      1(   9)  ---------------------------------------


    POTLOK:  cpu time      0.7097: real time      0.7105
    SETDIJ:  cpu time      1.9644: real time      1.9653
    EDDIAG:  cpu time     13.9240: real time     13.9336
     EDDAV:  cpu time     80.8326: real time     80.8897
       DOS:  cpu time      0.0048: real time      0.0048
    CHARGE:  cpu time      9.4749: real time      9.4804
    MIXING:  cpu time      0.0185: real time      0.0185
    --------------------------------------------
      LOOP:  cpu time    106.9291: real time    107.0030

 eigenvalue-minimisations  :  3440
 total energy-change (2. order) : 0.2892413E-03  (-0.1297917E-03)
 number of electron     257.9999999 magnetization 
 augmentation part      -14.8379218 magnetization 

 Broyden mixing:
  rms(total) = 0.20246E-01    rms(broyden)= 0.27252E+00
  rms(prec ) = 0.25965E-01
  weight for this iteration     100.00
  WARNING: grid for Broyden might be to small

 eigenvalues of (default mixing * dielectric matrix)
  average eigenvalue GAMMA=   1.0462
  2.5819  1.6226  1.0333  0.3639  0.8447  0.6595  0.6595  0.6041

 Free energy of the ion-electron system (eV)
  ---------------------------------------------------
  alpha Z        PSCENC =       196.88772197
  Ewald energy   TEWEN  =     -7340.11597195
  -Hartree energ DENC   =      -491.37628814
  -exchange      EXHF   =         0.00000000
  -V(xc)+E(xc)   XCENC  =      -302.63866002
  PAW double counting   =      8093.51369917    -7441.22309131
  entropy T*S    EENTRO =        -0.00000000
  eigenvalues    EBANDS =        17.44441661
  atomic energy  EATOM  =      6621.25421386
  Solvation  Ediel_sol  =         0.00000000
  ---------------------------------------------------
  free energy    TOTEN  =      -646.25395981 eV

  energy without entropy =     -646.25395981  energy(sigma->0) =     -646.25395981


--------------------------------------------------------------------------------------------------------




--------------------------------------- Iteration      1(  10)  ---------------------------------------


    POTLOK:  cpu time      0.7107: real time      0.7121
    SETDIJ:  cpu time      1.9659: real time      1.9669
    EDDIAG:  cpu time     13.8755: real time     13.8859
     EDDAV:  cpu time     77.8063: real time     77.8594
       DOS:  cpu time      0.0047: real time      0.0047
    CHARGE:  cpu time      9.4873: real time      9.4930
    MIXING:  cpu time      0.0187: real time      0.0187
    --------------------------------------------
      LOOP:  cpu time    103.8689: real time    103.9405

 eigenvalue-minimisations  :  3248
 total energy-change (2. order) : 0.2276710E-03  (-0.1166884E-03)
 number of electron     257.9999999 magnetization 
 augmentation part      -14.8352297 magnetization 

 Broyden mixing:
  rms(total) = 0.88565E-02    rms(broyden)= 0.12163E+00
  rms(prec ) = 0.11355E-01
  weight for this iteration     100.00
  WARNING: grid for Broyden might be to small

 eigenvalues of (default mixing * dielectric matrix)
  average eigenvalue GAMMA=   1.2795
  3.6112  2.3972  1.4288  1.0216  0.3644  0.7905  0.6668  0.6175  0.6175

 Free energy of the ion-electron system (eV)
  ---------------------------------------------------
  alpha Z        PSCENC =       196.88772197
  Ewald energy   TEWEN  =     -7340.11597195
  -Hartree energ DENC   =      -492.38567187
  -exchange      EXHF   =         0.00000000
  -V(xc)+E(xc)   XCENC  =      -302.51580348
  PAW double counting   =      8096.94737779    -7444.66818833
  entropy T*S    EENTRO =        -0.00000000
  eigenvalues    EBANDS =        18.34258987
  atomic energy  EATOM  =      6621.25421386
  Solvation  Ediel_sol  =         0.00000000
  ---------------------------------------------------
  free energy    TOTEN  =      -646.25373214 eV

  energy without entropy =     -646.25373214  energy(sigma->0) =     -646.25373214


--------------------------------------------------------------------------------------------------------




--------------------------------------- Iteration      1(  11)  ---------------------------------------


    POTLOK:  cpu time      0.7066: real time      0.7074
    SETDIJ:  cpu time      1.9608: real time      1.9618
    EDDIAG:  cpu time     13.9088: real time     13.9184
     EDDAV:  cpu time     84.8937: real time     84.9534
       DOS:  cpu time      0.0043: real time      0.0043
    CHARGE:  cpu time      9.4651: real time      9.4699
    MIXING:  cpu time      0.0189: real time      0.0189
    --------------------------------------------
      LOOP:  cpu time    110.9582: real time    111.0342

 eigenvalue-minimisations  :  3728
 total energy-change (2. order) : 0.3059885E-04  (-0.4456820E-04)
 number of electron     257.9999999 magnetization 
 augmentation part      -14.8336552 magnetization 

 Broyden mixing:
  rms(total) = 0.21078E-02    rms(broyden)= 0.28133E-01
  rms(prec ) = 0.27122E-02
  weight for this iteration     100.00
  WARNING: grid for Broyden might be to small

 eigenvalues of (default mixing * dielectric matrix)
  average eigenvalue GAMMA=   1.5104
  6.1563  2.4951  1.5196  1.0802  0.8782  0.3643  0.7318  0.6263  0.6263  0.6260

 Free energy of the ion-electron system (eV)
  ---------------------------------------------------
  alpha Z        PSCENC =       196.88772197
  Ewald energy   TEWEN  =     -7340.11597195
  -Hartree energ DENC   =      -492.98408090
  -exchange      EXHF   =         0.00000000
  -V(xc)+E(xc)   XCENC  =      -302.44319968
  PAW double counting   =      8099.03212958    -7446.75853406
  entropy T*S    EENTRO =        -0.00000000
  eigenvalues    EBANDS =        18.87401963
  atomic energy  EATOM  =      6621.25421386
  Solvation  Ediel_sol  =         0.00000000
  ---------------------------------------------------
  free energy    TOTEN  =      -646.25370154 eV

  energy without entropy =     -646.25370154  energy(sigma->0) =     -646.25370154


--------------------------------------------------------------------------------------------------------




--------------------------------------- Iteration      1(  12)  ---------------------------------------


    POTLOK:  cpu time      0.7031: real time      0.7069
    SETDIJ:  cpu time      1.9633: real time      1.9642
    EDDIAG:  cpu time     13.9055: real time     13.9147
     EDDAV:  cpu time     85.7439: real time     85.8046
       DOS:  cpu time      0.0045: real time      0.0045
    CHARGE:  cpu time      9.4569: real time      9.4671
    MIXING:  cpu time      0.0190: real time      0.0190
    --------------------------------------------
      LOOP:  cpu time    111.7961: real time    111.8809

 eigenvalue-minimisations  :  3776
 total energy-change (2. order) :-0.5248847E-05  (-0.4889871E-05)
 number of electron     257.9999999 magnetization 
 augmentation part      -14.8331567 magnetization 

 Broyden mixing:
  rms(total) = 0.15751E-03    rms(broyden)= 0.35353E-02
  rms(prec ) = 0.19151E-03
  weight for this iteration     100.00
  WARNING: grid for Broyden might be to small

 eigenvalues of (default mixing * dielectric matrix)
  average eigenvalue GAMMA=   1.5064
  6.6122  2.5073  1.5509  1.1892  0.3643  0.9442  0.8157  0.7068  0.6033  0.6451
  0.6310

 Free energy of the ion-electron system (eV)
  ---------------------------------------------------
  alpha Z        PSCENC =       196.88772197
  Ewald energy   TEWEN  =     -7340.11597195
  -Hartree energ DENC   =      -493.17689262
  -exchange      EXHF   =         0.00000000
  -V(xc)+E(xc)   XCENC  =      -302.42248387
  PAW double counting   =      8099.78559364    -7447.51354634
  entropy T*S    EENTRO =        -0.00000000
  eigenvalues    EBANDS =        19.04765852
  atomic energy  EATOM  =      6621.25421386
  Solvation  Ediel_sol  =         0.00000000
  ---------------------------------------------------
  free energy    TOTEN  =      -646.25370679 eV

  energy without entropy =     -646.25370679  energy(sigma->0) =     -646.25370679


--------------------------------------------------------------------------------------------------------




--------------------------------------- Iteration      1(  13)  ---------------------------------------


    POTLOK:  cpu time      0.6974: real time      0.7083
    SETDIJ:  cpu time      1.9611: real time      1.9620
    EDDIAG:  cpu time     13.9111: real time     13.9204
     EDDAV:  cpu time     66.2376: real time     66.2804
       DOS:  cpu time      0.0059: real time      0.0059
    CHARGE:  cpu time      9.5033: real time      9.5087
    MIXING:  cpu time      0.0193: real time      0.0193
    --------------------------------------------
      LOOP:  cpu time     92.3357: real time     92.4050

 eigenvalue-minimisations  :  2464
 total energy-change (2. order) :-0.9884687E-05  (-0.3337848E-06)
 number of electron     257.9999999 magnetization 
 augmentation part      -14.8332332 magnetization 

 Broyden mixing:
  rms(total) = 0.17005E-03    rms(broyden)= 0.23444E-02
  rms(prec ) = 0.22762E-03
  weight for this iteration     100.00
  WARNING: grid for Broyden might be to small

 eigenvalues of (default mixing * dielectric matrix)
  average eigenvalue GAMMA=   1.4885
  6.6895  2.5112  1.5864  1.4009  1.0349  0.9578  0.3643  0.7773  0.6675  0.6130
  0.6189  0.6402

 Free energy of the ion-electron system (eV)
  ---------------------------------------------------
  alpha Z        PSCENC =       196.88772197
  Ewald energy   TEWEN  =     -7340.11597195
  -Hartree energ DENC   =      -493.16125944
  -exchange      EXHF   =         0.00000000
  -V(xc)+E(xc)   XCENC  =      -302.42788967
  PAW double counting   =      8099.75655785    -7447.48392369
  entropy T*S    EENTRO =        -0.00000000
  eigenvalues    EBANDS =        19.03683439
  atomic energy  EATOM  =      6621.25421386
  Solvation  Ediel_sol  =         0.00000000
  ---------------------------------------------------
  free energy    TOTEN  =      -646.25371668 eV

  energy without entropy =     -646.25371668  energy(sigma->0) =     -646.25371668


--------------------------------------------------------------------------------------------------------




--------------------------------------- Iteration      1(  14)  ---------------------------------------


    POTLOK:  cpu time      0.7078: real time      0.7079
    SETDIJ:  cpu time      1.9619: real time      1.9630
    EDDIAG:  cpu time     13.8977: real time     13.9067
     EDDAV:  cpu time     56.9721: real time     57.0098
       DOS:  cpu time      0.0044: real time      0.0044
    --------------------------------------------
      LOOP:  cpu time     73.5444: real time     73.5924

 eigenvalue-minimisations  :  1864
 total energy-change (2. order) :-0.5665297E-06  (-0.6749167E-07)
 number of electron     257.9999999 magnetization 
 augmentation part      -14.8332332 magnetization 

 Free energy of the ion-electron system (eV)
  ---------------------------------------------------
  alpha Z        PSCENC =       196.88772197
  Ewald energy   TEWEN  =     -7340.11597195
  -Hartree energ DENC   =      -493.17466848
  -exchange      EXHF   =         0.00000000
  -V(xc)+E(xc)   XCENC  =      -302.42602001
  PAW double counting   =      8099.84300418    -7447.57037993
  entropy T*S    EENTRO =        -0.00000000
  eigenvalues    EBANDS =        19.04838311
  atomic energy  EATOM  =      6621.25421386
  Solvation  Ediel_sol  =         0.00000000
  ---------------------------------------------------
  free energy    TOTEN  =      -646.25371724 eV

  energy without entropy =     -646.25371724  energy(sigma->0) =     -646.25371724


--------------------------------------------------------------------------------------------------------




 average (electrostatic) potential at core
  the test charge radii are     1.1243  0.5201
  (the norm of the test charge is              1.0000)
       1 -69.3531       2 -69.4276       3 -69.3928       4 -69.3992       5 -69.3927
       6 -69.3991       7 -69.3654       8 -69.4275       9 -69.3777      10 -69.3618
      11 -69.3693      12 -69.3640      13 -69.3693      14 -69.3641      15 -69.3584
      16 -69.3618      17 -69.3783      18 -69.3730      19 -69.3747      20 -69.3721
      21 -69.3928      22 -69.3722      23 -69.3751      24 -69.3731      25 -69.3240
      26 -69.3654      27 -69.3717      28 -69.3706      29 -69.3693      30 -69.3706
      31 -69.3716      32 -69.3654      33 -69.3782      34 -69.3730      35 -69.3927
      36 -69.3721      37 -69.3747      38 -69.3721      39 -69.3751      40 -69.3730
      41 -69.3240      42 -69.3654      43 -69.3693      44 -69.3706      45 -69.3718
      46 -69.3706      47 -69.3716      48 -69.3654      49 -69.3532      50 -69.3715
      51 -69.3747      52 -69.3654      53 -69.3747      54 -69.3654      55 -69.3733
      56 -69.3715      57 -69.3777      58 -69.3796      59 -69.3718      60 -69.3800
      61 -69.3718      62 -69.3800      63 -69.3697      64 -69.3796      65 -35.0502
      66 -35.0503



 E-fermi :   5.7249     XC(G=0):  -9.8187     alpha+bet :-11.6319

 WARNING: Could not determine fundamental gap because eigenvalues are not
     sorted.

 Fermi energy:         5.7249138078

 k-point     1 :       0.0000    0.0000    0.0000
  band No.  band energies     occupation 
      1      -7.1967      2.00000
      2      -6.4025      2.00000
      3      -5.9709      2.00000
      4      -5.9691      2.00000
      5      -5.9684      2.00000
      6      -5.9636      2.00000
      7      -5.9621      2.00000
      8      -5.3172      2.00000
      9      -4.9852      2.00000
     10      -4.9682      2.00000
     11      -4.9671      2.00000
     12      -4.9641      2.00000
     13      -4.9629      2.00000
     14      -4.9621      2.00000
     15      -4.9618      2.00000
     16      -4.9611      2.00000
     17      -4.9606      2.00000
     18      -4.9575      2.00000
     19      -4.9571      2.00000
     20      -4.6823      2.00000
     21      -4.6756      2.00000
     22      -4.6651      2.00000
     23      -4.6627      2.00000
     24      -3.1729      2.00000
     25      -2.7875      2.00000
     26      -2.7688      2.00000
     27      -2.7654      2.00000
     28      -2.7603      2.00000
     29      -2.7585      2.00000
     30      -2.6263      2.00000
     31      -2.6047      2.00000
     32      -2.6042      2.00000
     33      -2.5998      2.00000
     34      -2.5987      2.00000
     35      -2.5976      2.00000
     36      -2.5965      2.00000
     37      -2.5965      2.00000
     38      -2.5924      2.00000
     39      -2.5919      2.00000
     40      -2.5886      2.00000
     41      -2.5858      2.00000
     42      -2.5049      2.00000
     43      -1.8711      2.00000
     44      -1.8672      2.00000
     45      -1.8660      2.00000
     46      -1.1840      2.00000
     47      -0.3625      2.00000
     48      -0.3329      2.00000
     49      -0.3304      2.00000
     50      -0.3252      2.00000
     51      -0.3251      2.00000
     52      -0.3244      2.00000
     53      -0.3183      2.00000
     54      -0.3161      2.00000
     55      -0.3137      2.00000
     56      -0.3130      2.00000
     57      -0.3116      2.00000
     58      -0.1821      2.00000
     59       1.2741      2.00000
     60       1.3475      2.00000
     61       1.3484      2.00000
     62       1.3533      2.00000
     63       1.3557      2.00000
     64       1.3577      2.00000
     65       1.3587      2.00000
     66       1.3591      2.00000
     67       1.3651      2.00000
     68       1.3663      2.00000
     69       1.3669      2.00000
     70       1.4219      2.00000
     71       1.4431      2.00000
     72       1.4598      2.00000
     73       1.4619      2.00000
     74       1.4667      2.00000
     75       1.4674      2.00000
     76       1.4707      2.00000
     77       1.4728      2.00000
     78       1.4739      2.00000
     79       1.4746      2.00000
     80       1.4759      2.00000
     81       1.4772      2.00000
     82       1.7208      2.00000
     83       1.7278      2.00000
     84       1.7290      2.00000
     85       1.7346      2.00000
     86       1.7348      2.00000
     87       1.7378      2.00000
     88       2.3078      2.00000
     89       2.3455      2.00000
     90       2.3493      2.00000
     91       2.3683      2.00000
     92       2.3702      2.00000
     93       2.3703      2.00000
     94       3.0178      2.00000
     95       3.2822      2.00000
     96       3.3395      2.00000
     97       3.3439      2.00000
     98       3.3626      2.00000
     99       3.3658      2.00000
    100       3.3663      2.00000
    101       3.3686      2.00000
    102       3.3688      2.00000
    103       3.3694      2.00000
    104       3.3707      2.00000
    105       3.3710      2.00000
    106       3.3713      2.00000
    107       3.8924      2.00000
    108       3.9177      2.00000
    109       3.9241      2.00000
    110       3.9322      2.00000
    111       3.9376      2.00000
    112       3.9413      2.00000
    113       3.9414      2.00000
    114       3.9426      2.00000
    115       3.9467      2.00000
    116       3.9468      2.00000
    117       3.9475      2.00000
    118       3.9487      2.00000
    119       4.0549      2.00000
    120       4.0590      2.00000
    121       4.0614      2.00000
    122       4.0646      2.00000
    123       4.0713      2.00000
    124       4.0739      2.00000
    125       4.0766      2.00000
    126       4.0770      2.00000
    127       5.3005      2.00000
    128       5.3013      2.00000
    129       5.3012      2.00000
    130       6.2497      0.00000
    131       6.2641      0.00000
    132       6.2680      0.00000
    133       6.2684      0.00000
    134       6.2733      0.00000
    135       6.4529      0.00000
    136       6.6694      0.00000
    137       6.6843      0.00000
    138       6.6864      0.00000
    139       6.6875      0.00000
    140       6.6903      0.00000
    141       6.9855      0.00000
    142       7.1797      0.00000
    143       7.2028      0.00000
    144       7.2064      0.00000
    145       7.4454      0.00000
    146       7.8110      0.00000
[...]

  length of vectors
    10.867666120 10.867666120 10.869907352     0.092016081  0.092016081  0.091997104


 FORCES acting on ions
    electron-ion (+dipol)            ewald-force                    non-local-force                 convergence-correction
 -----------------------------------------------------------------------------------------------
   0.214E+01 0.214E+01 0.208E+01   -.198E+01 -.198E+01 -.193E+01   -.151E+00 -.151E+00 -.142E+00   0.572E-04 0.572E-04 0.175E-05
   0.937E+01 0.937E+01 0.988E+01   -.948E+01 -.948E+01 -.102E+02   0.113E+00 0.113E+00 0.313E+00   0.104E-03 0.104E-03 0.802E-04
   0.109E+02 -.240E+00 0.261E+00   -.112E+02 0.302E+00 -.199E+00   0.244E+00 -.560E-01 -.599E-01   0.127E-03 -.409E-05 0.231E-04
   0.891E+01 -.891E+01 -.874E+01   -.906E+01 0.906E+01 0.894E+01   0.143E+00 -.143E+00 -.192E+00   0.100E-03 -.100E-03 -.435E-04
   -.240E+00 0.109E+02 0.261E+00   0.302E+00 -.112E+02 -.199E+00   -.560E-01 0.244E+00 -.599E-01   -.409E-05 0.127E-03 0.231E-04
   -.891E+01 0.891E+01 -.874E+01   0.906E+01 -.906E+01 0.894E+01   -.143E+00 0.143E+00 -.192E+00   -.100E-03 0.100E-03 -.435E-04
   -.132E-09 -.133E-09 0.102E+02   -.120E-13 -.833E-14 -.103E+02   0.167E-17 -.976E-18 0.932E-01   -.238E-13 0.498E-13 0.671E-04
   -.937E+01 -.937E+01 0.988E+01   0.948E+01 0.948E+01 -.102E+02   -.113E+00 -.113E+00 0.313E+00   -.104E-03 -.104E-03 0.802E-04
   0.162E+01 0.162E+01 -.155E+01   -.162E+01 -.162E+01 0.157E+01   -.634E-03 -.634E-03 -.255E-01   0.778E-04 0.778E-04 -.124E-04
   0.154E+01 0.154E+01 -.238E+01   -.144E+01 -.144E+01 0.236E+01   -.101E+00 -.101E+00 0.219E-01   0.545E-04 0.545E-04 -.287E-04
   0.118E+01 0.551E-02 -.795E-02   -.116E+01 -.128E-02 0.926E-02   -.187E-01 -.371E-02 -.299E-02   0.548E-04 -.159E-05 -.231E-04
   0.151E+01 -.151E+01 0.216E+01   -.141E+01 0.141E+01 -.217E+01   -.935E-01 0.935E-01 0.434E-02   0.530E-04 -.530E-04 0.382E-05
   0.551E-02 0.118E+01 -.795E-02   -.128E-02 -.116E+01 0.926E-02   -.371E-02 -.187E-01 -.299E-02   -.159E-05 0.548E-04 -.231E-04
   -.151E+01 0.151E+01 0.216E+01   0.141E+01 -.141E+01 -.217E+01   0.935E-01 -.935E-01 0.434E-02   -.530E-04 0.530E-04 0.382E-05
   0.293E-10 0.295E-10 -.106E+02   0.139E-13 0.976E-15 0.107E+02   -.164E-18 -.915E-18 -.725E-01   -.314E-13 0.698E-13 -.669E-04
   -.154E+01 -.154E+01 -.238E+01   0.144E+01 0.144E+01 0.236E+01   0.101E+00 0.101E+00 0.219E-01   -.545E-04 -.545E-04 -.287E-04
   0.151E+01 -.151E+01 0.156E+01   -.151E+01 0.151E+01 -.157E+01   0.895E-02 -.895E-02 0.870E-02   0.737E-04 -.737E-04 0.816E-05
   0.148E+01 -.226E+01 0.144E+01   -.141E+01 0.228E+01 -.138E+01   -.630E-01 -.159E-01 -.616E-01   0.624E-04 -.607E-04 0.254E-04
   0.106E+01 0.775E-02 0.133E-01   -.107E+01 -.685E-02 -.342E-02   0.495E-02 -.126E-02 -.105E-01   0.637E-04 0.676E-05 0.162E-04
   0.146E+01 0.232E+01 -.142E+01   -.139E+01 -.234E+01 0.136E+01   -.623E-01 0.171E-01 0.567E-01   0.571E-04 0.683E-04 -.558E-05
   0.240E+00 -.109E+02 0.261E+00   -.302E+00 0.112E+02 -.199E+00   0.560E-01 -.244E+00 -.599E-01   0.409E-05 -.127E-03 0.231E-04
   -.146E+01 -.232E+01 -.142E+01   0.139E+01 0.234E+01 0.136E+01   0.623E-01 -.171E-01 0.567E-01   -.571E-04 -.683E-04 -.558E-05
   0.221E-09 0.166E-09 0.105E+01   -.184E-13 0.384E-14 -.105E+01   -.162E-17 0.617E-17 -.274E-02   -.108E-13 -.621E-13 0.261E-05
   -.148E+01 0.226E+01 0.144E+01   0.141E+01 -.228E+01 -.138E+01   0.630E-01 0.159E-01 -.616E-01   -.624E-04 0.607E-04 0.254E-04
   0.224E+01 -.224E+01 -.218E+01   -.197E+01 0.197E+01 0.191E+01   -.254E+00 0.254E+00 0.251E+00   0.634E-04 -.634E-04 0.648E-05
   0.234E+00 -.816E+00 -.801E+00   -.297E+00 0.837E+00 0.819E+00   0.606E-01 -.216E-01 -.184E-01   0.454E-04 -.327E-04 -.773E-05
   0.894E+00 -.887E-02 0.374E-02   -.815E+00 0.189E-02 -.924E-02   -.751E-01 0.688E-02 0.359E-02   0.753E-04 -.108E-05 -.219E-04
   0.210E+00 0.765E+00 0.691E+00   -.257E+00 -.802E+00 -.749E+00   0.452E-01 0.371E-01 0.580E-01   0.410E-04 0.435E-04 -.218E-04
   -.551E-02 -.118E+01 -.795E-02   0.128E-02 0.116E+01 0.926E-02   0.371E-02 0.187E-01 -.299E-02   0.159E-05 -.548E-04 -.231E-04
   -.210E+00 -.765E+00 0.691E+00   0.257E+00 0.802E+00 -.749E+00   -.452E-01 -.371E-01 0.580E-01   -.410E-04 -.435E-04 -.218E-04
   0.137E-09 0.207E-09 -.102E+01   -.242E-14 0.530E-14 0.104E+01   0.380E-18 0.314E-17 -.202E-01   -.314E-13 -.818E-13 0.174E-04
   -.234E+00 0.816E+00 -.801E+00   0.297E+00 -.837E+00 0.819E+00   -.606E-01 0.216E-01 -.184E-01   -.454E-04 0.327E-04 -.773E-05
   -.151E+01 0.151E+01 0.156E+01   0.151E+01 -.151E+01 -.157E+01   -.895E-02 0.895E-02 0.870E-02   -.737E-04 0.737E-04 0.816E-05
   -.226E+01 0.148E+01 0.144E+01   0.228E+01 -.141E+01 -.138E+01   -.159E-01 -.630E-01 -.616E-01   -.607E-04 0.624E-04 0.254E-04
   -.109E+02 0.240E+00 0.261E+00   0.112E+02 -.302E+00 -.199E+00   -.244E+00 0.560E-01 -.599E-01   -.127E-03 0.409E-05 0.231E-04
   -.232E+01 -.146E+01 -.142E+01   0.234E+01 0.139E+01 0.136E+01   -.171E-01 0.623E-01 0.567E-01   -.683E-04 -.571E-04 -.558E-05
   0.775E-02 0.106E+01 0.133E-01   -.685E-02 -.107E+01 -.342E-02   -.126E-02 0.495E-02 -.105E-01   0.676E-05 0.637E-04 0.162E-04
   0.232E+01 0.146E+01 -.142E+01   -.234E+01 -.139E+01 0.136E+01   0.171E-01 -.623E-01 0.567E-01   0.683E-04 0.571E-04 -.558E-05
   0.166E-09 0.218E-09 0.105E+01   0.208E-14 -.455E-14 -.105E+01   -.254E-17 0.255E-18 -.274E-02   0.247E-13 0.935E-13 0.261E-05
   0.226E+01 -.148E+01 0.144E+01   -.228E+01 0.141E+01 -.138E+01   0.159E-01 0.630E-01 -.616E-01   0.607E-04 -.624E-04 0.254E-04
   -.224E+01 0.224E+01 -.218E+01   0.197E+01 -.197E+01 0.191E+01   0.254E+00 -.254E+00 0.251E+00   -.634E-04 0.634E-04 0.648E-05
   -.816E+00 0.234E+00 -.801E+00   0.837E+00 -.297E+00 0.819E+00   -.216E-01 0.606E-01 -.184E-01   -.327E-04 0.454E-04 -.773E-05
   -.118E+01 -.551E-02 -.795E-02   0.116E+01 0.128E-02 0.926E-02   0.187E-01 0.371E-02 -.299E-02   -.548E-04 0.159E-05 -.231E-04
   -.765E+00 -.210E+00 0.691E+00   0.802E+00 0.257E+00 -.749E+00   -.371E-01 -.452E-01 0.580E-01   -.435E-04 -.410E-04 -.218E-04
   -.887E-02 0.894E+00 0.374E-02   0.189E-02 -.815E+00 -.924E-02   0.688E-02 -.751E-01 0.359E-02   -.108E-05 0.753E-04 -.219E-04
   0.765E+00 0.210E+00 0.691E+00   -.802E+00 -.257E+00 -.749E+00   0.371E-01 0.452E-01 0.580E-01   0.435E-04 0.410E-04 -.218E-04
   0.207E-09 0.135E-09 -.102E+01   0.839E-14 -.729E-14 0.104E+01   0.105E-17 -.202E-19 -.202E-01   0.506E-14 0.428E-13 0.174E-04
   0.816E+00 -.234E+00 -.801E+00   -.837E+00 0.297E+00 0.819E+00   0.216E-01 -.606E-01 -.184E-01   0.327E-04 -.454E-04 -.773E-05
   -.214E+01 -.214E+01 0.208E+01   0.198E+01 0.198E+01 -.193E+01   0.151E+00 0.151E+00 -.142E+00   -.572E-04 -.572E-04 0.175E-05
   -.766E+00 -.766E+00 0.165E+00   0.803E+00 0.803E+00 -.217E+00   -.367E-01 -.367E-01 0.517E-01   -.472E-04 -.472E-04 0.781E-05
   -.106E+01 -.775E-02 0.133E-01   0.107E+01 0.685E-02 -.342E-02   -.495E-02 0.126E-02 -.105E-01   -.637E-04 -.676E-05 0.162E-04
   -.781E+00 0.781E+00 -.198E+00   0.803E+00 -.803E+00 0.275E+00   -.229E-01 0.229E-01 -.725E-01   -.397E-04 0.397E-04 0.170E-04
   -.775E-02 -.106E+01 0.133E-01   0.685E-02 0.107E+01 -.342E-02   0.126E-02 -.495E-02 -.105E-01   -.676E-05 -.637E-04 0.162E-04
   0.781E+00 -.781E+00 -.198E+00   -.803E+00 0.803E+00 0.275E+00   0.229E-01 -.229E-01 -.725E-01   0.397E-04 -.397E-04 0.170E-04
   0.208E-09 0.207E-09 0.917E+00   0.470E-14 -.119E-13 -.836E+00   -.357E-18 -.210E-17 -.804E-01   0.760E-14 -.103E-12 -.722E-05
   0.766E+00 0.766E+00 0.165E+00   -.803E+00 -.803E+00 -.217E+00   0.367E-01 0.367E-01 0.517E-01   0.472E-04 0.472E-04 0.781E-05
   -.162E+01 -.162E+01 -.155E+01   0.162E+01 0.162E+01 0.157E+01   0.634E-03 0.634E-03 -.255E-01   -.778E-04 -.778E-04 -.124E-04
   -.432E+00 -.432E+00 -.432E+00   0.434E+00 0.434E+00 0.430E+00   -.155E-02 -.155E-02 0.392E-02   -.394E-04 -.394E-04 -.344E-05
   -.894E+00 0.887E-02 0.374E-02   0.815E+00 -.189E-02 -.924E-02   0.751E-01 -.688E-02 0.359E-02   -.753E-04 0.108E-05 -.219E-04
   -.452E+00 0.452E+00 0.409E+00   0.446E+00 -.446E+00 -.414E+00   0.740E-02 -.740E-02 0.431E-02   -.329E-04 0.329E-04 -.188E-04
   0.887E-02 -.894E+00 0.374E-02   -.189E-02 0.815E+00 -.924E-02   -.688E-02 0.751E-01 0.359E-02   0.108E-05 -.753E-04 -.219E-04
   0.452E+00 -.452E+00 0.409E+00   -.446E+00 0.446E+00 -.414E+00   -.740E-02 0.740E-02 0.431E-02   0.329E-04 -.329E-04 -.188E-04
   0.199E-09 0.197E-09 -.888E+00   -.268E-13 -.810E-14 0.804E+00   0.377E-17 -.612E-17 0.801E-01   0.122E-13 -.554E-13 -.730E-05
   0.432E+00 0.432E+00 -.432E+00   -.434E+00 -.434E+00 0.430E+00   0.155E-02 0.155E-02 0.392E-02   0.394E-04 0.394E-04 -.344E-05
   0.110E+02 0.110E+02 -.108E+01   -.142E+02 -.142E+02 0.119E+01   0.321E+01 0.321E+01 -.106E+00   0.197E-06 0.197E-06 -.447E-05
   -.110E+02 -.110E+02 -.108E+01   0.142E+02 0.142E+02 0.119E+01   -.321E+01 -.321E+01 -.106E+00   -.197E-06 -.197E-06 -.447E-05
 -----------------------------------------------------------------------------------------------
   -.100E-05 -.100E-05 -.757E-01   -.657E-13 0.213E-13 0.577E-13   0.000E+00 0.000E+00 0.753E-01   -.472E-13 0.111E-12 -.784E-05


 POSITION                                       TOTAL-FORCE (eV/Angst)
 -----------------------------------------------------------------------------------
     10.85122     10.85122     10.85608         0.000040      0.000040     -0.001610
      1.34000      1.34000      1.33391         0.001901      0.001901      0.002952
     10.84905      2.71823      2.71659        -0.003087      0.001275     -0.001470
      1.33990      4.09315      4.09727         0.000175     -0.000175      0.002068
      2.71823     10.84905      2.71659         0.001275     -0.003087     -0.001470
      4.09315      1.33990      4.09727        -0.000175      0.000175      0.002068
      2.71653      2.71653     10.84883         0.000000      0.000000     -0.004810
      4.09306      4.09306      1.33391        -0.001901     -0.001901      0.002952
      0.00173      0.00173      5.43388         0.000714      0.000714     -0.002131
      1.35687      1.35687      6.80083        -0.001397     -0.001397      0.002534
     10.86354      2.71548      8.15177         0.000255      0.000114     -0.001352
      1.35633      4.07673      9.50322        -0.000924      0.000924      0.000622
      2.71548     10.86354      8.15177         0.000114      0.000255     -0.001352
      4.07673      1.35633      9.50322         0.000924     -0.000924      0.000622
      2.71653      2.71653      5.45484         0.000000      0.000000      0.003985
      4.07618      4.07618      6.80083         0.001397      0.001397      0.002534
      0.00017      5.43289     10.86899        -0.000006      0.000006     -0.001750
      1.35412      6.79852      1.35608        -0.001345      0.000748     -0.000034
     10.86333      8.14916      2.71819         0.000272     -0.000268     -0.001780
      1.35588      9.50407      4.07721        -0.000914     -0.001044      0.001957
      2.71327      5.45167      2.71659        -0.001275      0.003087     -0.001470
      4.07562      6.79665      4.07721         0.000914      0.001044      0.001957
      2.71575      8.15036     10.86751         0.000000      0.000000     -0.000627
      4.07738      9.50220      1.35608         0.001345     -0.000748     -0.000034
     10.85488      5.44429      5.44689        -0.000872      0.000872     -0.000470
      1.35723      6.79604      6.79654        -0.000062     -0.001107     -0.000118
     10.86618      8.14951      8.15196         0.000491      0.000267     -0.001389
      1.35781      9.50516      9.50758        -0.000318      0.001496      0.002942
      2.71602      5.43718      8.15177        -0.000114     -0.000255     -0.001352
      4.07370      6.79557      9.50758         0.000318     -0.001496      0.002942
      2.71575      8.15036      5.43707         0.000000      0.000000     -0.002270
      4.07427      9.50469      6.79654         0.000062      0.001107     -0.000118
      5.43289      0.00017     10.86899         0.000006     -0.000006     -0.001750
      6.79852      1.35412      1.35608         0.000748     -0.001345     -0.000034
      5.45167      2.71327      2.71659         0.003087     -0.001275     -0.001470
      6.79665      4.07562      4.07721         0.001044      0.000914      0.001957
      8.14916     10.86333      2.71819        -0.000268      0.000272     -0.001780
      9.50407      1.35588      4.07721        -0.001044     -0.000914      0.001957
      8.15036      2.71575     10.86751         0.000000      0.000000     -0.000627
      9.50220      4.07738      1.35608        -0.000748      0.001345     -0.000034
      5.44429     10.85488      5.44689         0.000872     -0.000872     -0.000470
      6.79604      1.35723      6.79654        -0.001107     -0.000062     -0.000118
      5.43718      2.71602      8.15177        -0.000255     -0.000114     -0.001352
      6.79557      4.07370      9.50758        -0.001496      0.000318      0.002942
      8.14951     10.86618      8.15196         0.000267      0.000491     -0.001389
      9.50516      1.35781      9.50758         0.001496     -0.000318      0.002942
      8.15036      2.71575      5.43707         0.000000      0.000000     -0.002270
      9.50469      4.07427      6.79654         0.001107      0.000062     -0.000118
      5.44794      5.44794     10.85608        -0.000040     -0.000040     -0.001610
      6.79561      6.79561      1.35972        -0.001169     -0.001169      0.000555
      5.43584      8.15001      2.71819        -0.000272      0.000268     -0.001780
      6.79435      9.50482      4.07739        -0.000973      0.000973      0.001547
      8.15001      5.43584      2.71819         0.000268     -0.000272     -0.001780
      9.50482      6.79435      4.07739         0.000973     -0.000973      0.001547
      8.14958      8.14958     10.86896         0.000000      0.000000     -0.002111
      9.50356      9.50356      1.35972         0.001169      0.001169      0.000555
      5.43133      5.43133      5.43388        -0.000714     -0.000714     -0.002131
      6.79017      6.79017      6.79255         0.000768      0.000768      0.001388
      5.43299      8.14965      8.15196        -0.000491     -0.000267     -0.001389
      6.79041      9.50876      9.51109         0.001131     -0.001131     -0.000120
      8.14965      5.43299      8.15196        -0.000267     -0.000491     -0.001389
      9.50876      6.79041      9.51109        -0.001131      0.001131     -0.000120
      8.14958      8.14958      5.43562         0.000000      0.000000     -0.001606
      9.50900      9.50900      6.79255        -0.000768     -0.000768      0.001388
      2.44562      2.44562      2.73343        -0.003007     -0.003007      0.002073
      2.98744      2.98744      2.73343         0.003007      0.003007      0.002073
 -----------------------------------------------------------------------------------
    total drift:                               -0.000001     -0.000001     -0.000442


--------------------------------------------------------------------------------------------------------



  FREE ENERGIE OF THE ION-ELECTRON SYSTEM (eV)
  ---------------------------------------------------
  free  energy   TOTEN  =      -646.25371724 eV

  energy  without entropy=     -646.25371724  energy(sigma->0) =     -646.25371724



--------------------------------------------------------------------------------------------------------


    POTLOK:  cpu time      2.6493: real time      2.6508


--------------------------------------------------------------------------------------------------------


     LOOP+:  cpu time   1604.5288: real time   1605.6277
    4ORBIT:  cpu time      0.0000: real time      0.0000



 total charge

# of ion       s       p       d       tot
------------------------------------------
    1        0.724   0.945   0.065   1.734
    2        0.726   0.927   0.069   1.722
    3        0.726   0.933   0.064   1.722
    4        0.729   0.923   0.068   1.720
    5        0.726   0.933   0.064   1.722
    6        0.729   0.923   0.068   1.720
    7        0.725   0.935   0.064   1.724
    8        0.726   0.927   0.069   1.722
    9        0.724   0.939   0.065   1.727
   10        0.723   0.941   0.065   1.730
   11        0.723   0.941   0.065   1.729
   12        0.723   0.941   0.065   1.729
   13        0.723   0.941   0.065   1.729
   14        0.723   0.941   0.065   1.729
   15        0.725   0.935   0.064   1.724
   16        0.723   0.941   0.065   1.730
   17        0.724   0.939   0.065   1.727
   18        0.723   0.941   0.065   1.729
   19        0.723   0.941   0.065   1.729
   20        0.723   0.941   0.065   1.729
   21        0.726   0.933   0.064   1.722
   22        0.723   0.941   0.065   1.729
   23        0.723   0.941   0.065   1.729
   24        0.723   0.941   0.065   1.729
   25        0.723   0.946   0.065   1.735
   26        0.723   0.942   0.065   1.730
   27        0.723   0.941   0.065   1.729
   28        0.723   0.942   0.065   1.730
   29        0.723   0.941   0.065   1.729
   30        0.723   0.942   0.065   1.730
   31        0.723   0.941   0.065   1.729
   32        0.723   0.942   0.065   1.730
   33        0.724   0.939   0.065   1.727
   34        0.723   0.941   0.065   1.729
   35        0.726   0.933   0.064   1.722
   36        0.723   0.941   0.065   1.729
   37        0.723   0.941   0.065   1.729
   38        0.723   0.941   0.065   1.729
   39        0.723   0.941   0.065   1.729
   40        0.723   0.941   0.065   1.729
   41        0.723   0.946   0.065   1.735
   42        0.723   0.942   0.065   1.730
   43        0.723   0.941   0.065   1.729
   44        0.723   0.942   0.065   1.730
   45        0.723   0.941   0.065   1.729
   46        0.723   0.942   0.065   1.730
   47        0.723   0.941   0.065   1.729
   48        0.723   0.942   0.065   1.730
   49        0.724   0.945   0.065   1.734
   50        0.723   0.942   0.065   1.730
   51        0.723   0.941   0.065   1.729
   52        0.723   0.942   0.065   1.730
   53        0.723   0.941   0.065   1.729
   54        0.723   0.942   0.065   1.730
   55        0.723   0.941   0.065   1.729
   56        0.723   0.942   0.065   1.730
   57        0.724   0.939   0.065   1.727
   58        0.723   0.939   0.065   1.727
   59        0.723   0.941   0.065   1.729
   60        0.723   0.939   0.065   1.727
   61        0.723   0.941   0.065   1.729
   62        0.723   0.939   0.065   1.727
   63        0.723   0.941   0.065   1.729
   64        0.723   0.939   0.065   1.727
   65        0.610   0.042   0.000   0.652
   66        0.610   0.042   0.000   0.652
--------------------------------------------------
tot         47.532  60.204   4.174 111.909


 total amount of memory used by VASP MPI-rank0   162118. kBytes
=======================================================================

   base                                    :      30000. kBytes
   nonl-proj                               :      25522. kBytes
   fftplans                                :      40723. kBytes
   grid                                    :      25513. kBytes
   one-center                              :         77. kBytes
   wavefun                                 :      40283. kBytes

  
  
 General timing and accounting informations for this job:
 ========================================================
  
                  Total CPU time used (sec):     1642.366
                            User time (sec):     1620.428
                          System time (sec):       21.938
                         Elapsed time (sec):     1643.633
  
                   Maximum memory used (kb):      649008.
                   Average memory used (kb):          N/A
  
                          Minor page faults:      2050591
                          Major page faults:         1161
                 Voluntary context switches:         1259
