LAMMPS data file via write_data, version 2 Apr 2025, timestep = 6110000, units = metal

1000 atoms
2 atom types

-0.4481352415074742 26.439420559198613 xlo xhi
-0.4481352415074742 26.439420559198613 ylo yhi
-0.4481352415074742 26.439420559198613 zlo zhi

Atom Type Labels

1 H
2 Si

Masses

1 1.00784
2 28.0855

Atoms # atomic

842 2 1.5899442205133432 2.566594190221397 5.175553010840296 0 0 0
877 2 -0.061157672688086195 2.8035077268624473 1.832779993863059 0 0 0
596 2 0.20482307704083413 0.699645101870705 2.988091319204534 0 0 0
642 2 3.4471022362948736 1.2427116701725802 5.812749498865117 1 0 0
618 2 3.6276053419735206 1.149254725345307 1.4031918871800122 1 0 0
572 2 1.6425587295986936 3.67437784707149 3.1027716148841042 0 0 0
516 2 3.7041047507318803 3.399690934104769 2.2167792776167534 0 0 0
509 2 -0.12354473009726119 1.0676876391380377 5.298091986179053 0 1 0
825 2 10.928430513092366 12.275760360202504 -0.16628836794379376 0 0 0
621 2 4.666941563348302 7.1299100150936185 5.715366712148787 0 0 0
653 2 6.6276015071555126 0.18996141553807389 3.2865826700448175 0 0 0
705 2 7.030050393358941 2.5416871344630927 3.5401049504751443 0 0 0
458 2 5.681559756205821 0.2597344899393015 1.0948432392782808 0 1 0
971 2 7.514489663074772 3.47691574707518 1.3781825459724213 0 0 0
718 2 7.445849353061769 1.4927754870934464 0.04381572171505477 1 0 1
105 2 5.130890946715367 3.91989310307046 4.156268763513297 0 0 0
396 2 11.733070645534562 8.768439254743734 1.6189799994717462 0 0 0
174 2 8.820412209276972 3.11862112402845 4.9613622876461845 0 1 1
282 2 10.49115498045287 0.11431402124805168 2.6937697965558347 0 1 0
856 2 11.90342608047611 1.8390982197512664 3.5927829449756956 0 0 0
811 2 10.940814712849797 3.8124168895392936 4.273033351163122 0 0 0
903 2 9.406895919797469 0.3845821892986311 0.6267567716893225 0 1 0
222 2 9.829504561783 3.991264049261658 0.6777541515006236 0 0 1
801 2 10.75301334926283 2.020557747643602 -0.15022941609712054 1 0 0
88 1 11.5119149293362 4.38248301159034 5.588990527240574 1 0 -1
583 2 9.059357628487861 11.21633315497063 4.819396310204028 0 0 0
55 1 12.601519667649557 1.502947867414641 4.835705008303639 -1 0 0
371 2 2.398569866531946 6.274893848537901 5.363259779242223 0 0 0
758 2 0.5371755636976292 7.0606370384512696 1.687841567058895 0 0 1
648 2 1.0010287764260184 5.892695894119712 3.5872488464915815 0 0 0
895 2 2.5656775809003722 6.848147625379136 0.2248040773707103 1 0 1
34 1 10.139006216622949 10.461659508106141 3.9875208771661512 7 115 9
44 1 4.437950737456443 7.7011954039716155 2.337650682728039 0 -1 1
717 2 4.266686292093036 5.255794341371418 0.7435218392308651 0 0 1
633 2 6.64486861042106 5.523877282842133 1.1092294999164738 0 0 0
121 2 6.518141949072822 5.85931606098786 3.471449972897111 1 0 0
941 2 5.412277401683892 7.959857347322313 3.5403158445148266 0 0 0
101 2 8.030261106956937 5.375188477905465 5.104763772656117 0 0 0
975 2 12.778636622369115 9.735798785958686 3.482478017439932 0 0 0
92 1 9.188946068712335 6.391887768449261 5.183393604787609 0 1 0
74 1 9.250499749977395 6.9665808024455185 2.588493825945527 0 1 0
327 2 11.22906452029067 5.038985084177071 2.439544736493838 0 0 1
791 2 10.615029406860504 7.167920191108133 2.891278329964793 0 0 0
320 2 11.616211336175192 8.03305622614956 4.739149631214084 0 0 1
701 2 12.863017736499836 12.041589448000098 3.994626348230181 0 0 0
802 2 3.5142958795057675 12.771664525687308 0.6159699826992153 1 0 1
185 2 0.8528483146485726 9.332118178269853 1.5612266347681207 0 0 0
585 2 0.36586887137659574 10.213851401377742 3.5952173547651167 1 0 0
934 2 2.771086093801728 9.284746125568148 0.31624795030473807 1 0 1
340 2 1.7291476803568941 10.193578593929882 5.501923303439702 1 0 0
383 2 0.2660016598018884 2.0522387034896257 -0.28677701349968254 0 0 0
199 2 10.36229116647247 10.055537666986242 0.22129632318380987 0 0 0
969 2 3.981050715478551 10.770802291952046 5.4505661547885005 1 0 1
38 1 8.144599043859225 9.043018116171487 2.050916659249492 1 1 0
860 2 8.079525112063893 9.274820773110816 0.6165256546363649 0 0 0
815 2 7.0357254450177535 11.998792408877812 3.8112642921582314 0 0 0
364 2 4.571316629099675 10.691986128014621 1.212778499857554 0 0 0
125 2 5.316080899246365 10.440187033319633 3.5197404349382193 1 0 1
819 2 6.560713541908776 11.043800172520035 0.261680806755746 1 0 0
405 2 2.101767542426121 -0.42936673609588233 2.29895931047083 1 1 0
942 2 1.1556561237142888 12.633741814556261 3.5204156922721377 1 0 1
160 2 4.273437636773452 12.985998871066398 6.062354425243312 1 0 0
752 2 7.792704240791984 12.640898912487057 1.618905976561361 0 1 0
311 2 12.991067465542123 1.5698809734416668 0.12340518341785711 0 1 0
786 2 1.6201725832121223 1.8453086878266198 9.455928847634272 0 1 0
922 2 2.5051222601644065 0.4683183674892665 7.889072963646877 0 1 1
446 2 3.358389724460317 2.2982171461489216 11.187287003451388 1 1 0
338 2 1.2965909056353537 4.0234764065500395 8.747283732010324 0 0 0
111 2 -0.3069828069127055 0.9747482198308086 10.609073503202735 1 1 0
784 2 3.9980660353150137 0.5678712370369376 12.604288518360038 1 1 -1
879 2 4.377394451631615 3.3472001228513695 6.319460742425323 0 0 0
165 2 7.209445466323734 2.5977624258626997 11.308047039924986 0 0 0
967 2 6.622614318456141 1.1724790891145895 7.8016253226268475 0 0 0
574 2 7.797939076131458 0.8909594128379523 9.857371666910879 0 1 0
684 2 5.873157930725205 3.568886911952305 7.993685196261216 0 0 0
171 2 5.337591922969557 3.5619477544733398 10.242010504031576 1 1 0
53 1 7.450463430171838 0.15178319263150197 6.7123319442992955 -1 0 2
875 2 4.743438103163469 -0.08485718735822367 8.455001588742261 1 0 0
190 2 10.255206428442468 2.8735229144107 9.981529322733824 0 0 0
651 2 10.093537274181564 0.5731489099413885 9.900638468179704 0 0 0
67 1 11.63564983738743 3.5544468125483917 9.952387721030037 0 1 0
40 1 9.716635414264335 3.574646476732089 8.761558152730366 0 0 -1
460 2 9.369562813474015 3.89176572271396 11.944327474592118 0 1 0
29 1 12.40010091459112 2.3766016517109656 11.24237442064177 1 -1 1
94 1 11.315643059834759 -0.05657958971314908 7.056562168709825 0 1 1
362 2 4.337497852639422 12.81895449786832 8.465499679252744 0 0 0
284 2 9.819085735787382 12.991535816884285 12.363692717013292 0 0 0
576 2 2.1309354551266697 4.112270104676833 12.118439452513067 0 0 0
232 2 1.531408271086666 8.107807008810422 6.575658146941642 0 0 0
214 2 1.4956496391743686 5.522995600819153 10.455130897136785 0 0 0
570 2 2.5419936770134552 7.754244069764908 10.470353997933932 0 0 0
241 2 2.1681398698634866 4.29057679051001 6.612808763712074 0 0 0
510 2 4.221077202146647 6.990551421508854 11.957391789686929 1 0 0
807 2 5.869280018928363 5.478929518439949 11.537200807792034 0 0 0
348 2 7.794572650619978 7.058610814566614 8.476590892674468 0 0 0
527 2 7.6468640464950965 6.867017237857065 10.795277419078301 0 0 0
481 2 6.513142694123252 5.629024556313859 7.008021552721366 0 1 0
43 1 10.66023512638627 5.858479914016061 7.5312783464097945 0 1 0
102 2 9.723732543029145 6.217323982655384 11.608385871762746 0 0 0
289 2 9.986495484395826 7.031554911165228 8.091128525750557 0 0 0
742 2 10.902532599894554 7.593925957639705 10.101964528100396 0 0 0
162 2 2.8693836912076796 12.155017245273678 12.440446136344057 1 1 0
508 2 2.8983762780071696 8.965725183885173 8.37618764654 0 0 1
274 2 1.4104924917726565 11.405581705988341 10.811047212297304 1 1 0
530 2 0.8358840888392209 11.365627610822926 7.297481901914752 0 0 0
450 2 2.6414597012375647 11.255034815315177 8.8604849859831 0 0 0
114 2 0.7559552660415774 9.235008882615023 11.072749521941835 0 0 0
990 2 7.084498588765739 8.791347883551284 11.81924557927196 0 0 0
720 2 7.043536788286057 10.189888620346805 9.997558646691152 0 1 0
498 2 4.740224299040179 9.075523887503314 6.8780115106374335 0 0 0
544 2 6.117587096244907 12.325505752362439 9.869319726244598 0 0 0
372 2 7.044191878376833 9.230103051383484 7.926569505793468 0 0 0
32 1 8.54294474913096 10.269525712611966 10.180752936000845 0 -1 -1
883 2 9.881276545628799 11.473784467311683 8.317176814051319 0 0 0
341 2 10.809299152664574 10.018235598999002 9.932960322282394 1 0 0
404 2 10.89953985791072 8.796543027066381 6.757815843884353 0 0 0
140 2 10.51770317912019 10.780871762089138 12.052487661179669 0 0 0
932 2 8.934095084631528 10.064665835974964 6.796756027943099 0 0 0
267 2 12.398826853572974 1.3684940196759054 12.534264655444181 0 0 0
659 2 10.709019963924762 -0.27674145086798535 12.012589640995003 0 0 0
6 1 8.58801123085802 2.5107626623822434 6.304661989642868 -1 0 0
473 2 2.6027351819022573 2.3731710395615644 15.816076935678568 0 0 0
20 1 1.6317150447014144 1.8786034806748186 18.626831868291788 2 1 0
145 2 2.1496232724941096 0.03298435176836306 16.085041830409438 1 0 0
2 1 3.0937518573002047 2.3289572047858305 14.39440667426135 1 0 0
409 2 0.23272630389619609 3.419561324556039 13.291677735641189 1 0 0
747 2 0.8196087572719106 4.036033437346147 15.46070838586256 1 0 0
832 2 1.9105972622884324 -0.22445428867442585 13.799516340762597 1 1 0
49 1 -0.14608857395456992 2.669678218508351 18.092715270123136 2 0 -1
887 2 12.576391792870908 9.194429818482847 18.904613831939464 0 0 0
367 2 4.563840452623349 3.419144973872054 16.453562691893154 0 0 0
714 2 5.201009830754752 2.732241505659389 18.512084677935498 1 0 0
164 2 7.4384027767716185 2.433359871598576 18.94083462981959 0 0 0
414 2 6.218651036937222 3.2631653730742967 14.712539781773117 0 1 0
312 2 4.407036299827703 0.6148177217415141 19.174851633796237 0 1 0
406 2 0.12587769676852556 1.0545069260199482 13.07509650563948 1 0 0
985 2 8.203245169086799 3.7541790595937723 15.704729333001067 0 0 0
265 2 11.71714887205447 10.10708246699366 15.12016331463059 0 0 0
727 2 12.681041484983677 2.0156396731706137 16.553311916977407 0 0 0
513 2 11.96227393589085 -0.24162998056493762 17.000571904705062 0 0 -1
358 2 8.979692477848475 1.9080754485275224 17.06787959386616 0 0 0
123 2 10.965274018732433 2.82229326321361 18.022346204223822 0 0 0
641 2 12.14722638143193 2.8951535695576815 14.308509096012182 0 1 0
740 2 10.01516755304614 3.9142882517457718 14.279029079599749 0 0 0
983 2 9.604920330884351 -0.23246361246838565 16.43689644099404 0 1 0
8 1 1.9963499515049614 4.232924144939845 18.783560618356688 1 1 1
51 1 0.5930556786402639 6.295021876585333 17.459092822211908 0 1 1
521 2 1.5854257586662608 6.173087263799544 14.853983814805044 0 0 0
442 2 2.557164664645647 7.816107480970869 16.088416056455344 0 0 0
652 2 3.3737462031876992 5.485848374089515 13.460919440989262 1 0 0
342 2 1.202660138422344 7.573245661531047 17.896718369378313 0 0 0
961 2 -0.25516429146995145 6.75075876667284 13.463088013461926 1 0 0
122 2 5.218061624846752 8.556547540725353 13.271252853902483 0 0 0
73 1 4.220051593965878 4.7403594128386555 16.97322723837099 1 0 1
428 2 7.637700152556372 4.8124684533264235 19.237855180728694 0 1 0
191 2 4.639538700673522 7.725446629487029 17.108044870816443 0 0 0
376 2 5.76162587693277 5.321984654063047 13.868247964460865 0 0 0
206 2 5.93674151645903 7.34346176648806 15.326665146367041 0 0 0
923 2 8.053945506622508 7.811213596303983 16.274880494850343 0 0 0
986 2 4.686234439789264 6.6461788067435945 19.405327244736604 0 0 0
120 2 8.478853573818407 5.6281701021218025 17.094546376077638 0 0 0
956 2 12.649808305421901 6.43068500213276 14.160528056669094 0 0 0
550 2 9.755942793780036 8.233297822639472 14.781921089701562 0 0 0
958 2 10.470895554766631 5.09276632371443 18.29351316731647 -1 0 0
553 2 10.417609131831018 6.170492277159737 13.763908247760046 0 0 0
276 2 12.580238566931351 5.654205753323035 18.030252225372777 0 1 0
87 1 2.0378391921831116 12.596037789026353 13.58214468692011 1 -1 0
708 2 2.6216426402573174 10.980612250901435 18.233766602242483 0 0 0
433 2 2.127992657861642 9.668088975937193 14.604588363383655 0 0 0
221 2 1.2877671751447082 11.23550146775752 16.278057158822648 0 0 0
256 2 0.3258698635603213 8.998930150794676 13.294171249557754 0 0 0
345 2 3.9634453441224364 10.449463386821126 13.59186666784273 0 0 0
103 2 7.617568813722279 11.344318838985371 14.593456218716657 1 0 -1
866 2 5.221111084376603 11.334033189716962 15.420140259489513 0 0 1
223 2 4.627836219757026 10.0541360261744 17.369984895382395 0 0 0
166 2 8.3871880860382 9.472868515816824 17.855243419243415 0 0 0
542 2 6.337858003581461 10.012739399163724 18.990381686215713 0 0 0
91 1 12.643108511994985 12.532506811615617 18.408768970795023 1 0 0
315 2 6.300314227997043 1.555324366733264 13.188817977105154 0 1 0
393 2 10.16156310666931 9.347754934718196 19.469934366804438 0 0 0
575 2 10.967735825567823 12.143489334330027 15.926748008451513 0 0 0
593 2 8.77185144912675 9.653953173651782 13.218545972713153 0 0 0
968 2 8.685928669845183 11.600256168697353 16.699249922677133 0 1 0
150 2 12.525786810227702 10.30184411201916 13.02852802044066 0 0 0
30 1 6.649560307802492 -0.04736990257805923 16.87918326272746 0 2 0
269 2 0.07143668845960616 -0.31248025570117394 17.414366586164753 0 0 0
313 2 2.168790052852589 1.1510109821196732 19.710207407107774 0 0 0
170 2 1.2717252930328042 2.177767075865189 23.217175079431946 0 1 0
287 2 2.3123749106271902 2.9410439123634142 21.3158477083606 1 0 0
669 2 3.5043906949908954 1.5176149588510428 24.186538954147053 1 0 -1
62 1 3.7064476890975726 3.3399084520756865 21.630007552200603 1 0 0
781 2 0.5167195769869203 3.7055522871136812 24.91599849088545 0 0 0
440 2 11.273427119232467 8.700721875033457 25.454707607859973 0 0 0
184 2 2.4005020398418297 1.120867352021368 26.256499889728268 0 0 -1
846 2 5.700188264410747 -0.07040954995592358 20.994488392400513 0 0 0
803 2 5.015773190611321 3.269829192841095 24.11316511094052 0 0 0
500 2 6.713751988790943 1.5931665511741149 24.779166944735863 1 0 -1
398 2 7.760563509045873 2.6319639787870197 22.78412920353381 0 1 -1
603 2 7.83826953800471 1.11956956617063 20.889351220141585 0 0 0
555 2 4.427198385777173 -0.21980953893360058 22.975668219780935 0 1 0
858 2 10.212206862540123 0.4760291551863546 21.064408957415132 0 1 0
422 2 11.179611383446565 1.6514398165928719 24.397072054461546 0 1 -1
829 2 11.288186037562308 2.407797972209556 20.38183813065023 0 0 0
208 2 9.870777679756578 3.3848484783691544 23.56244057890124 0 0 0
723 2 10.879689821514011 -0.32404312525835804 23.12863840422891 1 0 0
451 2 1.8665734112012382 5.558269177306023 25.120476852716507 0 1 0
630 2 0.9668758716651209 7.324609903279635 23.900050792922116 0 0 0
395 2 2.0073152300008057 8.281252967016297 21.778768174576193 0 0 0
262 2 2.337720942407158 6.787680093108214 19.92438752034355 0 0 0
173 2 1.2878811402319195 4.696756850705137 20.00074482371592 0 0 0
820 2 5.446610029402194 4.566986787267809 19.98442977848692 0 0 0
225 2 6.191561738505731 4.300456697016167 22.29205456493471 0 1 0
905 2 4.1041883670163894 5.072831044326807 25.32247723084756 0 0 -1
60 1 5.507209918226491 7.2273601994627965 21.95162906244267 0 0 -1
384 2 6.529518987758528 6.513686804536682 22.985927530558307 0 0 0
890 2 5.416974765133059 7.026691830873545 24.918237915976015 0 0 0
28 1 7.133797568991982 8.279881995729484 20.87022567113774 0 -1 0
308 2 8.353489705423433 8.172515851121352 23.181667087612148 0 1 0
569 2 10.786957861656264 4.304621137214471 21.635949132980365 0 0 0
524 2 9.352822180062521 7.0703427180035545 25.011691719607597 0 0 0
366 2 12.301600188595172 4.746842906766322 25.172259729167706 0 1 0
427 2 10.132459298272977 4.9419444311927245 25.324071436520263 0 0 0
113 2 9.880400795564578 7.903663545409069 21.247884723242755 1 0 0
271 2 12.099283550859978 7.412201831257802 21.99944856090589 0 0 0
947 2 9.488352631520462 5.717266598419123 20.334318077511917 0 0 0
387 2 12.488595334451219 5.197679545573927 22.871121911644543 0 1 0
437 2 0.16882740149821274 9.886245729357904 21.247636157699162 0 0 0
837 2 0.4348094644928113 9.409536674603963 24.876573545760166 0 0 -1
402 2 3.2786910178406066 11.866946981422014 21.836934125940083 0 0 0
764 2 2.7583792649138714 10.234315182124258 25.024134722699813 0 0 0
497 2 1.554256571269896 11.52503066422349 20.222309142592692 0 0 0
744 2 2.8532661670063018 12.428672907566837 24.06729030848269 0 0 -1
292 2 4.150262144525102 9.63216974016421 22.007843486477526 0 0 -1
749 2 5.590966609076591 8.410724580869488 20.444157809338996 0 0 0
861 2 6.662780109618861 12.134137990064694 20.144370293891022 0 0 0
634 2 6.14219913406471 11.11599211680249 24.8441035080686 0 0 -1
777 2 8.129246137567703 11.782321275866162 21.85640258606471 0 0 0
862 2 4.64129223057719 9.284898467677904 24.257151132314405 0 0 0
217 2 8.26817133450045 10.554626944287788 23.718783719017523 0 0 -1
937 2 9.78027572657108 12.426120444845095 24.610768622279885 0 0 -1
978 2 10.158664642544997 11.359675807607154 20.681199203500455 0 0 0
993 2 12.11295700996406 11.264835516988033 21.828534844882086 0 0 0
400 2 12.074480424450847 9.358885598606843 23.32194303996549 -1 0 0
607 2 -0.3310273331174193 0.42091790852384314 23.111207232381943 1 1 0
537 2 11.633187041402696 12.940451164615745 23.393607674176586 0 0 0
323 2 7.318413748430849 7.2009069337265155 26.366638139154585 1 -1 -1
533 2 2.5202769885150027 15.792350505280835 4.418991045296096 1 0 0
991 2 2.151011118557772 13.906992026987988 5.4503241424949405 1 0 0
209 2 2.0857247992881027 15.924389437874124 2.1813322828612263 0 0 1
279 2 1.6082023239405299 13.637271782413057 1.4472563892409667 0 0 1
438 2 -0.04228380446105484 16.780571858298806 1.919693515779787 0 0 0
98 1 4.257301020165029 15.908100407291267 4.446028858352931 0 0 1
243 2 6.055359430774759 16.048967758807315 4.518655499678476 1 -1 0
266 2 6.792146068673053 14.69672665838113 0.6810718308212802 0 0 0
318 2 6.30915320590017 13.732893249363231 5.226282326111948 0 0 1
523 2 6.771576891029744 16.451882059727076 2.2665507392258974 0 0 0
780 2 11.94912855252466 16.370427640475953 3.9382150649574426 0 0 0
104 2 9.8644468424667 15.481573745517888 0.8468660992100425 1 0 1
263 2 11.286955479521277 13.821233043098026 3.6779180107807106 0 1 0
181 2 12.022349750175083 15.784848021244146 0.5700511183098298 0 0 1
693 2 10.000698549292164 13.342263544629393 1.7101468052439688 0 0 1
848 2 9.734696748907043 13.464601597173118 5.361482007788317 1 0 0
751 2 12.138726908801344 24.599861158331414 0.3147398919904151 0 0 1
619 2 1.7129957391414323 17.598866584339667 5.698337017158944 0 0 0
870 2 -0.20617537385867676 19.05581939917967 1.120798482796451 0 0 1
604 2 3.4472548151803264 17.23174219528009 0.736103505277163 0 0 0
863 2 -0.007936592884022542 20.745076018140608 2.908465727607357 0 0 0
37 1 3.0417500268178745 18.021113275512512 3.080788158588581 1 1 1
277 2 2.1831325010245224 21.136880405946748 3.7292161006243907 0 -1 0
558 2 3.689044631715335 19.383159815452473 3.6346676489091694 0 0 1
478 2 1.8545692833113931 18.829458753486385 -0.07001159886990543 0 0 1
783 2 3.9154699080974265 18.572297891033394 5.93917909388553 0 0 0
738 2 2.117174167665298 21.85797644738112 6.0731878114227245 0 0 0
805 2 8.760201660438428 23.84662022695364 3.24266644461318 0 0 1
354 2 6.945070084814919 19.382692773580253 4.670025436646734 0 0 0
200 2 5.610379249649252 19.795519987705333 2.668251096281541 0 0 0
628 2 5.499944278162119 18.438691603974455 0.7215879153683677 0 0 0
465 2 7.234599543029055 21.47619928517984 5.763429256984115 0 -1 0
965 2 6.487028290556526 17.68760442163451 6.17714513791902 0 0 0
661 2 8.817873495137725 17.44402284543773 1.772663110988753 1 0 0
197 2 10.34298164756233 17.502571327017577 5.302301085721162 0 0 0
954 2 12.179977436886416 19.760949385507878 2.666663101579707 0 0 0
741 2 9.103428788301988 18.86674524829182 3.7173706020033093 1 -1 0
816 2 10.056123159976915 20.68287107502271 2.8164323581590893 0 0 0
685 2 9.683410446403705 21.457016462206774 0.5517466602577107 -1 0 0
257 2 12.730757748012673 17.588512954673938 2.1694169208596947 0 0 0
567 2 0.1552447969342471 23.269144288487986 0.22155595235859538 1 0 0
512 2 2.3694330022561547 22.843331627327608 0.4795142254724505 1 0 0
249 2 3.1687552758276887 22.94594039376274 2.7604131811164043 1 0 0
237 2 3.0756609297240223 25.025513593643517 3.8294970547726237 0 -1 0
169 2 7.845272641182534 18.193118508568972 -0.3847850772350541 0 -1 0
135 2 8.135847020292468 25.716166702187188 5.914521592517384 0 0 0
163 2 5.4979464855248965 25.089644178996977 -0.30167976802449803 0 0 1
976 2 6.578668056815549 23.195579360536378 0.5551256732703178 0 -1 0
148 2 6.008942003057695 24.810040016187195 5.5362434784415715 0 0 0
580 2 5.431588585946747 22.229790565440503 2.3785346723945318 0 0 1
773 2 6.639651807458754 23.01622445776796 4.2151418042194235 0 0 0
865 2 8.787814673585197 23.57607851741232 0.9241940267700162 0 0 1
415 2 12.129214163831604 25.355773036808145 2.613434677502946 -1 -1 0
344 2 8.580180208259657 26.09039489291996 3.7342562065817138 0 0 1
726 2 12.030546778059376 22.262411898537238 -0.12037949566868522 0 -1 1
363 2 10.334744563815848 22.717640356285642 4.240243732084555 0 0 1
589 2 12.463522338540686 23.29092638613418 3.420186016949495 0 -1 0
488 2 1.6753984647725324 25.915782457803004 -0.2534963354144781 1 -1 1
552 2 2.7737841008384527 24.276105368082455 6.248089363750022 0 -1 0
559 2 4.65215195605554 26.43493712780699 4.506030554568023 1 -1 0
724 2 9.800510782746606 25.261345548162062 -0.3614987064088141 0 0 1
582 2 0.5616283197333176 13.675516840022738 6.9267762503918595 1 0 0
730 2 1.2224480312710495 14.886240566682996 8.699305197784907 0 -1 0
913 2 3.384872701314812 14.622118411601717 9.597318063705234 0 0 0
796 2 4.029266748381953 14.091323492378068 11.768536282577479 1 0 0
309 2 0.7770105951978457 16.000985953316892 12.375876445192944 1 0 0
933 2 1.4368176503839132 17.00225702159016 7.859244760999438 0 0 0
482 2 3.5773872777831617 16.975449647504746 8.908362359902483 0 0 0
645 2 11.57107017271182 19.171062438670987 6.421297463320204 0 0 0
518 2 6.730142943521692 16.227338805535084 10.867530610916134 0 0 0
602 2 6.224658046955246 13.998125478752334 11.579280539868812 0 0 0
736 2 7.9724587351312 14.188540800059096 6.762090232546653 0 0 0
507 2 8.220557232231345 13.108164410888087 8.917827219029892 0 0 0
281 2 -0.3915278020113888 18.366432742191925 8.352687342201849 1 0 0
490 2 9.259053978430574 24.584898307795612 7.509284826149969 0 -1 0
813 2 8.625907545196988 16.666301288917715 6.849945492883412 0 0 0
911 2 11.726434288899549 14.532739563129748 8.989785437058696 0 0 0
782 2 9.09446258594564 16.203737387874398 10.814636333291418 0 0 0
359 2 9.785996658653094 14.147428481137938 10.374097719651004 0 0 0
847 2 11.989944252468405 16.828567131564057 9.294786085651761 0 0 0
973 2 12.698539472941311 17.107425705565902 11.446348761593823 0 0 0
215 2 10.483828061870717 17.164236776425923 12.613599790415556 0 0 0
824 2 12.71983250610962 24.682731010666757 8.909628982902047 0 -1 0
809 2 9.379407858348578 22.396246628062606 6.400948410441295 0 0 0
236 2 2.9429071621657195 19.283259421004857 9.250495743379119 0 0 1
594 2 0.6798681958568351 20.10346400418006 9.354930890268513 1 -1 1
310 2 3.5541987607751917 20.392742568397743 7.211615099470326 0 0 0
255 2 3.825536777591074 20.21855532699336 11.20804113456323 0 0 0
888 2 -0.34603039667826274 21.947831856232625 12.049695257772216 0 0 0
916 2 8.918902922079226 22.695745884895587 12.528743934440788 1 0 0
246 2 5.988446230723204 17.36462140005424 8.636652536184975 0 0 0
754 2 6.664189203466137 19.525192140129825 9.237450770828186 0 0 0
840 2 6.299456012383514 20.295027609735726 11.527513328032477 0 0 0
304 2 5.8033094839794614 21.01697512484629 7.538259983119698 0 0 0
868 2 9.656238738810824 17.325304740868482 8.907792510506786 0 0 0
620 2 9.007417693292178 19.53120141186102 9.316259165199734 0 0 -1
613 2 10.350331381637885 20.65669650722316 7.671921778654609 0 0 0
501 2 9.69210498229369 20.80067389482167 11.206751678280112 0 0 0
126 2 11.528749366510182 21.021537869416754 9.648567328197233 0 -1 -1
439 2 11.033427981645746 26.072449800976983 8.268895074985483 0 0 1
616 2 0.7498689822347273 18.2787893533609 12.913418748415154 0 0 1
852 2 11.727924913276837 23.179713886184608 10.52553106303354 0 0 0
18 1 2.9580760356256834 25.43829079829993 10.492289967600527 0 -1 0
35 1 2.8748839754779008 22.001606500716314 9.240268507446144 1 -1 0
851 2 3.0730221705563907 22.308294501148474 10.758466562128493 0 -1 0
423 2 1.3483057041744553 23.37312508405188 11.487047883828485 0 0 0
881 2 1.236030859785759 25.485504391634585 7.593854017691136 0 -1 1
561 2 0.39384040857244396 24.262142657714662 9.443477665243515 1 -1 0
677 2 4.736182932096744 24.741013330256507 7.4060115151828585 0 0 0
632 2 4.444834086579421 25.980972567453655 10.611384308686395 1 -1 0
431 2 6.876190772903322 25.924393727845242 10.881414770580083 0 0 -1
827 2 4.949461357787083 23.558893878930427 10.934415136718698 0 0 0
119 2 5.858596888783506 23.075624033669648 8.83606669161366 0 0 0
959 2 8.048889388259399 24.191947793566882 9.537149551056912 0 -1 0
158 2 6.644271208059205 22.463120043620222 12.246485656071512 0 0 0
814 2 9.979391888213677 24.303127780926637 11.184600803883797 0 -1 0
609 2 -0.27143770268566003 15.11247280146703 10.502815170682837 0 0 0
453 2 -0.1690632682963753 19.68716856981296 11.386087917043248 1 0 0
963 2 11.333905259725196 13.063810005454888 7.169217415996992 0 0 0
244 2 9.829547408034195 19.40275308197861 12.988257204822675 0 0 0
551 2 -0.3301767420931295 22.016236161234417 6.318462871296143 0 -1 0
14 1 12.435142361903756 14.76570045491105 6.322252864310739 0 1 0
303 2 2.692175243793164 15.965966604401087 18.925587815211223 0 0 -1
759 2 2.704405683232588 16.44175476013546 16.70066050053994 1 0 0
298 2 0.5307979876079861 14.799712665080554 18.362006330924274 0 0 0
407 2 0.8654357118542186 13.598689976204717 16.23939537609786 0 0 0
748 2 2.6800522683460337 14.51889714360383 15.419177888925939 0 0 0
154 2 3.0113817036595454 15.581190689649672 13.232817213842415 1 0 0
762 2 7.656257200618532 13.280197445233117 13.309732081739645 0 0 0
896 2 4.421743858798463 14.607266856503188 19.22801520081007 0 0 -1
667 2 4.766676650038669 13.572358680989437 15.785595643069636 0 0 0
511 2 6.224733860297701 15.411625533708548 16.091059004245267 0 0 0
716 2 7.860103646193274 15.41554108665464 14.402325778510038 0 0 0
139 2 6.552296646178581 15.065322961955975 18.336829691607257 0 0 0
970 2 4.810973778533553 17.22159381969189 15.819946404974536 0 0 0
844 2 9.596868028201074 24.972114785302843 18.109370447250072 0 0 0
307 2 4.415862756506015 17.50052974999869 13.45255396069859 0 0 0
403 2 8.02686757905239 13.141555841340624 18.378783484449265 0 0 0
839 2 6.720867940336691 17.05552122061303 13.072389184131088 0 0 0
54 1 12.712589832430382 16.79219519458345 14.093896682115215 0 -1 -1
454 2 10.175851448099976 15.916354853421625 14.786010748519084 0 0 0
444 2 11.20464696768655 13.85467844012152 14.105670335521205 0 0 0
778 2 9.523387725183547 16.875308585499546 19.381063873599295 0 0 0
733 2 10.212587433960243 17.1784520022725 17.06147378153802 0 0 0
838 2 12.601001229242758 17.28061674598048 17.318070786471857 0 -1 0
380 2 11.66088326167335 13.387707179477868 17.717043871134294 0 0 0
283 2 10.097852597500529 13.2406415919151 19.32335159759755 0 0 0
457 2 3.1079144825923013 19.334075164263076 13.272958358798657 0 0 0
636 2 3.2062926687756805 18.235374967890458 19.39137814120997 0 0 0
172 2 1.1622599643488432 18.322118273362285 16.60708811647389 0 0 -1
698 2 2.3265426726043317 19.802875177915013 17.800825520646455 1 -1 0
595 2 0.6936442245189882 21.4374121682379 18.36208951224114 1 -1 0
725 2 3.624714620231269 21.437258144329988 14.416452922882632 0 0 -1
690 2 3.5110956168411294 13.230575287016228 17.65554947586576 1 0 0
260 2 4.145095365786247 20.680946823347675 16.4908694877538 1 0 0
763 2 7.912407982070462 23.651882181593784 19.247314584089615 0 -1 0
910 2 5.641681981605416 19.01738060329395 16.968732358949374 0 -1 0
771 2 7.525228592179818 19.650729928349328 15.748455373073357 1 0 0
470 2 5.52755684411344 18.62658615964809 19.31857150242363 0 0 0
333 2 7.545978033358737 19.17750422096328 13.36842896957679 0 0 0
435 2 9.567012015394402 26.194347772892968 14.022690664194082 0 -1 0
382 2 -0.30979130833689494 21.36740840510535 14.274765852860707 0 0 0
526 2 9.793035627804864 20.22374352101201 19.00458821818436 0 0 0
564 2 9.546774359980132 19.37809281963291 16.72472699717543 0 0 0
938 2 10.780903757214151 20.455331376951506 14.971982045980045 0 0 0
319 2 7.367978354780326 26.348132921597106 13.282683366672073 0 -1 0
818 2 1.5375968266854447 22.711716293794062 14.951924827882719 1 0 0
117 2 1.0579708757152089 23.24446461693715 17.164980394590117 0 0 0
424 2 2.822514155707256 23.89450640657006 18.32355118389475 0 0 -1
328 2 0.839658896797784 24.596105105472915 13.334167011474417 0 0 0
935 2 3.7434570140376513 25.897188307402033 17.506434320782255 0 -1 0
882 2 -0.1410591258879647 19.094674113164416 14.820266146225492 1 0 0
4 1 4.489518530612198 25.50130570080929 13.865286493011958 2 -1 0
418 2 7.49004988478498 22.168703823768745 15.908900001019552 0 -1 0
251 2 5.861706153423062 25.54056753564184 16.577629850073116 0 0 1
615 2 5.755872586086538 22.489829543604877 14.32350442224588 0 0 0
361 2 5.804392727403906 24.882148517362452 14.304806914603665 0 0 0
137 2 6.466098411242414 23.46346404138592 17.48143048234661 0 -1 0
272 2 4.558088828410554 22.233821177820175 18.15952013993339 0 0 0
66 1 -0.3610150632032523 15.336093955773851 13.219868432298156 0 0 1
939 2 11.345452659384929 26.139840524304695 19.200547770192223 0 -1 0
411 2 11.089908852397928 23.37953140422495 17.081908284966353 0 0 0
543 2 11.383415899358884 21.944307395543696 18.91439227035913 0 0 0
59 1 9.901482290133677 24.555974727728845 14.338670044224061 1 0 -1
929 2 9.660089612089344 22.540442703766686 14.965893589648907 0 -1 0
468 2 12.851514278090773 24.72374434082363 16.354308589799423 0 -1 0
995 2 7.223582683247857 17.156934581728635 19.68330445616914 0 0 0
456 2 -0.28864143702389966 18.056253393243054 18.47835492191144 0 0 0
118 2 0.5910833215969034 26.30363391659064 19.68783141567708 1 0 0
821 2 1.0053494466496475 13.837138887458922 23.898389802588753 1 0 -1
675 2 1.24452937951929 15.561675058350316 25.518207419994866 0 0 -1