 vasp.6.5.0 16Dec24 (build Jan 20 2025 08:32:48) complex                         
 executed on        HPECrayEX_GCC date 2025.07.22  12:00:36
 running  128 mpi-ranks, with    1 threads/rank, on    1 nodes
 distrk:  each k-point on  128 cores,    1 groups
 distr:  one band on NCORE=  16 cores,    8 groups


--------------------------------------------------------------------------------------------------------


 INCAR:
   SYSTEM = a-Si SPC
   NCORE = 16
   ISTART = 1
   ICHARG = 1
   ISPIN = 1
   ISYM = 1
   EDIFF = 1E-6
   NELM = 150
   EDIFFG = -0.01
   NSW = 0
   ISIF = 2
   IBRION = -1
   PREC = Accurate
   ENCUT = 1200
   KSPACING = 0.23
   KGAMMA = .TRUE.
   METAGGA = SCAN
   LASPH = .TRUE.
   LDIAG = .FALSE.
   LMIXTAU = .TRUE.
   ADDGRID = .TRUE.
   ALGO = Normal
   ISMEAR = 0
   SIGMA = 0.1
   LORBIT = 11
   NEDOS = 2000
   LWAVE = .FALSE.
   LCHARG = .FALSE.

 POTCAR:    PAW_PBE H 15Jun2001                   
 POTCAR:    PAW_PBE Si 05Jan2001                  
 POTCAR:    PAW_PBE H 15Jun2001                   
   SHA256 =  030f79b5d3ab3cf0e668861823c8fb652ff669f3e15e46930bd03bfd63a607b6 H/POTCAR              
   COPYR  = (c) Copyright 15Jun2001 Georg Kresse                                                    
   COPYR  = This file is part of the software VASP. Any use, copying, and all other rights are regul
   COPYR  = If you do not have a valid VASP license, you may not use, copy or distribute this file. 
   VRHFIN =H: ultrasoft test                                                                        
   LEXCH  = PE                                                                                      
   EATOM  =    12.4884 eV,    0.9179 Ry                                                             
                                                                                                    
   TITEL  = PAW_PBE H 15Jun2001                                                                     
   LULTRA =        F    use ultrasoft PP ?                                                          
   IUNSCR =        0    unscreen: 0-lin 1-nonlin 2-no                                               
   RPACOR =    0.000    partial core radius                                                         
   POMASS =    1.000; ZVAL   =    1.000    mass and valenz                                          
   RCORE  =    1.100    outmost cutoff radius                                                       
   RWIGS  =    0.700; RWIGS  =    0.370    wigner-seitz radius (au A)                               
   ENMAX  =  250.000; ENMIN  =  200.000 eV                                                          
   RCLOC  =    0.701    cutoff for local pot                                                        
   LCOR   =        T    correct aug charges                                                         
   LPAW   =        T    paw PP                                                                      
   EAUG   =  400.000                                                                                
   RMAX   =    1.123    core radius for proj-oper                                                   
   RAUG   =    1.200    factor for augmentation sphere                                              
   RDEP   =    1.112    radius for radial grids                                                     
   RDEPT  =    0.926    core radius for aug-charge                                                  
                                                                                                    
   Atomic configuration                                                                             
    2 entries                                                                                       
     n  l   j            E        occ.                                                              
     1  0  0.50        -6.4927   1.0000                                                             
     2  1  0.50        -3.4015   0.0000                                                             
   Description                                                                                      
     l       E           TYP  RCUT    TYP  RCUT                                                     
     0     -6.4927494     23  1.100                                                                 
     0      6.8029130     23  1.100                                                                 
     1     -4.0817478     23  1.100                                                                 
  local pseudopotential read in
  atomic valenz-charges read in
  non local Contribution for L=           0  read in
    real space projection operators read in
  non local Contribution for L=           0  read in
    real space projection operators read in
  non local Contribution for L=           1  read in
    real space projection operators read in
    PAW grid and wavefunctions read in

   number of l-projection  operators is LMAX  =           3
   number of lm-projection operators is LMMAX =           5

 POTCAR:    PAW_PBE Si 05Jan2001                  
   SHA256 =  79d9987ad8750f624c4d6acb2a16d13abf6a777132adc04dc6c8399be72b42bb Si/POTCAR             
   COPYR  = (c) Copyright 05Jan2001 Georg Kresse                                                    
   COPYR  = This file is part of the software VASP. Any use, copying, and all other rights are regul
   COPYR  = If you do not have a valid VASP license, you may not use, copy or distribute this file. 
   VRHFIN =Si: s2p2                                                                                 
   LEXCH  = PE                                                                                      
   EATOM  =   103.0669 eV,    7.5752 Ry                                                             
                                                                                                    
   TITEL  = PAW_PBE Si 05Jan2001                                                                    
   LULTRA =        F    use ultrasoft PP ?                                                          
   IUNSCR =        1    unscreen: 0-lin 1-nonlin 2-no                                               
   RPACOR =    1.500    partial core radius                                                         
   POMASS =   28.085; ZVAL   =    4.000    mass and valenz                                          
   RCORE  =    1.900    outmost cutoff radius                                                       
   RWIGS  =    2.480; RWIGS  =    1.312    wigner-seitz radius (au A)                               
   ENMAX  =  245.345; ENMIN  =  184.009 eV                                                          
   ICORE  =        2    local potential                                                             
   LCOR   =        T    correct aug charges                                                         
   LPAW   =        T    paw PP                                                                      
   EAUG   =  322.069                                                                                
   DEXC   =    0.000                                                                                
   RMAX   =    1.950    core radius for proj-oper                                                   
   RAUG   =    1.300    factor for augmentation sphere                                              
   RDEP   =    1.993    radius for radial grids                                                     
   RDEPT  =    1.837    core radius for aug-charge                                                  
                                                                                                    
   Atomic configuration                                                                             
    6 entries                                                                                       
     n  l   j            E        occ.                                                              
     1  0  0.50     -1785.8828   2.0000                                                             
     2  0  0.50      -139.4969   2.0000                                                             
     2  1  1.50       -95.5546   6.0000                                                             
     3  0  0.50       -10.8127   2.0000                                                             
     3  1  0.50        -4.0811   2.0000                                                             
     3  2  1.50        -4.0817   0.0000                                                             
   Description                                                                                      
     l       E           TYP  RCUT    TYP  RCUT                                                     
     0    -10.8127223     23  1.900                                                                 
     0     -7.6451159     23  1.900                                                                 
     1     -4.0811372     23  1.900                                                                 
     1      2.4879257     23  1.900                                                                 
     2     -4.0817478      7  1.900                                                                 
  local pseudopotential read in
  partial core-charges read in
  partial kinetic energy density read in
  atomic valenz-charges read in
  non local Contribution for L=           0  read in
    real space projection operators read in
  non local Contribution for L=           0  read in
    real space projection operators read in
  non local Contribution for L=           1  read in
    real space projection operators read in
  non local Contribution for L=           1  read in
    real space projection operators read in
    PAW grid and wavefunctions read in

   number of l-projection  operators is LMAX  =           4
   number of lm-projection operators is LMMAX =           8

 -----------------------------------------------------------------------------
|                                                                             |
|               ----> ADVICE to this user running VASP <----                  |
|                                                                             |
|     You have a (more or less) 'large supercell' and for larger cells it     |
|     might be more efficient to use real-space projection operators.         |
|     Therefore, try LREAL= Auto in the INCAR file.                           |
|     Mind: For very accurate calculation, you might also keep the            |
|     reciprocal projection scheme (i.e. LREAL=.FALSE.).                      |
|                                                                             |
 -----------------------------------------------------------------------------

 -----------------------------------------------------------------------------
|                                                                             |
|               ----> ADVICE to this user running VASP <----                  |
|                                                                             |
|     You enforced a specific xc type in the INCAR file but a different       |
|     type was found in the POTCAR file.                                      |
|     I HOPE YOU KNOW WHAT YOU ARE DOING!                                     |
|                                                                             |
 -----------------------------------------------------------------------------

  PAW_PBE H 15Jun2001                   :
 energy of atom  1       EATOM=  -12.4884
 kinetic energy error for atom=    0.0000 (will be added to EATOM!!)
  PAW_PBE Si 05Jan2001                  :
 energy of atom  2       EATOM= -103.0669
 kinetic energy error for atom=    0.0001 (will be added to EATOM!!)


 POSCAR:  H Si
  positions in cartesian coordinates
  No initial velocities read in


 exchange-correlation table for SCAN
   RHO(1)=    0.500       N(1)  =     2000
   RHO(2)=  100.500       N(2)  =     4000



--------------------------------------------------------------------------------------------------------


 ion  position               nearest neighbor table
   1  0.230  0.129  0.009-  11 0.79
   2  0.295  0.959  0.132-  23 0.78
   3  0.104  0.248  0.604-  56 1.41
   4  0.360  0.040  0.347-   6 0.66
   5  0.437  0.392  0.625-  35 1.55
   6  0.386  0.074  0.374-   4 0.66
   7  0.188  0.108  0.772-  18 0.75
   8  0.492  0.972  0.679-  69 1.48
   9  0.307  0.962  0.830-  12 0.82
  10  0.244  0.007  0.564-  22 0.75
  11  0.228  0.168  0.069-   1 0.79
  12  0.307  0.018  0.837-   9 0.82
  13  0.192  0.171  0.442-  20 0.75
  14  0.346  0.157  0.611-  17 0.78
  15  0.498  0.012  0.076-  49 1.44
  16  0.157  0.843  0.280-  80 1.55
  17  0.339  0.158  0.695-  14 0.78
  18  0.157  0.126  0.712-   7 0.75
  19  0.291  0.280  0.201-  91 1.49
  20  0.204  0.121  0.442-  13 0.75
  21  0.129  0.017  0.954-  58 1.48
  22  0.260  0.972  0.619-  10 0.75
  23  0.248  0.980  0.110-   2 0.78
  24  0.360  0.277  0.432-  91 1.45
  25  0.961  0.380  0.767-  76 2.40  66 2.44  89 2.46  56 2.47
  26  0.064  0.655  0.432-  47 2.34  38 2.36  80 2.36  84 2.50
  27  0.557  0.231  0.780-  31 2.32  35 2.42  93 2.57
  28  0.861  0.102  0.352-  88 2.33  82 2.44  64 2.52  86 2.58
  29  0.922  0.680  0.820-  84 2.30  73 2.32  48 2.35  59 2.36
  30  0.812  0.720  0.268-  44 2.33  87 2.46  67 2.49  92 2.60
  31  0.642  0.191  0.986-  27 2.32  34 2.42  36 2.44  49 2.61
  32  0.415  0.440  0.214-  91 2.30  42 2.35  61 2.37  40 2.38
  33  0.702  0.950  0.149-  82 2.33  44 2.33  49 2.42  88 2.49
  34  0.807  0.183  0.960-  88 2.31  90 2.33  31 2.42  89 2.46
  35  0.504  0.388  0.758-   5 1.55  81 2.31  27 2.42  42 2.44
  36  0.621  0.270  0.221-  52 2.25  86 2.27  31 2.44
  37  0.242  0.593  0.044-  40 2.22  71 2.23  41 2.34  72 2.35
  38  0.210  0.660  0.546-  60 2.28  45 2.30  26 2.36  43 2.40  50 2.97
  39  0.389  0.717  0.758-  50 2.28  45 2.33  41 2.49  68 2.54
  40  0.289  0.539  0.261-  37 2.22  83 2.32  43 2.37  32 2.38  91 3.00
  41  0.396  0.616  0.979-  37 2.34  42 2.43  55 2.44  39 2.49
  42  0.409  0.451  0.956-  32 2.35  41 2.43  35 2.44  72 2.59
  43  0.348  0.661  0.404-  78 2.22  50 2.24  40 2.37  38 2.40
  44  0.742  0.802  0.077-  30 2.33  33 2.33  59 2.34  51 2.36
  45  0.251  0.785  0.687-  77 2.28  38 2.30  39 2.33
  46  0.018  0.358  0.109-  89 2.33  66 2.36  75 2.37
  47  0.977  0.522  0.401-  26 2.34  75 2.35  87 2.40  76 2.50
  48  0.801  0.609  0.694-  29 2.35  67 2.35  85 2.36  76 2.38
  49  0.584  0.022  1.000-  15 1.44  69 2.28  33 2.42  31 2.61
  50  0.398  0.591  0.608-  43 2.24  39 2.28  65 2.36  60 2.41  38 2.97
  51  0.635  0.700  0.968-  55 2.28  44 2.36  85 2.49  68 2.54
  52  0.680  0.410  0.262-  36 2.25  61 2.33  53 2.47  62 2.49
  53  0.786  0.465  0.070-  89 2.40  85 2.41  52 2.47  87 2.48
  54  0.583  0.724  0.549-  65 2.33  67 2.46  68 2.48  78 2.61
  55  0.530  0.647  0.133-  51 2.28  78 2.39  41 2.44  61 2.48
  56  0.017  0.283  0.563-   3 1.41  64 2.30  75 2.44  25 2.47
  57  0.029  0.004  0.629-  74 2.33  64 2.41  58 2.50
  58  0.058  0.957  0.889-  21 1.48  70 2.39  77 2.43  57 2.50
  59  0.859  0.821  0.902-  70 2.30  79 2.30  44 2.34  29 2.36
  60  0.250  0.519  0.634-  38 2.28  83 2.31  72 2.31  50 2.41
  61  0.555  0.509  0.286-  52 2.33  32 2.37  65 2.45  55 2.48
  62  0.731  0.392  0.523-  81 2.35  93 2.40  76 2.45  52 2.49
  63  0.717  0.989  0.668-  69 2.33  79 2.33  90 2.53  82 2.60
  64  0.944  0.144  0.587-  56 2.30  57 2.41  90 2.49  28 2.52
  65  0.552  0.567  0.539-  81 2.27  54 2.33  50 2.36  61 2.45
  66  0.075  0.456  0.923-  46 2.36  72 2.44  25 2.44  73 2.45
  67  0.751  0.720  0.525-  48 2.35  54 2.46  30 2.49  79 2.55
  68  0.543  0.796  0.788-  69 2.39  54 2.48  39 2.54  51 2.54
  69  0.575  0.957  0.772-   8 1.48  49 2.28  63 2.33  68 2.39
  70  0.930  0.930  0.047-  59 2.30  58 2.39  88 2.40  92 2.40
  71  0.125  0.693  0.033-  37 2.23  73 2.26  80 2.35  77 2.49
  72  0.239  0.470  0.876-  60 2.31  37 2.35  66 2.44  42 2.59
  73  0.003  0.600  0.999-  71 2.26  29 2.32  66 2.45  87 2.46
  74  0.944  0.883  0.528-  57 2.33  79 2.36  84 2.40  92 2.49
  75  0.058  0.384  0.358-  47 2.35  46 2.37  56 2.44  83 2.50
  76  0.871  0.472  0.602-  48 2.38  25 2.40  62 2.45  47 2.50
  77  0.126  0.809  0.832-  45 2.28  58 2.43  71 2.49  84 2.55
  78  0.470  0.740  0.328-  43 2.22  55 2.39  54 2.61
  79  0.810  0.858  0.669-  59 2.30  63 2.33  74 2.36  67 2.55
  80  0.082  0.770  0.250-  16 1.55  92 2.20  71 2.35  26 2.36
  81  0.632  0.469  0.686-  65 2.27  35 2.31  62 2.35  85 2.44
  82  0.722  0.011  0.384-  33 2.33  86 2.38  28 2.44  63 2.60  88 3.05
  83  0.215  0.439  0.421-  91 2.24  60 2.31  40 2.32  75 2.50
  84  0.010  0.751  0.643-  29 2.30  74 2.40  26 2.50  77 2.55
  85  0.706  0.553  0.886-  48 2.36  53 2.41  81 2.44  51 2.49
  86  0.699  0.173  0.371-  93 2.22  36 2.27  82 2.38  28 2.58
  87  0.889  0.577  0.196-  47 2.40  30 2.46  73 2.46  53 2.48
  88  0.833  0.057  0.109-  34 2.31  28 2.33  70 2.40  33 2.49  82 3.05
  89  0.877  0.336  0.991-  46 2.33  53 2.40  25 2.46  34 2.46
  90  0.791  0.143  0.713-  34 2.33  93 2.34  64 2.49  63 2.53
  91  0.317  0.339  0.328-  24 1.45  19 1.49  83 2.24  32 2.30  40 3.00
  92  0.947  0.837  0.264-  80 2.20  70 2.40  74 2.49  30 2.60
  93  0.688  0.239  0.590-  86 2.22  90 2.34  62 2.40  27 2.57

  LATTYP: Found a simple tetragonal cell.
 ALAT       =    14.5607414187
 C/A-ratio  =     0.6234627598
  
  Lattice vectors:
  
 A1 = (  14.5607414187,   0.0000000000,   0.0000000000)
 A2 = (   0.0000000000,  14.5607414187,   0.0000000000)
 A3 = (   0.0000000000,   0.0000000000,   9.0780800302)


Analysis of symmetry for initial positions (statically):
=====================================================================
 Subroutine PRICEL returns:
 Original cell was already a primitive cell.
 

 Routine SETGRP: Setting up the symmetry group for a 
 simple tetragonal supercell.


 Subroutine GETGRP returns: Found  1 space group operations
 (whereof  1 operations were pure point group operations)
 out of a pool of 16 trial point group operations.


The static configuration has the point symmetry C_1 .


Analysis of symmetry for dynamics (positions and initial velocities):
=====================================================================
 Subroutine PRICEL returns:
 Original cell was already a primitive cell.
 

 Routine SETGRP: Setting up the symmetry group for a 
 simple tetragonal supercell.


 Subroutine GETGRP returns: Found  1 space group operations
 (whereof  1 operations were pure point group operations)
 out of a pool of 16 trial point group operations.


The dynamic configuration has the point symmetry C_1 .


 Subroutine INISYM returns: Found  1 space group operations
 (whereof  1 operations are pure point group operations),
 and found     1 'primitive' translations


----------------------------------------------------------------------------------------

                                     Primitive cell                                     

  volume of cell :    1924.6909

  direct lattice vectors                    reciprocal lattice vectors
    14.560741419  0.000000000  0.000000000     0.068677821  0.000000000  0.000000000
     0.000000000 14.560741419  0.000000000     0.000000000  0.068677821  0.000000000
     0.000000000  0.000000000  9.078080030     0.000000000  0.000000000  0.110155451

  length of vectors
    14.560741419 14.560741419  9.078080030     0.068677821  0.068677821  0.110155451

  position of ions in fractional coordinates (direct lattice)
     0.229557679  0.128958406  0.008940965
     0.294832514  0.958955289  0.132192049
     0.103730982  0.247972263  0.603800581
     0.359717946  0.040451237  0.347205575
     0.437053294  0.391956689  0.625002201
     0.385812085  0.073979749  0.373995381
     0.187859253  0.107519937  0.771900003
     0.492038131  0.972326861  0.678881435
     0.307005658  0.961510104  0.829787794
     0.243929200  0.006693670  0.563503514
     0.227907351  0.167978397  0.068680492
     0.306570241  0.017838309  0.837303700
     0.192178401  0.171397179  0.441960193
     0.345769481  0.156970029  0.610577345
     0.498217075  0.011736834  0.076316027
     0.157491293  0.843054598  0.279919321
     0.338935351  0.158391660  0.695275871
     0.157338829  0.126043032  0.712418262
     0.290998918  0.279813361  0.201419242
     0.204382450  0.121083120  0.442102293
     0.129292867  0.016822426  0.954054158
     0.260012172  0.971798042  0.619080244
     0.247632308  0.980427302  0.109896806
     0.360302395  0.277150722  0.432021968
     0.960871401  0.379721735  0.767416676
     0.064313895  0.655191225  0.431667267
     0.556953782  0.230977249  0.779632915
     0.861377841  0.101810750  0.351681191
     0.922150845  0.680351344  0.819935490
     0.811922941  0.720148768  0.267838573
     0.642030494  0.191208670  0.985673179
     0.415046860  0.440254367  0.213789699
     0.701688170  0.950171396  0.148551235
     0.806978138  0.183419918  0.960320902
     0.503720229  0.387535211  0.757955424
     0.621407231  0.269949166  0.220654587
     0.242209507  0.593394921  0.043999171
     0.209724211  0.659710912  0.545983290
     0.388957529  0.716783555  0.758017111
     0.288587640  0.539274737  0.260570516
     0.396289573  0.616223429  0.979156382
     0.409128892  0.450633646  0.955828762
     0.348357948  0.661430605  0.403861828
     0.742469060  0.801710549  0.077261381
     0.251232399  0.784657846  0.686657309
     0.017589008  0.358496855  0.108864429
     0.976893936  0.521507098  0.400586907
     0.801325953  0.608530826  0.693625742
     0.584188659  0.021703909  0.999612820
     0.397623983  0.591134734  0.608461259
     0.635491678  0.700314614  0.968068135
     0.680398045  0.410042994  0.262443159
     0.786422866  0.465211888  0.069755278
     0.583178408  0.724008462  0.548602786
     0.529809560  0.647480079  0.132688850
     0.017372673  0.282968420  0.562979174
     0.028837268  0.003954668  0.628511754
     0.057763405  0.957039178  0.889091082
     0.859221357  0.820631289  0.902362611
     0.249632206  0.518551204  0.634158322
     0.555307574  0.508965154  0.286289611
     0.730965525  0.391961497  0.523035706
     0.717202490  0.988816406  0.668272364
     0.943550854  0.143797623  0.586803595
     0.551738388  0.566931296  0.539344221
     0.074620513  0.456234323  0.922928634
     0.751431516  0.719990809  0.524702358
     0.542788981  0.796470431  0.787732646
     0.574559341  0.956846880  0.771728160
     0.929739744  0.929595521  0.047020185
     0.125473693  0.692657036  0.032887130
     0.239202792  0.470374399  0.876012326
     0.002748610  0.600470110  0.998777271
     0.943928582  0.883498967  0.527696383
     0.057674604  0.384042944  0.357987591
     0.870621875  0.471675844  0.602251796
     0.125698270  0.808715687  0.831554687
     0.469875798  0.739845568  0.327709162
     0.810041169  0.858321677  0.668733915
     0.082316550  0.769686081  0.250110155
     0.632085945  0.469042736  0.685622949
     0.721556664  0.011078969  0.383770576
     0.215068719  0.439474187  0.421233343
     0.009757333  0.750861490  0.642571995
     0.706413204  0.553377728  0.885573819
     0.699421802  0.172806448  0.370626827
     0.888780291  0.576933534  0.195547957
     0.832931487  0.057171196  0.109319041
     0.876747937  0.336313232  0.991378130
     0.791443215  0.143204933  0.712861087
     0.316624674  0.339298656  0.328386618
     0.947259456  0.837031553  0.264211154
     0.687698498  0.238730289  0.590093939

  ion indices of the primitive-cell ions
   primitive index   ion index
                 1           1
                 2           2
                 3           3
                 4           4
                 5           5
                 6           6
                 7           7
                 8           8
                 9           9
                10          10
                11          11
                12          12
                13          13
                14          14
                15          15
                16          16
                17          17
                18          18
                19          19
                20          20
                21          21
                22          22
                23          23
                24          24
                25          25
                26          26
                27          27
                28          28
                29          29
                30          30
                31          31
                32          32
                33          33
                34          34
                35          35
                36          36
                37          37
                38          38
                39          39
                40          40
                41          41
                42          42
                43          43
                44          44
                45          45
                46          46
                47          47
                48          48
                49          49
                50          50
                51          51
                52          52
                53          53
                54          54
                55          55
                56          56
                57          57
                58          58
                59          59
                60          60
                61          61
                62          62
                63          63
                64          64
                65          65
                66          66
                67          67
                68          68
                69          69
                70          70
                71          71
                72          72
                73          73
                74          74
                75          75
                76          76
                77          77
                78          78
                79          79
                80          80
                81          81
                82          82
                83          83
                84          84
                85          85
                86          86
                87          87
                88          88
                89          89
                90          90
                91          91
                92          92
                93          93

----------------------------------------------------------------------------------------


 -----------------------------------------------------------------------------
|                                                                             |
|           W    W    AA    RRRRR   N    N  II  N    N   GGGG   !!!           |
|           W    W   A  A   R    R  NN   N  II  NN   N  G    G  !!!           |
|           W    W  A    A  R    R  N N  N  II  N N  N  G       !!!           |
|           W WW W  AAAAAA  RRRRR   N  N N  II  N  N N  G  GGG   !            |
|           WW  WW  A    A  R   R   N   NN  II  N   NN  G    G                |
|           W    W  A    A  R    R  N    N  II  N    N   GGGG   !!!           |
|                                                                             |
|     The requested file  could not be found or opened for reading            |
|     k-point information. Automatic k-point generation is used as a          |
|     fallback, which may lead to unwanted results.                           |
|                                                                             |
 -----------------------------------------------------------------------------



Automatic generation of k-mesh.
 Grid dimensions derived from KSPACING:
 generate k-points for:    2    2    4

 Generating k-lattice:

  Cartesian coordinates                     Fractional coordinates (reciprocal lattice)
     0.034338911  0.000000000  0.000000000     0.500000000  0.000000000  0.000000000
     0.000000000  0.034338911  0.000000000     0.000000000  0.500000000  0.000000000
     0.000000000  0.000000000  0.027538863     0.000000000  0.000000000  0.250000000

  Length of vectors
     0.034338911  0.034338911  0.027538863

  Shift w.r.t. Gamma in fractional coordinates (k-lattice)
     0.000000000  0.000000000  0.000000000

 
 Subroutine IBZKPT returns following result:
 ===========================================
 
 Found     12 irreducible k-points:
 
 Following reciprocal coordinates:
            Coordinates               Weight
  0.000000  0.000000  0.000000      1.000000
  0.500000  0.000000  0.000000      1.000000
  0.000000  0.500000  0.000000      1.000000
  0.500000  0.500000  0.000000      1.000000
  0.000000  0.000000  0.250000      2.000000
  0.500000  0.000000  0.250000      2.000000
  0.000000  0.500000  0.250000      2.000000
  0.500000  0.500000  0.250000      2.000000
  0.000000  0.000000  0.500000      1.000000
  0.500000  0.000000  0.500000      1.000000
  0.000000  0.500000  0.500000      1.000000
  0.500000  0.500000  0.500000      1.000000
 
 Following cartesian coordinates:
            Coordinates               Weight
  0.000000  0.000000  0.000000      1.000000
  0.034339  0.000000  0.000000      1.000000
  0.000000  0.034339  0.000000      1.000000
  0.034339  0.034339  0.000000      1.000000
  0.000000  0.000000  0.027539      2.000000
  0.034339  0.000000  0.027539      2.000000
  0.000000  0.034339  0.027539      2.000000
  0.034339  0.034339  0.027539      2.000000
  0.000000  0.000000  0.055078      1.000000
  0.034339  0.000000  0.055078      1.000000
  0.000000  0.034339  0.055078      1.000000
  0.034339  0.034339  0.055078      1.000000
 


--------------------------------------------------------------------------------------------------------




 Dimension of arrays:
   k-points           NKPTS =     12   k-points in BZ     NKDIM =     12   number of bands    NBANDS=    200
   number of dos      NEDOS =   2000   number of ions     NIONS =     93
   non local maximal  LDIM  =      4   non local SUM 2l+1 LMDIM =      8
   total plane-waves  NPLWV = ******
   max r-space proj   IRMAX =      1   max aug-charges    IRDMAX= 423765
   dimension x,y,z NGX =   168 NGY =  168 NGZ =  108
   dimension x,y,z NGXF=   336 NGYF=  336 NGZF=  216
   support grid    NGXF=   672 NGYF=  672 NGZF=  432
   ions per type =              24  69
   NGX,Y,Z   is equivalent  to a cutoff of  19.18, 19.18, 19.78 a.u.
   NGXF,Y,Z  is equivalent  to a cutoff of  38.36, 38.36, 39.56 a.u.

 SYSTEM =  a-Si SPC                                
 POSCAR =   H Si                                   

 Startparameter for this run:
   NWRITE =      2    write-flag & timer
   PREC   = accura    normal or accurate (medium, high low for compatibility)
   ISTART =      1    job   : 0-new  1-cont  2-samecut
   ICHARG =      1    charge: 1-file 2-atom 10-const
   ISPIN  =      1    spin polarized calculation?
   LNONCOLLINEAR =      F non collinear calculations
   LSORBIT =      F    spin-orbit coupling
   INIWAV =      1    electr: 0-lowe 1-rand  2-diag
   LASPH  =      T    aspherical Exc in radial PAW
 Electronic Relaxation 1
   ENCUT  = 1200.0 eV  88.20 Ry    9.39 a.u.  41.13 41.13 25.64*2*pi/ulx,y,z
   ENINI  = 1200.0     initial cutoff
   ENAUG  =  400.0 eV  augmentation charge cutoff
   NELM   =    150;   NELMIN=  2; NELMDL=  0     # of ELM steps 
   EDIFF  = 0.1E-05   stopping-criterion for ELM
   LREAL  =      F    real-space projection
   NLSPLINE    = F    spline interpolate recip. space projectors
   LCOMPAT=      F    compatible to vasp.4.4
   GGA_COMPAT  = T    GGA compatible to vasp.4.4-vasp.4.6
   LMAXPAW     = -100 max onsite density
   LMAXMIX     =    2 max onsite mixed and CHGCAR
   VOSKOWN=      0    Vosko Wilk Nusair interpolation
   ROPT   =    0.00000   0.00000
 Ionic relaxation
   EDIFFG = -.1E-01   stopping-criterion for IOM
   NSW    =      0    number of steps for IOM
   NBLOCK =      1;   KBLOCK =      1    inner block; outer block 
   IBRION =     -1    ionic relax: 0-MD 1-quasi-New 2-CG
   NFREE  =      0    steps in history (QN), initial steepest desc. (CG)
   ISIF   =      2    stress and relaxation
   IWAVPR =     10    prediction:  0-non 1-charg 2-wave 3-comb
   ISYM   =      1    0-nonsym 1-usesym 2-fastsym
   LCORR  =      T    Harris-Foulkes like correction to forces

   POTIM  = 0.5000    time-step for ionic-motion
   TEIN   =    0.0    initial temperature
   TEBEG  =    0.0;   TEEND  =   0.0 temperature during run
   SMASS  =  -3.00    Nose mass-parameter (am)
   estimated Nose-frequenzy (Omega)   =  0.10E-29 period in steps = 0.13E+47 mass=  -0.485E-26a.u.
   SCALEE = 1.0000    scale energy and forces
   NPACO  =    256;   APACO  = 10.0  distance and # of slots for P.C.
   PSTRESS=    0.0 pullay stress

  Mass of Ions in am
   POMASS =   1.00 28.09
  Ionic Valenz
   ZVAL   =   1.00  4.00
  Atomic Wigner-Seitz radii
   RWIGS  =  -1.00 -1.00
  virtual crystal weights 
   VCA    =   1.00  1.00
   NELECT =     300.0000    total number of electrons
   NUPDOWN=      -1.0000    fix difference up-down

 DOS related values:
   EMIN   =  10.00;   EMAX   =-10.00  energy-range for DOS
   EFERMI =   0.00;   METHOD = LEGACY      
   ISMEAR =     0;   SIGMA  =   0.10  broadening in eV -4-tet -1-fermi 0-gaus
   EFERMI_NEDOS =   21; number of points for ismear=-14 and -15

 Electronic relaxation 2 (details)
   IALGO  =     38    algorithm
   LDIAG  =      F    sub-space diagonalisation (order eigenvalues)
   LSUBROT=      F    optimize rotation matrix (better conditioning)
   TURBO    =      0    0=normal 1=particle mesh
   IRESTART =      0    0=no restart 2=restart with 2 vectors
   NREBOOT  =      0    no. of reboots
   NMIN     =      0    reboot dimension
   EREF     =   0.00    reference energy to select bands
   IMIX   =      4    mixing-type and parameters
     AMIX     =   0.40;   BMIX     =  1.00
     AMIX_MAG =   1.60;   BMIX_MAG =  1.00
     AMIN     =   0.10
     WC   =   100.;   INIMIX=   1;  MIXPRE=   1;  MAXMIX= -45

 Intra band minimization:
   WEIMIN = 0.0000     energy-eigenvalue tresh-hold
   EBREAK =  0.13E-08  absolut break condition
   DEPER  =   0.30     relativ break condition  

   TIME   =   0.40     timestep for ELM

  volume/ion in A,a.u.               =      20.70       139.66
  Fermi-wavevector in a.u.,A,eV,Ry     =   0.881039  1.664921 10.561236  0.776229
  Thomas-Fermi vector in A             =   2.001480

 Write flags
   LWAVE        =      F    write WAVECAR
   LDOWNSAMPLE  =      F    k-point downsampling of WAVECAR
   LCHARG       =      F    write CHGCAR
   LVTOT        =      F    write LOCPOT, total local potential
   LVHAR        =      F    write LOCPOT, Hartree potential only
   WRT_POTENTIAL= false  ! write potential to hdf5 file
   LELF         =      F    write electronic localiz. function (ELF)
   LORBIT       =     11    0 simple, 1 ext, 2 COOP (PROOUT), +10 PAW based schemes


 Python interface
   PLUGINS active      =      F    recompile with -DPLUGINS to activate

 Dipole corrections
   LMONO      =      F    monopole corrections only (constant potential shift)
   LDIPOL     =      F    correct potential (dipole corrections)
   IDIPOL     =      0    1-x, 2-y, 3-z, 4-all directions 
   EPSILON    =  1.0000000 bulk dielectric constant
   LVACPOTAV  =      F  vacuum potentials using an averaging scheme for the charge density
   VACPOTFLAT =  0.1000000 required flatness to determine vacuum potential

Coulomb truncation method
  LTRUNCATE          =      F  Coulomb kernel truncation to be used
  IDIMENSIONALITY    =      3  Dimensionality of cutoff (0 molecules / 2 surfaces)
  ISURFACE           =     -1  Direction of surface normal
  LCOARSEN           =      F  Coarsen the charge grid before padding, preferred


 Exchange correlation treatment:
   METAGGA = SCAN    functional components
   XC_C    = 1    coefficients multiplying the functional components
   LIBXC   =     F    Libxc                    
   VOSKOWN =     0    Vosko Wilk Nusair interpolation
   LHFCALC =     F    Hartree Fock is set to
   LHFONE  =     F    Hartree Fock one center treatment
   AEXX    =    0.0000 exact exchange contribution

 Parameters of functionals:
   SCAN:
     P1 =  0.000000E+00
     P2 =  0.000000E+00
     P3 =  0.000000E+00

 Accuracy and mixing parameters for tau-dependent meta-GGA functionals:
   LMAXTAU = 6
   LMIXTAU = T

 Van der Waals corrections
   IVDW    =     0    specifies the selected vdW correction

 Linear response parameters
   LEPSILON=     F    determine dielectric tensor
   LRPA    =     F    only Hartree local field effects (RPA)
   LNABLA  =     F    use nabla operator in PAW spheres
   LVEL    =     F    velocity operator in full k-point grid
   CSHIFT  =0.1000    complex shift for real part using Kramers Kronig
   OMEGAMAX=  -1.0    maximum frequency
   DEG_THRESHOLD= 0.2000000E-02 threshold for treating states as degnerate
   RTIME   =   -0.100 relaxation time in fs
  (WPLASMAI=    0.000 imaginary part of plasma frequency in eV, 0.658/RTIME)
   DFIELD  = 0.0000000 0.0000000 0.0000000 field for delta impulse in time

  Optional k-point grid parameters
   LKPOINTS_OPT  =     F    use optional k-point grid
   KPOINTS_OPT_MODE=     1    mode for optional k-point grid

 Orbital magnetization related:
   ORBITALMAG=     F  switch on orbital magnetization
   LCHIMAG   =     F  perturbation theory with respect to B field
   DQ        =  0.001000  dq finite difference perturbation B field
   LLRAUG    =     F  two centre corrections for induced B field
   LBONE     =     F  B-component reconstruction in AE one-centre
   LVGVCALC  =     T  calculate vGv susceptibility
   LVGVAPPL  =     F  apply vGv susceptibility instead of pGv for G=0

 Random number generation:
   RANDOM_GENERATOR = DEFAULT
   PCG_SEED         = not used


--------------------------------------------------------------------------------------------------------


 Static calculation
 charge density and potential will be updated during run
 non-spin polarized calculation
 Variant of blocked Davidson
 perform Loewdin sub-space diagonalisation
    ordering is kept fixed
    before iterative eigenvector-optimisation
 modified Broyden-mixing scheme, WC =      100.0
 initial mixing is a Kerker type mixing with AMIX =  0.4000 and BMIX =      1.0000
 Hartree-type preconditioning will be used
 using additional bands           50
 reciprocal scheme for non local part
 use partial core corrections
 calculate Harris-corrections to forces   (improved forces if not selfconsistent)
 use gradient corrections 
 use of overlap-Matrix (Vanderbilt PP)
 Gauss-broadening in eV      SIGMA  =   0.10


--------------------------------------------------------------------------------------------------------


  energy-cutoff  :     1200.00
  volume of cell :     1924.69
      direct lattice vectors                 reciprocal lattice vectors
    14.560741419  0.000000000  0.000000000     0.068677821  0.000000000  0.000000000
     0.000000000 14.560741419  0.000000000     0.000000000  0.068677821  0.000000000
     0.000000000  0.000000000  9.078080030     0.000000000  0.000000000  0.110155451

  length of vectors
    14.560741419 14.560741419  9.078080030     0.068677821  0.068677821  0.110155451



 old parameters found on file WAVECAR:
  energy-cutoff  :     1200.00
  volume of cell :     1924.69
      direct lattice vectors                 reciprocal lattice vectors
    14.560741419  0.000000000  0.000000000     0.068677821  0.000000000  0.000000000
     0.000000000 14.560741419  0.000000000     0.000000000  0.068677821  0.000000000
     0.000000000  0.000000000  9.078080030     0.000000000  0.000000000  0.110155451

  length of vectors


 k-points in units of 2pi/SCALE and weight: read from INCAR                         
   0.00000000  0.00000000  0.00000000       0.062
   0.03433891  0.00000000  0.00000000       0.062
   0.00000000  0.03433891  0.00000000       0.062
   0.03433891  0.03433891  0.00000000       0.062
   0.00000000  0.00000000  0.02753886       0.125
   0.03433891  0.00000000  0.02753886       0.125
   0.00000000  0.03433891  0.02753886       0.125
   0.03433891  0.03433891  0.02753886       0.125
   0.00000000  0.00000000  0.05507773       0.062
   0.03433891  0.00000000  0.05507773       0.062
   0.00000000  0.03433891  0.05507773       0.062
   0.03433891  0.03433891  0.05507773       0.062

 k-points in reciprocal lattice and weights: read from INCAR                         
   0.00000000  0.00000000  0.00000000       0.062
   0.50000000  0.00000000  0.00000000       0.062
   0.00000000  0.50000000  0.00000000       0.062
   0.50000000  0.50000000  0.00000000       0.062
   0.00000000  0.00000000  0.25000000       0.125
   0.50000000  0.00000000  0.25000000       0.125
   0.00000000  0.50000000  0.25000000       0.125
   0.50000000  0.50000000  0.25000000       0.125
   0.00000000  0.00000000  0.50000000       0.062
   0.50000000  0.00000000  0.50000000       0.062
   0.00000000  0.50000000  0.50000000       0.062
   0.50000000  0.50000000  0.50000000       0.062

 position of ions in fractional coordinates (direct lattice) 
   0.22955768  0.12895841  0.00894097
   0.29483251  0.95895529  0.13219205
   0.10373098  0.24797226  0.60380058
   0.35971795  0.04045124  0.34720558
   0.43705329  0.39195669  0.62500220
   0.38581208  0.07397975  0.37399538
   0.18785925  0.10751994  0.77190000
   0.49203813  0.97232686  0.67888144
   0.30700566  0.96151010  0.82978779
   0.24392920  0.00669367  0.56350351
   0.22790735  0.16797840  0.06868049
   0.30657024  0.01783831  0.83730370
   0.19217840  0.17139718  0.44196019
   0.34576948  0.15697003  0.61057734
   0.49821708  0.01173683  0.07631603
   0.15749129  0.84305460  0.27991932
   0.33893535  0.15839166  0.69527587
   0.15733883  0.12604303  0.71241826
   0.29099892  0.27981336  0.20141924
   0.20438245  0.12108312  0.44210229
   0.12929287  0.01682243  0.95405416
   0.26001217  0.97179804  0.61908024
   0.24763231  0.98042730  0.10989681
   0.36030239  0.27715072  0.43202197
   0.96087140  0.37972174  0.76741668
   0.06431390  0.65519122  0.43166727
   0.55695378  0.23097725  0.77963292
   0.86137784  0.10181075  0.35168119
   0.92215084  0.68035134  0.81993549
   0.81192294  0.72014877  0.26783857
   0.64203049  0.19120867  0.98567318
   0.41504686  0.44025437  0.21378970
   0.70168817  0.95017140  0.14855124
   0.80697814  0.18341992  0.96032090
   0.50372023  0.38753521  0.75795542
   0.62140723  0.26994917  0.22065459
   0.24220951  0.59339492  0.04399917
   0.20972421  0.65971091  0.54598329
   0.38895753  0.71678356  0.75801711
   0.28858764  0.53927474  0.26057052
   0.39628957  0.61622343  0.97915638
   0.40912889  0.45063365  0.95582876
   0.34835795  0.66143060  0.40386183
   0.74246906  0.80171055  0.07726138
   0.25123240  0.78465785  0.68665731
   0.01758901  0.35849685  0.10886443
   0.97689394  0.52150710  0.40058691
   0.80132595  0.60853083  0.69362574
   0.58418866  0.02170391  0.99961282
   0.39762398  0.59113473  0.60846126
   0.63549168  0.70031461  0.96806813
   0.68039805  0.41004299  0.26244316
   0.78642287  0.46521189  0.06975528
   0.58317841  0.72400846  0.54860279
   0.52980956  0.64748008  0.13268885
   0.01737267  0.28296842  0.56297917
   0.02883727  0.00395467  0.62851175
   0.05776340  0.95703918  0.88909108
   0.85922136  0.82063129  0.90236261
   0.24963221  0.51855120  0.63415832
   0.55530757  0.50896515  0.28628961
   0.73096553  0.39196150  0.52303571
   0.71720249  0.98881641  0.66827236
   0.94355085  0.14379762  0.58680360
   0.55173839  0.56693130  0.53934422
   0.07462051  0.45623432  0.92292863
   0.75143152  0.71999081  0.52470236
   0.54278898  0.79647043  0.78773265
   0.57455934  0.95684688  0.77172816
   0.92973974  0.92959552  0.04702018
   0.12547369  0.69265704  0.03288713
   0.23920279  0.47037440  0.87601233
   0.00274861  0.60047011  0.99877727
   0.94392858  0.88349897  0.52769638
   0.05767460  0.38404294  0.35798759
   0.87062188  0.47167584  0.60225180
   0.12569827  0.80871569  0.83155469
   0.46987580  0.73984557  0.32770916
   0.81004117  0.85832168  0.66873392
   0.08231655  0.76968608  0.25011015
   0.63208595  0.46904274  0.68562295
   0.72155666  0.01107897  0.38377058
   0.21506872  0.43947419  0.42123334
   0.00975733  0.75086149  0.64257200
   0.70641320  0.55337773  0.88557382
   0.69942180  0.17280645  0.37062683
   0.88878029  0.57693353  0.19554796
   0.83293149  0.05717120  0.10931904
   0.87674794  0.33631323  0.99137813
   0.79144321  0.14320493  0.71286109
   0.31662467  0.33929866  0.32838662
   0.94725946  0.83703155  0.26421115
   0.68769850  0.23873029  0.59009394

 position of ions in cartesian coordinates  (Angst):
   3.34253000  1.87773000  0.08116680
   4.29298000 13.96310000  1.20005000
   1.51040000  3.61066000  5.48135000
   5.23776000  0.58900000  3.15196000
   6.36382000  5.70718000  5.67382000
   5.61771000  1.07720000  3.39516000
   2.73537000  1.56557000  7.00737000
   7.16444000 14.15780000  6.16294000
   4.47023000 14.00030000  7.53288000
   3.55179000  0.09746480  5.11553000
   3.31850000  2.44589000  0.62348700
   4.46389000  0.25973900  7.60111000
   2.79826000  2.49567000  4.01215000
   5.03466000  2.28560000  5.54287000
   7.25441000  0.17089700  0.69280300
   2.29319000 12.27550000  2.54113000
   4.93515000  2.30630000  6.31177000
   2.29097000  1.83528000  6.46739000
   4.23716000  4.07429000  1.82850000
   2.97596000  1.76306000  4.01344000
   1.88260000  0.24494700  8.66098000
   3.78597000 14.15010000  5.62006000
   3.60571000 14.27574842  0.99765200
   5.24627000  4.03552000  3.92193000
  13.99100000  5.52903000  6.96667000
   0.93645800  9.54007000  3.91871000
   8.10966000  3.36320000  7.07757000
  12.54230000  1.48244000  3.19259000
  13.42720000  9.90642000  7.44344000
  11.82220000 10.48590000  2.43146000
   9.34844000  2.78414000  8.94802000
   6.04339000  6.41043000  1.94080000
  10.21710000 13.83520000  1.34856000
  11.75020000  2.67073000  8.71787000
   7.33454000  5.64280000  6.88078000
   9.04815000  3.93066000  2.00312000
   3.52675000  8.64027000  0.39942800
   3.05374000  9.60588000  4.95648000
   5.66351000 10.43690000  6.88134000
   4.20205000  7.85224000  2.36548000
   5.77027000  8.97267000  8.88886000
   5.95722000  6.56156000  8.67709000
   5.07235000  9.63092000  3.66629000
  10.81090000 11.67350000  0.70138500
   3.65813000 11.42520000  6.23353000
   0.25610900  5.21998000  0.98828000
  14.22430000  7.59353000  3.63656000
  11.66790000  8.86066000  6.29679000
   8.50622000  0.31602500  9.07456518
   5.78970000  8.60736000  5.52366000
   9.25323000 10.19710000  8.78820000
   9.90710000  5.97053000  2.38248000
  11.45090000  6.77383000  0.63324400
   8.49151000 10.54210000  4.98026000
   7.71442000  9.42779000  1.20456000
   0.25295900  4.12023000  5.11077000
   0.41989200  0.05758290  5.70568000
   0.84107800 13.93520000  8.07124000
  12.51090000 11.94900000  8.19172000
   3.63483000  7.55049000  5.75694000
   8.08569000  7.41091000  2.59896000
  10.64340000  5.70725000  4.74816000
  10.44300000 14.39790000  6.06663000
  13.73880000  2.09380000  5.32705000
   8.03372000  8.25494000  4.89621000
   1.08653000  6.64311000  8.37842000
  10.94140000 10.48360000  4.76329000
   7.90341000 11.59720000  7.15110000
   8.36601000 13.93240000  7.00581000
  13.53770000 13.53560000  0.42685300
   1.82699000 10.08560000  0.29855200
   3.48297000  6.84900000  7.95251000
   0.04002180  8.74329000  9.06698000
  13.74430000 12.86440000  4.79047000
   0.83978500  5.59195000  3.24984000
  12.67690000  6.86795000  5.46729000
   1.83026000 11.77550000  7.54892000
   6.84174000 10.77270000  2.97497000
  11.79480000 12.49780000  6.07082000
   1.19859000 11.20720000  2.27052000
   9.20364000  6.82961000  6.22414000
  10.50640000  0.16131800  3.48390000
   3.13156000  6.39907000  3.82399000
   0.14207400 10.93310000  5.83332000
  10.28590000  8.05759000  8.03931000
  10.18410000  2.51619000  3.36458000
  12.94130000  8.40058000  1.77520000
  12.12810000  0.83245500  0.99240700
  12.76610000  4.89697000  8.99981000
  11.52400000  2.08517000  6.47141000
   4.61029000  4.94044000  2.98112000
  13.79280000 12.18780000  2.39853000
  10.01340000  3.47609000  5.35692000



--------------------------------------------------------------------------------------------------------


 k-point     1 :   0.0000 0.0000 0.0000  plane waves:  181771
 k-point     2 :   0.5000 0.0000 0.0000  plane waves:  181618
 k-point     3 :   0.0000 0.5000 0.0000  plane waves:  181618
 k-point     4 :   0.5000 0.5000 0.0000  plane waves:  181668
 k-point     5 :   0.0000 0.0000 0.2500  plane waves:  181631
 k-point     6 :   0.5000 0.0000 0.2500  plane waves:  181762
 k-point     7 :   0.0000 0.5000 0.2500  plane waves:  181762
 k-point     8 :   0.5000 0.5000 0.2500  plane waves:  181704
 k-point     9 :   0.0000 0.0000 0.5000  plane waves:  181572
 k-point    10 :   0.5000 0.0000 0.5000  plane waves:  181688
 k-point    11 :   0.0000 0.5000 0.5000  plane waves:  181688
 k-point    12 :   0.5000 0.5000 0.5000  plane waves:  181648

 maximum and minimum number of plane-waves per node :     11416    11296

 maximum number of plane-waves:    181771
 maximum index in each direction: 
   IXMAX=   41   IYMAX=   41   IZMAX=   25
   IXMIN=  -41   IYMIN=  -41   IZMIN=  -26


 parallel 3D FFT for wavefunctions:
    minimum data exchange during FFTs selected (reduces bandwidth)
 parallel 3D FFT for charge:
    minimum data exchange during FFTs selected (reduces bandwidth)


 total amount of memory used by VASP MPI-rank0   184485. kBytes
=======================================================================

   base                                    :      30000. kBytes
   nonl-proj                               :      34376. kBytes
   fftplans                                :      36865. kBytes
   grid                                    :      28430. kBytes
   one-center                              :         18. kBytes
   wavefun                                 :      54796. kBytes

     INWAV:  cpu time      9.9251: real time      9.9284
 Broyden mixing: mesh for mixing (old mesh)
   NGX = 83   NGY = 83   NGZ = 51
  (NGX  =336   NGY  =336   NGZ  =216)
  gives a total of 351339 points

 initial charge density was supplied:
 number of electron     299.9999999 magnetization 
 keeping initial charge density in first step


--------------------------------------------------------------------------------------------------------


 Maximum index for augmentation-charges        11837 (set IRDMAX)


--------------------------------------------------------------------------------------------------------


 First call to EWALD:  gamma=   0.142
 Maximum number of real-space cells   2x   2x   4
 Maximum number of reciprocal cells   3x   3x   2

    FEWALD:  cpu time      0.0173: real time      0.0176


--------------------------------------- Ionic step        1  -------------------------------------------




--------------------------------------- Iteration      1(   1)  ---------------------------------------


    POTLOK:  cpu time      0.6525: real time      0.6540
    SETDIJ:  cpu time      1.2765: real time      1.2778
    EDDIAG:  cpu time     21.4621: real time     21.4803
     EDDAV:  cpu time    102.7074: real time    102.8030
       DOS:  cpu time      0.0109: real time      0.0109
    CHARGE:  cpu time      9.0295: real time      9.0372
    MIXING:  cpu time      0.0214: real time      0.0220
    --------------------------------------------
      LOOP:  cpu time    135.1604: real time    135.2853

 eigenvalue-minimisations  :  5056
 total energy-change (2. order) :-0.7962834E+03  (-0.8834088E+00)
 number of electron     299.9999999 magnetization 
 augmentation part      -14.9338023 magnetization 

 Broyden mixing:
  rms(total) = 0.10550E+01    rms(broyden)= 0.44856E+02
  rms(prec ) = 0.11521E+01
  weight for this iteration     100.00
  WARNING: grid for Broyden might be to small

 Free energy of the ion-electron system (eV)
  ---------------------------------------------------
  alpha Z        PSCENC =        99.62488576
  Ewald energy   TEWEN  =     -5202.64150682
  -Hartree energ DENC   =     -2824.45600671
  -exchange      EXHF   =         0.00000000
  -V(xc)+E(xc)   XCENC  =      -264.04264752
  PAW double counting   =     26165.89052782   -25478.27123213
  entropy T*S    EENTRO =        -0.12682658
  eigenvalues    EBANDS =      -703.59294412
  atomic energy  EATOM  =      7411.33235869
  Solvation  Ediel_sol  =         0.00000000
  ---------------------------------------------------
  free energy    TOTEN  =      -796.28339162 eV

  energy without entropy =     -796.15656504  energy(sigma->0) =     -796.21997833


--------------------------------------------------------------------------------------------------------




--------------------------------------- Iteration      1(   2)  ---------------------------------------


    POTLOK:  cpu time      0.6385: real time      0.6525
    SETDIJ:  cpu time      1.2751: real time      1.2762
    EDDIAG:  cpu time     21.5115: real time     21.5291
     EDDAV:  cpu time     99.4223: real time     99.5123
       DOS:  cpu time      0.0041: real time      0.0041
    CHARGE:  cpu time      8.5716: real time      8.5783
    MIXING:  cpu time      0.0145: real time      0.0148
    --------------------------------------------
      LOOP:  cpu time    131.4377: real time    131.5672

 eigenvalue-minimisations  :  4824
 total energy-change (2. order) : 0.5370894E+02  (-0.8214541E+00)
 number of electron     299.9999999 magnetization 
 augmentation part      -14.8723146 magnetization 

 Broyden mixing:
  rms(total) = 0.70476E+00    rms(broyden)= 0.25686E+02
  rms(prec ) = 0.75374E+00
  weight for this iteration     100.00
  WARNING: grid for Broyden might be to small

 eigenvalues of (default mixing * dielectric matrix)
  average eigenvalue GAMMA=   0.6359
  0.6359

 Free energy of the ion-electron system (eV)
  ---------------------------------------------------
  alpha Z        PSCENC =        99.62488576
  Ewald energy   TEWEN  =     -5202.64150682
  -Hartree energ DENC   =     -2815.27347111
  -exchange      EXHF   =         0.00000000
  -V(xc)+E(xc)   XCENC  =      -257.39886890
  PAW double counting   =     31360.87434308   -30673.04918279
  entropy T*S    EENTRO =        -0.12948249
  eigenvalues    EBANDS =      -665.91352244
  atomic energy  EATOM  =      7411.33235869
  Solvation  Ediel_sol  =         0.00000000
  ---------------------------------------------------
  free energy    TOTEN  =      -742.57444702 eV

  energy without entropy =     -742.44496453  energy(sigma->0) =     -742.50970578


--------------------------------------------------------------------------------------------------------




--------------------------------------- Iteration      1(   3)  ---------------------------------------


    POTLOK:  cpu time      0.6375: real time      0.6535
    SETDIJ:  cpu time      1.2709: real time      1.2714
    EDDIAG:  cpu time     21.6103: real time     21.6277
     EDDAV:  cpu time     99.3137: real time     99.3999
       DOS:  cpu time      0.0060: real time      0.0060
    CHARGE:  cpu time      8.8118: real time      8.8198
    MIXING:  cpu time      0.0131: real time      0.0131
    --------------------------------------------
      LOOP:  cpu time    131.6633: real time    131.7915

 eigenvalue-minimisations  :  4800
 total energy-change (2. order) :-0.2417148E+01  (-0.6202894E+00)
 number of electron     299.9999999 magnetization 
 augmentation part      -14.8271905 magnetization 

 Broyden mixing:
  rms(total) = 0.42594E+00    rms(broyden)= 0.17965E+02
  rms(prec ) = 0.47529E+00
  weight for this iteration     100.00
  WARNING: grid for Broyden might be to small

 eigenvalues of (default mixing * dielectric matrix)
  average eigenvalue GAMMA=   0.6603
  0.7105  0.6100

 Free energy of the ion-electron system (eV)
  ---------------------------------------------------
  alpha Z        PSCENC =        99.62488576
  Ewald energy   TEWEN  =     -5202.64150682
  -Hartree energ DENC   =     -2817.89088399
  -exchange      EXHF   =         0.00000000
  -V(xc)+E(xc)   XCENC  =      -261.03803448
  PAW double counting   =     35457.17921350   -34769.42150999
  entropy T*S    EENTRO =        -0.12112202
  eigenvalues    EBANDS =      -662.01499573
  atomic energy  EATOM  =      7411.33235869
  Solvation  Ediel_sol  =         0.00000000
  ---------------------------------------------------
  free energy    TOTEN  =      -744.99159508 eV

  energy without entropy =     -744.87047307  energy(sigma->0) =     -744.93103408


--------------------------------------------------------------------------------------------------------




--------------------------------------- Iteration      1(   4)  ---------------------------------------


    POTLOK:  cpu time      0.6420: real time      0.6577
    SETDIJ:  cpu time      1.2723: real time      1.2729
    EDDIAG:  cpu time     21.6028: real time     21.6204
     EDDAV:  cpu time    107.0287: real time    107.1255
       DOS:  cpu time      0.0042: real time      0.0042
    CHARGE:  cpu time      8.6928: real time      8.6993
    MIXING:  cpu time      0.0128: real time      0.0128
    --------------------------------------------
      LOOP:  cpu time    139.2556: real time    139.3928

 eigenvalue-minimisations  :  5448
 total energy-change (2. order) :-0.2559589E+00  (-0.1276797E+00)
 number of electron     299.9999999 magnetization 
 augmentation part      -14.8182544 magnetization 

 Broyden mixing:
  rms(total) = 0.16967E+00    rms(broyden)= 0.16068E+01
  rms(prec ) = 0.32847E+00
  weight for this iteration     100.00
  WARNING: grid for Broyden might be to small

 eigenvalues of (default mixing * dielectric matrix)
  average eigenvalue GAMMA=   0.7143
  1.0142  0.6326  0.4960

 Free energy of the ion-electron system (eV)
  ---------------------------------------------------
  alpha Z        PSCENC =        99.62488576
  Ewald energy   TEWEN  =     -5202.64150682
  -Hartree energ DENC   =     -2822.13603370
  -exchange      EXHF   =         0.00000000
  -V(xc)+E(xc)   XCENC  =      -261.18900699
  PAW double counting   =     41559.40370811   -40871.70221587
  entropy T*S    EENTRO =        -0.11927511
  eigenvalues    EBANDS =      -657.82046803
  atomic energy  EATOM  =      7411.33235869
  Solvation  Ediel_sol  =         0.00000000
  ---------------------------------------------------
  free energy    TOTEN  =      -745.24755395 eV

  energy without entropy =     -745.12827885  energy(sigma->0) =     -745.18791640


--------------------------------------------------------------------------------------------------------




--------------------------------------- Iteration      1(   5)  ---------------------------------------


    POTLOK:  cpu time      0.6355: real time      0.6538
    SETDIJ:  cpu time      1.2723: real time      1.2728
    EDDIAG:  cpu time     21.6213: real time     21.6399
     EDDAV:  cpu time    105.5981: real time    105.6926
       DOS:  cpu time      0.0046: real time      0.0046
    CHARGE:  cpu time      8.7231: real time      8.7303
    MIXING:  cpu time      0.0135: real time      0.0135
    --------------------------------------------
      LOOP:  cpu time    137.8684: real time    138.0075

 eigenvalue-minimisations  :  5320
 total energy-change (2. order) : 0.5077850E-01  (-0.6927230E-01)
 number of electron     299.9999999 magnetization 
 augmentation part      -14.8220178 magnetization 

 Broyden mixing:
  rms(total) = 0.66965E-01    rms(broyden)= 0.18239E+01
  rms(prec ) = 0.12083E+00
  weight for this iteration     100.00
  WARNING: grid for Broyden might be to small

 eigenvalues of (default mixing * dielectric matrix)
  average eigenvalue GAMMA=   0.9200
  1.9779  0.7253  0.6165  0.3602

 Free energy of the ion-electron system (eV)
  ---------------------------------------------------
  alpha Z        PSCENC =        99.62488576
  Ewald energy   TEWEN  =     -5202.64150682
  -Hartree energ DENC   =     -2822.78951028
  -exchange      EXHF   =         0.00000000
  -V(xc)+E(xc)   XCENC  =      -262.00135740
  PAW double counting   =     41862.22263380   -41174.51485082
  entropy T*S    EENTRO =        -0.11985353
  eigenvalues    EBANDS =      -656.30957485
  atomic energy  EATOM  =      7411.33235869
  Solvation  Ediel_sol  =         0.00000000
  ---------------------------------------------------
  free energy    TOTEN  =      -745.19677545 eV

  energy without entropy =     -745.07692192  energy(sigma->0) =     -745.13684869


--------------------------------------------------------------------------------------------------------




--------------------------------------- Iteration      1(   6)  ---------------------------------------


    POTLOK:  cpu time      0.6373: real time      0.6539
    SETDIJ:  cpu time      1.2735: real time      1.2740
    EDDIAG:  cpu time     21.6285: real time     21.6468
     EDDAV:  cpu time    102.3371: real time    102.4293
       DOS:  cpu time      0.0054: real time      0.0054
    CHARGE:  cpu time      8.7591: real time      8.7668
    MIXING:  cpu time      0.0131: real time      0.0131
    --------------------------------------------
      LOOP:  cpu time    134.6539: real time    134.7893

 eigenvalue-minimisations  :  5032
 total energy-change (2. order) :-0.2782117E-02  (-0.1111717E-01)
 number of electron     299.9999999 magnetization 
 augmentation part      -14.8209408 magnetization 

 Broyden mixing:
  rms(total) = 0.35496E-01    rms(broyden)= 0.44295E+00
  rms(prec ) = 0.57843E-01
  weight for this iteration     100.00
  WARNING: grid for Broyden might be to small

 eigenvalues of (default mixing * dielectric matrix)
  average eigenvalue GAMMA=   0.9633
  2.4428  0.8390  0.6176  0.5817  0.3354

 Free energy of the ion-electron system (eV)
  ---------------------------------------------------
  alpha Z        PSCENC =        99.62488576
  Ewald energy   TEWEN  =     -5202.64150682
  -Hartree energ DENC   =     -2823.13933685
  -exchange      EXHF   =         0.00000000
  -V(xc)+E(xc)   XCENC  =      -262.21719290
  PAW double counting   =     41630.99793033   -40943.27674234
  entropy T*S    EENTRO =        -0.13153414
  eigenvalues    EBANDS =      -655.74841929
  atomic energy  EATOM  =      7411.33235869
  Solvation  Ediel_sol  =         0.00000000
  ---------------------------------------------------
  free energy    TOTEN  =      -745.19955757 eV

  energy without entropy =     -745.06802342  energy(sigma->0) =     -745.13379050


--------------------------------------------------------------------------------------------------------




--------------------------------------- Iteration      1(   7)  ---------------------------------------


    POTLOK:  cpu time      0.6357: real time      0.6526
    SETDIJ:  cpu time      1.2732: real time      1.2739
    EDDIAG:  cpu time     21.6486: real time     21.6674
     EDDAV:  cpu time    103.1514: real time    103.2459
       DOS:  cpu time      0.0049: real time      0.0049
    CHARGE:  cpu time      8.8307: real time      8.8392
    MIXING:  cpu time      0.0135: real time      0.0135
    --------------------------------------------
      LOOP:  cpu time    135.5581: real time    135.6975

 eigenvalue-minimisations  :  5088
 total energy-change (2. order) : 0.1981847E-02  (-0.1066093E-02)
 number of electron     299.9999999 magnetization 
 augmentation part      -14.8212091 magnetization 

 Broyden mixing:
  rms(total) = 0.17935E-01    rms(broyden)= 0.23278E+00
  rms(prec ) = 0.22666E-01
  weight for this iteration     100.00
  WARNING: grid for Broyden might be to small

 eigenvalues of (default mixing * dielectric matrix)
  average eigenvalue GAMMA=   0.9076
  2.5315  0.8667  0.6224  0.6224  0.4808  0.3216

 Free energy of the ion-electron system (eV)
  ---------------------------------------------------
  alpha Z        PSCENC =        99.62488576
  Ewald energy   TEWEN  =     -5202.64150682
  -Hartree energ DENC   =     -2823.21885595
  -exchange      EXHF   =         0.00000000
  -V(xc)+E(xc)   XCENC  =      -262.28165546
  PAW double counting   =     41582.59347713   -40894.86540233
  entropy T*S    EENTRO =        -0.12982516
  eigenvalues    EBANDS =      -655.61105157
  atomic energy  EATOM  =      7411.33235869
  Solvation  Ediel_sol  =         0.00000000
  ---------------------------------------------------
  free energy    TOTEN  =      -745.19757572 eV

  energy without entropy =     -745.06775056  energy(sigma->0) =     -745.13266314


--------------------------------------------------------------------------------------------------------




--------------------------------------- Iteration      1(   8)  ---------------------------------------


    POTLOK:  cpu time      0.6371: real time      0.6534
    SETDIJ:  cpu time      1.2730: real time      1.2741
    EDDIAG:  cpu time     21.6242: real time     21.6437
     EDDAV:  cpu time    106.8979: real time    106.9938
       DOS:  cpu time      0.0052: real time      0.0053
    CHARGE:  cpu time      8.8006: real time      8.8090
    MIXING:  cpu time      0.0138: real time      0.0139
    --------------------------------------------
      LOOP:  cpu time    139.2519: real time    139.3931

 eigenvalue-minimisations  :  5408
 total energy-change (2. order) :-0.4754011E-03  (-0.3099486E-03)
 number of electron     299.9999999 magnetization 
 augmentation part      -14.8201620 magnetization 

 Broyden mixing:
  rms(total) = 0.10489E-01    rms(broyden)= 0.13352E+00
  rms(prec ) = 0.13436E-01
  weight for this iteration     100.00
  WARNING: grid for Broyden might be to small

 eigenvalues of (default mixing * dielectric matrix)
  average eigenvalue GAMMA=   0.8713
  2.5723  1.0062  0.6965  0.6259  0.5209  0.2992  0.3783

 Free energy of the ion-electron system (eV)
  ---------------------------------------------------
  alpha Z        PSCENC =        99.62488576
  Ewald energy   TEWEN  =     -5202.64150682
  -Hartree energ DENC   =     -2823.41313605
  -exchange      EXHF   =         0.00000000
  -V(xc)+E(xc)   XCENC  =      -262.20571295
  PAW double counting   =     41577.35042334   -40889.61424013
  entropy T*S    EENTRO =        -0.12990910
  eigenvalues    EBANDS =      -655.50121387
  atomic energy  EATOM  =      7411.33235869
  Solvation  Ediel_sol  =         0.00000000
  ---------------------------------------------------
  free energy    TOTEN  =      -745.19805112 eV

  energy without entropy =     -745.06814202  energy(sigma->0) =     -745.13309657


--------------------------------------------------------------------------------------------------------




--------------------------------------- Iteration      1(   9)  ---------------------------------------


    POTLOK:  cpu time      0.6361: real time      0.6536
    SETDIJ:  cpu time      1.2714: real time      1.2720
    EDDIAG:  cpu time     21.5784: real time     21.5984
     EDDAV:  cpu time    111.0528: real time    111.1568
       DOS:  cpu time      0.0052: real time      0.0052
    CHARGE:  cpu time      8.6032: real time      8.6103
    MIXING:  cpu time      0.0137: real time      0.0137
    --------------------------------------------
      LOOP:  cpu time    143.1610: real time    143.3102

 eigenvalue-minimisations  :  5768
 total energy-change (2. order) :-0.4295158E-03  (-0.1245481E-03)
 number of electron     299.9999999 magnetization 
 augmentation part      -14.8192356 magnetization 

 Broyden mixing:
  rms(total) = 0.63001E-02    rms(broyden)= 0.67564E-01
  rms(prec ) = 0.11286E-01
  weight for this iteration     100.00
  WARNING: grid for Broyden might be to small

 eigenvalues of (default mixing * dielectric matrix)
  average eigenvalue GAMMA=   0.9187
  2.5503  1.4849  0.8934  0.6469  0.6469  0.4728  0.2930  0.3614

 Free energy of the ion-electron system (eV)
  ---------------------------------------------------
  alpha Z        PSCENC =        99.62488576
  Ewald energy   TEWEN  =     -5202.64150682
  -Hartree energ DENC   =     -2823.65116556
  -exchange      EXHF   =         0.00000000
  -V(xc)+E(xc)   XCENC  =      -262.11948782
  PAW double counting   =     41587.75395318   -40900.00891445
  entropy T*S    EENTRO =        -0.12975362
  eigenvalues    EBANDS =      -655.35884999
  atomic energy  EATOM  =      7411.33235869
  Solvation  Ediel_sol  =         0.00000000
  ---------------------------------------------------
  free energy    TOTEN  =      -745.19848064 eV

  energy without entropy =     -745.06872702  energy(sigma->0) =     -745.13360383


--------------------------------------------------------------------------------------------------------




--------------------------------------- Iteration      1(  10)  ---------------------------------------


    POTLOK:  cpu time      0.6522: real time      0.6552
    SETDIJ:  cpu time      1.2715: real time      1.2721
    EDDIAG:  cpu time     21.6261: real time     21.6463
     EDDAV:  cpu time    104.1948: real time    104.2946
       DOS:  cpu time      0.0051: real time      0.0051
    CHARGE:  cpu time      8.7046: real time      8.7130
    MIXING:  cpu time      0.0143: real time      0.0143
    --------------------------------------------
      LOOP:  cpu time    136.4685: real time    136.6006

 eigenvalue-minimisations  :  5160
 total energy-change (2. order) : 0.4470596E-05  (-0.3082226E-04)
 number of electron     299.9999999 magnetization 
 augmentation part      -14.8192640 magnetization 

 Broyden mixing:
  rms(total) = 0.25527E-02    rms(broyden)= 0.50761E-01
  rms(prec ) = 0.37887E-02
  weight for this iteration     100.00
  WARNING: grid for Broyden might be to small

 eigenvalues of (default mixing * dielectric matrix)
  average eigenvalue GAMMA=   0.8840
  2.5579  1.5909  0.9237  0.6704  0.6428  0.5798  0.3019  0.3444  0.3444

 Free energy of the ion-electron system (eV)
  ---------------------------------------------------
  alpha Z        PSCENC =        99.62488576
  Ewald energy   TEWEN  =     -5202.64150682
  -Hartree energ DENC   =     -2823.67734814
  -exchange      EXHF   =         0.00000000
  -V(xc)+E(xc)   XCENC  =      -262.12602962
  PAW double counting   =     41595.77359054   -40908.02608444
  entropy T*S    EENTRO =        -0.12998348
  eigenvalues    EBANDS =      -655.32835866
  atomic energy  EATOM  =      7411.33235869
  Solvation  Ediel_sol  =         0.00000000
  ---------------------------------------------------
  free energy    TOTEN  =      -745.19847617 eV

  energy without entropy =     -745.06849269  energy(sigma->0) =     -745.13348443


--------------------------------------------------------------------------------------------------------




--------------------------------------- Iteration      1(  11)  ---------------------------------------


    POTLOK:  cpu time      0.6366: real time      0.6548
    SETDIJ:  cpu time      1.2707: real time      1.2713
    EDDIAG:  cpu time     21.6065: real time     21.6259
     EDDAV:  cpu time    102.2687: real time    102.3640
       DOS:  cpu time      0.0049: real time      0.0049
    CHARGE:  cpu time      8.9470: real time      8.9550
    MIXING:  cpu time      0.0146: real time      0.0146
    --------------------------------------------
      LOOP:  cpu time    134.7490: real time    134.8906

 eigenvalue-minimisations  :  5032
 total energy-change (2. order) : 0.3268186E-05  (-0.1522729E-04)
 number of electron     299.9999999 magnetization 
 augmentation part      -14.8192219 magnetization 

 Broyden mixing:
  rms(total) = 0.12862E-02    rms(broyden)= 0.16618E-01
  rms(prec ) = 0.17444E-02
  weight for this iteration     100.00
  WARNING: grid for Broyden might be to small

 eigenvalues of (default mixing * dielectric matrix)
  average eigenvalue GAMMA=   0.9746
  2.5767  2.4615  1.0288  0.8631  0.6578  0.6324  0.5147  0.2933  0.3675  0.3504

 Free energy of the ion-electron system (eV)
  ---------------------------------------------------
  alpha Z        PSCENC =        99.62488576
  Ewald energy   TEWEN  =     -5202.64150682
  -Hartree energ DENC   =     -2823.68070201
  -exchange      EXHF   =         0.00000000
  -V(xc)+E(xc)   XCENC  =      -262.12485335
  PAW double counting   =     41596.78583150   -40909.03671526
  entropy T*S    EENTRO =        -0.13005815
  eigenvalues    EBANDS =      -655.32771325
  atomic energy  EATOM  =      7411.33235869
  Solvation  Ediel_sol  =         0.00000000
  ---------------------------------------------------
  free energy    TOTEN  =      -745.19847290 eV

  energy without entropy =     -745.06841475  energy(sigma->0) =     -745.13344383


--------------------------------------------------------------------------------------------------------




--------------------------------------- Iteration      1(  12)  ---------------------------------------


    POTLOK:  cpu time      0.6368: real time      0.6542
    SETDIJ:  cpu time      1.2710: real time      1.2716
    EDDIAG:  cpu time     21.7319: real time     21.7505
     EDDAV:  cpu time    106.9052: real time    107.0007
       DOS:  cpu time      0.0054: real time      0.0054
    CHARGE:  cpu time      8.7378: real time      8.7446
    MIXING:  cpu time      0.0147: real time      0.0147
    --------------------------------------------
      LOOP:  cpu time    139.3027: real time    139.4417

 eigenvalue-minimisations  :  5384
 total energy-change (2. order) :-0.1522685E-04  (-0.3345718E-05)
 number of electron     299.9999999 magnetization 
 augmentation part      -14.8192801 magnetization 

 Broyden mixing:
  rms(total) = 0.52603E-03    rms(broyden)= 0.15142E-01
  rms(prec ) = 0.70750E-03
  weight for this iteration     100.00
  WARNING: grid for Broyden might be to small

 eigenvalues of (default mixing * dielectric matrix)
  average eigenvalue GAMMA=   1.0315
  2.8901  2.6475  1.1643  1.0410  0.7838  0.6541  0.6251  0.5186  0.2927  0.3825
  0.3467

 Free energy of the ion-electron system (eV)
  ---------------------------------------------------
  alpha Z        PSCENC =        99.62488576
  Ewald energy   TEWEN  =     -5202.64150682
  -Hartree energ DENC   =     -2823.65893583
  -exchange      EXHF   =         0.00000000
  -V(xc)+E(xc)   XCENC  =      -262.12793848
  PAW double counting   =     41594.48450473   -40906.73369942
  entropy T*S    EENTRO =        -0.12997850
  eigenvalues    EBANDS =      -655.34817826
  atomic energy  EATOM  =      7411.33235869
  Solvation  Ediel_sol  =         0.00000000
  ---------------------------------------------------
  free energy    TOTEN  =      -745.19848813 eV

  energy without entropy =     -745.06850963  energy(sigma->0) =     -745.13349888


--------------------------------------------------------------------------------------------------------




--------------------------------------- Iteration      1(  13)  ---------------------------------------


    POTLOK:  cpu time      0.6361: real time      0.6527
    SETDIJ:  cpu time      1.2716: real time      1.2723
    EDDIAG:  cpu time     21.6825: real time     21.7037
     EDDAV:  cpu time    106.8555: real time    106.9520
       DOS:  cpu time      0.0060: real time      0.0060
    CHARGE:  cpu time      8.8226: real time      8.8310
    MIXING:  cpu time      0.0148: real time      0.0148
    --------------------------------------------
      LOOP:  cpu time    139.2891: real time    139.4325

 eigenvalue-minimisations  :  5392
 total energy-change (2. order) :-0.4877191E-05  (-0.8486846E-06)
 number of electron     299.9999999 magnetization 
 augmentation part      -14.8193432 magnetization 

 Broyden mixing:
  rms(total) = 0.25449E-03    rms(broyden)= 0.15580E-01
  rms(prec ) = 0.39048E-03
  weight for this iteration     100.00
  WARNING: grid for Broyden might be to small

 eigenvalues of (default mixing * dielectric matrix)
  average eigenvalue GAMMA=   1.0589
  3.1613  2.6108  1.4035  1.0008  1.0008  0.7229  0.6314  0.6314  0.5256  0.2927
  0.3800  0.3457

 Free energy of the ion-electron system (eV)
  ---------------------------------------------------
  alpha Z        PSCENC =        99.62488576
  Ewald energy   TEWEN  =     -5202.64150682
  -Hartree energ DENC   =     -2823.62946380
  -exchange      EXHF   =         0.00000000
  -V(xc)+E(xc)   XCENC  =      -262.13401815
  PAW double counting   =     41593.50206347   -40905.75078629
  entropy T*S    EENTRO =        -0.12999935
  eigenvalues    EBANDS =      -655.37202651
  atomic energy  EATOM  =      7411.33235869
  Solvation  Ediel_sol  =         0.00000000
  ---------------------------------------------------
  free energy    TOTEN  =      -745.19849300 eV

  energy without entropy =     -745.06849365  energy(sigma->0) =     -745.13349333


--------------------------------------------------------------------------------------------------------




--------------------------------------- Iteration      1(  14)  ---------------------------------------


    POTLOK:  cpu time      0.6538: real time      0.6552
    SETDIJ:  cpu time      1.2714: real time      1.2720
    EDDIAG:  cpu time     21.7130: real time     21.7319
     EDDAV:  cpu time     93.7137: real time     93.7970
       DOS:  cpu time      0.0052: real time      0.0052
    CHARGE:  cpu time      8.9099: real time      8.9170
    MIXING:  cpu time      0.0149: real time      0.0149
    --------------------------------------------
      LOOP:  cpu time    126.2819: real time    126.3933

 eigenvalue-minimisations  :  4272
 total energy-change (2. order) :-0.1117529E-05  (-0.2957287E-06)
 number of electron     299.9999999 magnetization 
 augmentation part      -14.8193726 magnetization 

 Broyden mixing:
  rms(total) = 0.15156E-03    rms(broyden)= 0.33995E-02
  rms(prec ) = 0.26048E-03
  weight for this iteration     100.00
  WARNING: grid for Broyden might be to small

 eigenvalues of (default mixing * dielectric matrix)
  average eigenvalue GAMMA=   1.1154
  3.4160  2.6061  1.9219  1.0879  1.0879  0.8982  0.2927  0.3456  0.3801  0.5254
  0.6871  0.6256  0.6256

 Free energy of the ion-electron system (eV)
  ---------------------------------------------------
  alpha Z        PSCENC =        99.62488576
  Ewald energy   TEWEN  =     -5202.64150682
  -Hartree energ DENC   =     -2823.61059627
  -exchange      EXHF   =         0.00000000
  -V(xc)+E(xc)   XCENC  =      -262.13751545
  PAW double counting   =     41592.49046759   -40904.73914030
  entropy T*S    EENTRO =        -0.13000631
  eigenvalues    EBANDS =      -655.38744101
  atomic energy  EATOM  =      7411.33235869
  Solvation  Ediel_sol  =         0.00000000
  ---------------------------------------------------
  free energy    TOTEN  =      -745.19849412 eV

  energy without entropy =     -745.06848781  energy(sigma->0) =     -745.13349097


--------------------------------------------------------------------------------------------------------




--------------------------------------- Iteration      1(  15)  ---------------------------------------


    POTLOK:  cpu time      0.6365: real time      0.6544
    SETDIJ:  cpu time      1.2732: real time      1.2737
    EDDIAG:  cpu time     21.6870: real time     21.7053
     EDDAV:  cpu time     83.1692: real time     83.2409
       DOS:  cpu time      0.0050: real time      0.0050
    --------------------------------------------
      LOOP:  cpu time    106.7713: real time    106.8797

 eigenvalue-minimisations  :  3408
 total energy-change (2. order) :-0.2930501E-06  (-0.9328595E-07)
[...]
   0.132E+01 0.244E+02 0.869E+01   -.363E+01 -.261E+02 -.917E+01   0.294E+01 0.239E+01 0.691E+00   0.761E-03 0.205E-03 -.190E-03
   0.124E+02 0.325E+02 -.555E+01   -.119E+02 -.324E+02 0.631E+01   -.474E+00 0.261E+00 0.459E-01   0.991E-03 -.399E-03 -.921E-04
   0.200E+02 -.730E+02 0.217E+02   -.200E+02 0.708E+02 -.203E+02   0.523E-01 0.265E+01 -.162E+01   0.432E-03 -.254E-03 0.179E-03
   0.757E+01 -.363E+02 -.299E+01   -.754E+01 0.372E+02 0.186E+01   -.116E+01 -.123E+01 0.188E+01   0.298E-03 -.338E-03 -.247E-03
   -.339E+02 0.365E+02 0.133E+02   0.381E+02 -.393E+02 -.108E+02   -.515E+01 0.393E+01 -.223E+01   -.670E-04 0.650E-03 -.161E-03
   -.778E+02 -.489E+02 0.171E+02   0.796E+02 0.483E+02 -.190E+02   -.177E+01 0.866E+00 0.246E+01   -.347E-03 0.234E-03 0.122E-03
   -.580E+02 -.682E+02 -.183E+02   0.594E+02 0.693E+02 0.194E+02   -.127E+01 -.139E+01 -.173E+01   -.279E-03 0.991E-04 0.141E-03
   -.235E+01 -.328E+02 -.428E+01   0.185E+01 0.331E+02 0.455E+01   0.159E+00 -.887E+00 0.522E-03   0.895E-04 -.176E-03 0.148E-03
   0.113E+02 0.697E+02 -.208E+02   -.112E+02 -.666E+02 0.208E+02   0.683E+00 -.312E+01 0.718E+00   -.586E-03 -.417E-03 0.132E-03
   0.783E+00 0.265E+02 0.745E+01   -.614E+00 -.273E+02 -.773E+01   -.678E+00 0.165E+01 0.277E+00   0.270E-03 -.150E-03 -.896E-04
   -.769E+01 0.352E+02 0.162E+02   0.654E+01 -.356E+02 -.144E+02   0.153E+01 0.332E+00 -.179E+01   0.685E-03 0.185E-03 -.261E-04
   0.430E+02 -.253E+02 0.800E+01   -.429E+02 0.230E+02 -.829E+01   0.211E+00 0.274E+01 -.132E+01   0.325E-03 -.124E-04 0.210E-03
   -.543E+02 -.105E+01 0.293E+01   0.546E+02 0.760E+00 -.191E+01   -.164E+01 -.101E+01 -.196E+01   0.115E-03 0.610E-03 0.964E-04
   0.433E+01 0.126E+02 0.904E+01   -.399E+01 -.120E+02 -.723E+01   -.844E+00 -.448E+00 -.222E+01   0.236E-03 -.275E-03 0.727E-04
   -.416E+02 0.591E+02 0.127E+02   0.399E+02 -.601E+02 -.120E+02   0.117E+01 0.260E+00 -.714E+00   -.740E-03 -.728E-03 0.903E-03
   0.248E+02 -.234E+02 0.282E+02   -.262E+02 0.234E+02 -.264E+02   0.724E+00 0.981E+00 -.185E+01   0.321E-03 -.295E-03 -.411E-04
   0.476E+02 -.622E+02 -.122E+02   -.475E+02 0.626E+02 0.117E+02   0.334E-01 -.205E+01 -.685E-01   0.270E-03 -.142E-03 0.199E-03
   0.741E+02 -.359E+02 0.140E+02   -.754E+02 0.366E+02 -.142E+02   0.109E+01 -.123E+01 -.211E+00   0.338E-03 -.112E-03 0.222E-03
   -.536E+02 -.675E+02 -.154E+02   0.533E+02 0.670E+02 0.144E+02   0.929E+00 0.128E+01 0.891E+00   -.684E-04 0.727E-05 -.260E-04
   -.461E+02 -.508E+02 -.365E+01   0.448E+02 0.493E+02 0.469E+01   0.855E+00 0.349E+01 -.113E+01   -.409E-03 -.689E-03 0.143E-03
   -.512E+00 0.104E+03 0.435E+01   0.504E+00 -.101E+03 -.447E+01   -.163E+00 -.300E+01 0.701E+00   -.812E-03 -.262E-03 0.236E-03
   -.114E+02 0.234E+02 -.387E+01   0.127E+02 -.209E+02 0.317E+01   -.202E+01 -.328E+01 0.648E+00   0.262E-04 -.107E-02 0.141E-03
   -.344E+02 -.574E+02 0.310E+02   0.346E+02 0.572E+02 -.279E+02   -.523E-01 -.733E-01 -.318E+01   -.427E-04 -.141E-03 -.744E-04
   -.309E+02 0.804E+02 0.100E+02   0.296E+02 -.782E+02 -.102E+02   0.145E+01 -.185E+01 0.538E+00   -.595E-03 0.200E-03 -.109E-02
   -.138E+02 0.360E+02 0.114E+02   0.136E+02 -.351E+02 -.984E+01   0.260E+00 -.395E+00 -.191E+01   0.511E-03 -.191E-03 -.694E-04
   -.544E+02 -.659E+02 -.188E+02   0.550E+02 0.657E+02 0.172E+02   -.147E+01 -.186E+00 0.144E+01   -.386E-03 -.282E-03 0.202E-03
   0.158E+02 -.125E+03 0.200E+02   -.166E+02 0.124E+03 -.212E+02   0.250E+01 0.147E+01 0.121E+01   0.175E-03 -.602E-03 -.790E-04
   0.275E+02 -.345E+02 0.128E+02   -.264E+02 0.358E+02 -.123E+02   -.144E+01 -.128E+01 -.144E+01   0.110E-03 -.803E-04 0.131E-03
   -.644E+02 -.635E+02 0.296E+00   0.629E+02 0.644E+02 -.704E+00   0.325E+01 -.140E+01 0.291E+00   -.270E-03 -.495E-03 -.123E-03
   0.111E+02 0.388E+02 -.184E+02   -.133E+02 -.383E+02 0.162E+02   0.233E+01 -.107E+00 0.303E+01   0.428E-03 -.426E-04 0.154E-03
   0.689E+02 0.171E+02 -.126E+02   -.671E+02 -.146E+02 0.123E+02   -.151E+01 -.183E+01 0.190E+01   0.460E-03 -.792E-04 -.398E-04
   0.191E+02 0.811E+02 -.159E+02   -.148E+02 -.810E+02 0.137E+02   -.546E+01 -.507E+00 0.178E+01   -.883E-03 -.168E-03 -.259E-03
   -.414E+02 -.231E+02 0.151E+02   0.395E+02 0.236E+02 -.139E+02   0.290E+01 -.331E+00 -.141E+01   -.132E-03 -.461E-03 -.207E-04
   0.266E+02 0.223E+02 -.241E+02   -.254E+02 -.219E+02 0.220E+02   -.163E+01 -.206E-01 0.125E+01   0.502E-03 -.314E-03 0.203E-03
   0.487E+02 0.150E+02 0.136E+02   -.499E+02 -.126E+02 -.123E+02   0.155E+01 -.334E+01 -.217E+01   0.597E-03 0.349E-03 -.846E-04
   0.110E+02 0.165E+02 -.761E+01   -.100E+02 -.171E+02 0.777E+01   -.100E+01 0.347E+00 -.660E+00   0.559E-03 -.908E-03 -.162E-03
   -.380E+02 -.285E+02 0.820E+01   0.380E+02 0.283E+02 -.788E+01   0.408E+00 -.740E+00 -.413E+00   0.309E-03 0.286E-03 -.169E-03
   -.797E+01 0.554E+02 -.110E+02   0.101E+02 -.537E+02 0.107E+02   -.192E+01 -.199E+01 -.287E+00   0.141E-02 0.550E-03 0.629E-03
   -.121E+02 0.773E+01 -.567E+01   0.114E+02 -.439E+01 0.608E+01   0.141E+01 -.364E+01 -.688E+00   0.459E-03 0.338E-03 0.248E-03
   0.129E+01 0.109E+03 0.796E+00   -.359E-01 -.111E+03 -.241E+00   -.208E+00 0.909E+00 -.818E+00   -.703E-03 0.448E-03 -.815E-04
   -.224E+02 -.595E+02 -.771E+01   0.251E+02 0.578E+02 0.695E+01   -.466E+01 0.204E+01 0.137E+01   0.114E-04 -.238E-03 -.120E-03
   0.510E+02 0.145E+02 -.612E+01   -.494E+02 -.167E+02 0.457E+01   -.192E+01 0.243E+01 0.309E+01   0.599E-03 0.404E-03 0.942E-04
 -----------------------------------------------------------------------------------------------
   0.956E+01 0.210E+01 0.283E+01   -.114E-12 -.373E-12 0.249E-13   -.955E+01 -.210E+01 -.283E+01   0.372E-02 -.761E-02 0.106E-02


 POSITION                                       TOTAL-FORCE (eV/Angst)
 -----------------------------------------------------------------------------------
      3.34253      1.87773      0.08117        -0.045703      1.012339      0.951308
      4.29298     13.96310      1.20005        -1.112346      0.465056     -0.290414
      1.51040      3.61066      5.48135         1.663717     -0.318437      0.528079
      5.23776      0.58900      3.15196        -2.066446     -2.678203     -1.338063
      6.36382      5.70718      5.67382         0.464406     -0.204260      0.645888
      5.61771      1.07720      3.39516         2.124805      2.697266      1.328767
      2.73537      1.56557      7.00737        -0.123492      0.208382     -0.150323
      7.16444     14.15780      6.16294         0.027665      0.509887     -0.005387
      4.47023     14.00030      7.53288         0.039401      2.229921      0.294530
      3.55179      0.09746      5.11553         0.090762     -0.214879      0.132969
      3.31850      2.44589      0.62349         0.061991     -0.946294     -0.934784
      4.46389      0.25974      7.60111         0.116020     -2.247862     -0.107817
      2.79826      2.49567      4.01215         0.091024     -0.359992     -0.050375
      5.03466      2.28560      5.54287        -0.133961      0.038269      1.110130
      7.25441      0.17090      0.69280        -0.839728      0.079938      0.462546
      2.29319     12.27550      2.54113        -0.575805     -0.741725      0.203479
      4.93515      2.30630      6.31177         0.178762     -0.007884     -1.091227
      2.29097      1.83528      6.46739         0.217127      0.005063      0.197548
      4.23716      4.07429      1.82850        -0.451581      0.130792      0.067046
      2.97596      1.76306      4.01344        -0.108077      0.377176     -0.072571
      1.88260      0.24495      8.66098         0.004502      0.112798      0.020796
      3.78597     14.15010      5.62006        -0.115389      0.192089     -0.423363
      3.60571     14.27575      0.99765         1.125292     -0.558989      0.373323
      5.24627      4.03552      3.92193         0.275560     -0.429645      0.457430
     13.99100      5.52903      6.96667         0.036228      0.292593     -0.278254
      0.93646      9.54007      3.91871         0.553862      1.084699      1.283661
      8.10966      3.36320      7.07757         0.595789      0.680204     -1.143699
     12.54230      1.48244      3.19259        -1.065086      0.118503      0.931873
     13.42720      9.90642      7.44344        -0.366335      0.079736     -0.228735
     11.82220     10.48590      2.43146         1.501764      0.277761      0.587828
      9.34844      2.78414      8.94802        -0.447371     -0.431423      0.711349
      6.04339      6.41043      1.94080         0.387067      0.199495     -0.225062
     10.21710     13.83520      1.34856        -0.127309      0.960817     -0.467732
     11.75020      2.67073      8.71787        -0.684807      0.335370     -0.175971
      7.33454      5.64280      6.88078        -0.956917     -0.886597      0.043640
      9.04815      3.93066      2.00312        -0.097995     -1.522631     -1.126342
      3.52675      8.64027      0.39943         0.815745      0.010906     -0.880467
      3.05374      9.60588      4.95648        -0.462187      0.657703     -0.108982
      5.66351     10.43690      6.88134         0.762441      0.333849      1.662305
      4.20205      7.85224      2.36548         0.519849      0.495755      0.415811
      5.77027      8.97267      8.88886         0.527637      0.267186     -0.424274
      5.95722      6.56156      8.67709        -0.612581      0.371151     -0.750435
      5.07235      9.63092      3.66629        -1.450909     -0.411875     -1.145934
     10.81090     11.67350      0.70139        -0.402080     -0.859777     -0.260293
      3.65813     11.42520      6.23353         0.341752     -0.101133      0.005950
      0.25611      5.21998      0.98828         0.515441     -0.078867      0.006054
     14.22430      7.59353      3.63656        -1.185893     -0.210777      0.124257
     11.66790      8.86066      6.29679         0.877576     -0.575250      0.528926
      8.50622      0.31602      9.07457         1.323170      1.243000      0.742961
      5.78970      8.60736      5.52366         0.384294     -0.866033      0.266144
      9.25323     10.19710      8.78820        -0.297787      0.309009     -0.719224
      9.90710      5.97053      2.38248         0.749141      0.772078      0.268417
     11.45090      6.77383      0.63324        -0.061848      0.406777      0.800075
      8.49151     10.54210      4.98026         0.087331      0.547708     -0.358200
      7.71442      9.42779      1.20456        -1.232384     -0.412202      0.865421
      0.25296      4.12023      5.11077        -1.112228      1.200129      0.276504
      0.41989      0.05758      5.70568        -0.277694      0.246772      0.767521
      0.84108     13.93520      8.07124         0.087600     -0.432913     -0.637775
     12.51090     11.94900      8.19172        -0.373043     -0.638398      0.266145
      3.63483      7.55049      5.75694         0.838656     -0.182428      0.672490
      8.08569      7.41091      2.59896        -0.569402      0.944544      0.012850
     10.64340      5.70725      4.74816         0.403301     -0.073661     -0.033476
     10.44300     14.39790      6.06663         0.318691      0.505456     -1.703760
     13.73880      2.09380      5.32705        -1.427724     -1.361843     -1.130241
      8.03372      8.25494      4.89621        -0.555522      0.143671     -0.522949
      1.08653      6.64311      8.37842        -0.485488     -0.689005     -0.033142
     10.94140     10.48360      4.76329        -0.633001      1.020758     -0.101690
      7.90341     11.59720      7.15110         0.229543     -1.869295     -0.646013
      8.36601     13.93240      7.00581        -0.206394     -0.636750     -0.381108
     13.53770     13.53560      0.42685         0.723060      0.733575     -0.049831
      1.82699     10.08560      0.29855        -0.437508      2.055926     -0.144722
      3.48297      6.84900      7.95251        -0.223513      0.097044      0.632073
      0.04002      8.74329      9.06698        -0.732217     -0.877417     -0.043504
     13.74430     12.86440      4.79047         0.168357     -0.308309     -0.224248
      0.83979      5.59195      3.24984         0.264741      0.266621      0.441652
     12.67690      6.86795      5.46729         0.117781      0.518344     -0.448016
      1.83026     11.77550      7.54892        -1.006066     -0.435026     -0.103304
      6.84174     10.77270      2.97497         1.814567      0.425606      0.192073
     11.79480     12.49780      6.07082        -0.390488     -0.031133     -1.033430
      1.19859     11.20720      2.27052         1.922745     -0.470811     -0.079033
      9.20364      6.82961      6.22414         0.271731      0.412151      0.978516
     10.50640      0.16132      3.48390         0.218221      0.723696      1.614966
      3.13156      6.39907      3.82399        -1.432772     -0.422484     -0.342422
      0.14207     10.93310      5.83332         1.190254      0.123844     -0.226803
     10.28590      8.05759      8.03931        -0.469937      0.424300     -0.840703
     10.18410      2.51619      3.36458         0.478360     -1.060974     -0.877481
     12.94130      8.40058      1.77520        -0.010756     -0.274247     -0.554843
     12.12810      0.83246      0.99241         0.448091     -1.013065     -0.075168
     12.76610      4.89697      8.99981         0.156252     -0.392965     -0.561820
     11.52400      2.08517      6.47141         0.707837     -0.505808     -0.317544
      4.61029      4.94044      2.98112         1.066627     -1.337478     -0.327286
     13.79280     12.18780      2.39853        -2.136403      0.352629      0.667429
     10.01340      3.47609      5.35692        -0.382364      0.380399      1.657512
 -----------------------------------------------------------------------------------
    total drift:                                0.007964     -0.015899      0.001051


--------------------------------------------------------------------------------------------------------



  FREE ENERGIE OF THE ION-ELECTRON SYSTEM (eV)
  ---------------------------------------------------
  free  energy   TOTEN  =      -745.19849441 eV

  energy  without entropy=     -745.06850529  energy(sigma->0) =     -745.13349985



--------------------------------------------------------------------------------------------------------


    POTLOK:  cpu time      1.8977: real time      1.8987


--------------------------------------------------------------------------------------------------------


     LOOP+:  cpu time   2212.1807: real time   2214.3522
    4ORBIT:  cpu time      0.0000: real time      0.0000



 total charge

# of ion       s       p       d       tot
------------------------------------------
    1        0.585   0.026   0.000   0.611
    2        0.588   0.027   0.000   0.614
    3        0.609   0.020   0.000   0.629
    4        0.675   0.048   0.000   0.723
    5        0.544   0.013   0.000   0.557
    6        0.675   0.048   0.000   0.724
    7        0.610   0.032   0.000   0.642
    8        0.562   0.016   0.000   0.578
    9        0.560   0.023   0.000   0.583
   10        0.611   0.031   0.000   0.641
   11        0.582   0.026   0.000   0.608
   12        0.560   0.022   0.000   0.583
   13        0.607   0.030   0.000   0.638
   14        0.588   0.028   0.000   0.616
   15        0.587   0.018   0.000   0.605
   16        0.538   0.013   0.000   0.550
   17        0.592   0.027   0.000   0.619
   18        0.610   0.032   0.000   0.642
   19        0.568   0.015   0.000   0.583
   20        0.603   0.031   0.000   0.634
   21        0.575   0.016   0.000   0.591
   22        0.603   0.032   0.000   0.636
   23        0.585   0.027   0.000   0.612
   24        0.589   0.017   0.000   0.606
   25        0.749   0.879   0.000   1.629
   26        0.747   0.936   0.000   1.683
   27        0.808   0.817   0.000   1.625
   28        0.771   0.855   0.000   1.626
   29        0.755   0.965   0.000   1.720
   30        0.750   0.868   0.000   1.618
   31        0.755   0.873   0.000   1.628
   32        0.752   0.956   0.000   1.707
   33        0.749   0.911   0.000   1.660
   34        0.752   0.921   0.000   1.673
   35        0.746   0.921   0.000   1.666
   36        0.786   0.894   0.000   1.680
   37        0.756   1.002   0.000   1.758
   38        0.765   0.926   0.000   1.692
   39        0.751   0.902   0.000   1.653
   40        0.765   0.962   0.000   1.726
   41        0.761   0.886   0.000   1.646
   42        0.761   0.858   0.000   1.620
   43        0.766   0.986   0.000   1.752
   44        0.748   0.953   0.000   1.701
   45        0.786   0.899   0.000   1.685
   46        0.780   0.864   0.000   1.644
   47        0.749   0.907   0.000   1.656
   48        0.749   0.945   0.000   1.695
   49        0.745   0.956   0.000   1.700
   50        0.772   0.951   0.000   1.724
   51        0.749   0.902   0.000   1.651
   52        0.749   0.922   0.000   1.671
   53        0.752   0.870   0.000   1.622
   54        0.760   0.856   0.000   1.616
   55        0.753   0.913   0.000   1.666
   56        0.745   0.973   0.000   1.718
   57        0.806   0.813   0.000   1.619
   58        0.741   0.925   0.000   1.666
   59        0.753   0.976   0.000   1.729
   60        0.756   0.958   0.000   1.714
   61        0.754   0.900   0.000   1.654
   62        0.753   0.891   0.000   1.643
   63        0.752   0.890   0.000   1.642
   64        0.763   0.862   0.000   1.626
   65        0.764   0.931   0.000   1.695
   66        0.756   0.876   0.000   1.632
   67        0.751   0.862   0.000   1.613
   68        0.760   0.847   0.000   1.606
   69        0.735   0.987   0.000   1.722
   70        0.750   0.928   0.000   1.678
   71        0.751   0.979   0.000   1.730
   72        0.756   0.890   0.000   1.646
   73        0.754   0.937   0.000   1.691
   74        0.749   0.907   0.000   1.657
   75        0.746   0.894   0.000   1.640
   76        0.752   0.883   0.000   1.635
   77        0.756   0.882   0.000   1.638
   78        0.799   0.834   0.000   1.633
   79        0.756   0.914   0.000   1.670
   80        0.741   0.986   0.000   1.727
   81        0.754   0.958   0.000   1.713
   82        0.762   0.867   0.000   1.629
   83        0.747   0.973   0.000   1.720
   84        0.759   0.898   0.000   1.657
   85        0.747   0.891   0.000   1.638
   86        0.758   0.943   0.000   1.701
   87        0.750   0.871   0.000   1.621
   88        0.753   0.905   0.000   1.657
   89        0.748   0.879   0.000   1.627
   90        0.761   0.880   0.000   1.641
   91        0.743   1.036   0.000   1.779
   92        0.755   0.913   0.000   1.668
   93        0.758   0.932   0.000   1.690
--------------------------------------------------
tot         66.437  63.546   0.000 129.983


 total amount of memory used by VASP MPI-rank0   184485. kBytes
=======================================================================

   base                                    :      30000. kBytes
   nonl-proj                               :      34376. kBytes
   fftplans                                :      36865. kBytes
   grid                                    :      28430. kBytes
   one-center                              :         18. kBytes
   wavefun                                 :      54796. kBytes

  
  
 General timing and accounting informations for this job:
 ========================================================
  
                  Total CPU time used (sec):     2276.804
                            User time (sec):     2268.439
                          System time (sec):        8.365
                         Elapsed time (sec):     2278.922
  
                   Maximum memory used (kb):      343204.
                   Average memory used (kb):          N/A
  
                          Minor page faults:       271186
                          Major page faults:         1148
                 Voluntary context switches:         2520
