 vasp.6.5.0 16Dec24 (build Jan 20 2025 08:32:48) complex                         
 executed on        HPECrayEX_GCC date 2025.07.22  03:54:49
 running  128 mpi-ranks, with    1 threads/rank, on    1 nodes
 distrk:  each k-point on  128 cores,    1 groups
 distr:  one band on NCORE=  16 cores,    8 groups


--------------------------------------------------------------------------------------------------------


 INCAR:
   SYSTEM = a-Si SPC
   NCORE = 16
   ISTART = 1
   ICHARG = 1
   ISPIN = 1
   ISYM = 1
   EDIFF = 1E-6
   NELM = 150
   EDIFFG = -0.01
   NSW = 0
   ISIF = 2
   IBRION = -1
   PREC = Accurate
   ENCUT = 1200
   KSPACING = 0.23
   KGAMMA = .TRUE.
   METAGGA = SCAN
   LASPH = .TRUE.
   LDIAG = .FALSE.
   LMIXTAU = .TRUE.
   ADDGRID = .TRUE.
   ALGO = Normal
   ISMEAR = 0
   SIGMA = 0.1
   LORBIT = 11
   NEDOS = 2000
   LWAVE = .FALSE.
   LCHARG = .FALSE.

 POTCAR:    PAW_PBE H 15Jun2001                   
 POTCAR:    PAW_PBE Si 05Jan2001                  
 POTCAR:    PAW_PBE H 15Jun2001                   
   SHA256 =  030f79b5d3ab3cf0e668861823c8fb652ff669f3e15e46930bd03bfd63a607b6 H/POTCAR              
   COPYR  = (c) Copyright 15Jun2001 Georg Kresse                                                    
   COPYR  = This file is part of the software VASP. Any use, copying, and all other rights are regul
   COPYR  = If you do not have a valid VASP license, you may not use, copy or distribute this file. 
   VRHFIN =H: ultrasoft test                                                                        
   LEXCH  = PE                                                                                      
   EATOM  =    12.4884 eV,    0.9179 Ry                                                             
                                                                                                    
   TITEL  = PAW_PBE H 15Jun2001                                                                     
   LULTRA =        F    use ultrasoft PP ?                                                          
   IUNSCR =        0    unscreen: 0-lin 1-nonlin 2-no                                               
   RPACOR =    0.000    partial core radius                                                         
   POMASS =    1.000; ZVAL   =    1.000    mass and valenz                                          
   RCORE  =    1.100    outmost cutoff radius                                                       
   RWIGS  =    0.700; RWIGS  =    0.370    wigner-seitz radius (au A)                               
   ENMAX  =  250.000; ENMIN  =  200.000 eV                                                          
   RCLOC  =    0.701    cutoff for local pot                                                        
   LCOR   =        T    correct aug charges                                                         
   LPAW   =        T    paw PP                                                                      
   EAUG   =  400.000                                                                                
   RMAX   =    1.123    core radius for proj-oper                                                   
   RAUG   =    1.200    factor for augmentation sphere                                              
   RDEP   =    1.112    radius for radial grids                                                     
   RDEPT  =    0.926    core radius for aug-charge                                                  
                                                                                                    
   Atomic configuration                                                                             
    2 entries                                                                                       
     n  l   j            E        occ.                                                              
     1  0  0.50        -6.4927   1.0000                                                             
     2  1  0.50        -3.4015   0.0000                                                             
   Description                                                                                      
     l       E           TYP  RCUT    TYP  RCUT                                                     
     0     -6.4927494     23  1.100                                                                 
     0      6.8029130     23  1.100                                                                 
     1     -4.0817478     23  1.100                                                                 
  local pseudopotential read in
  atomic valenz-charges read in
  non local Contribution for L=           0  read in
    real space projection operators read in
  non local Contribution for L=           0  read in
    real space projection operators read in
  non local Contribution for L=           1  read in
    real space projection operators read in
    PAW grid and wavefunctions read in

   number of l-projection  operators is LMAX  =           3
   number of lm-projection operators is LMMAX =           5

 POTCAR:    PAW_PBE Si 05Jan2001                  
   SHA256 =  79d9987ad8750f624c4d6acb2a16d13abf6a777132adc04dc6c8399be72b42bb Si/POTCAR             
   COPYR  = (c) Copyright 05Jan2001 Georg Kresse                                                    
   COPYR  = This file is part of the software VASP. Any use, copying, and all other rights are regul
   COPYR  = If you do not have a valid VASP license, you may not use, copy or distribute this file. 
   VRHFIN =Si: s2p2                                                                                 
   LEXCH  = PE                                                                                      
   EATOM  =   103.0669 eV,    7.5752 Ry                                                             
                                                                                                    
   TITEL  = PAW_PBE Si 05Jan2001                                                                    
   LULTRA =        F    use ultrasoft PP ?                                                          
   IUNSCR =        1    unscreen: 0-lin 1-nonlin 2-no                                               
   RPACOR =    1.500    partial core radius                                                         
   POMASS =   28.085; ZVAL   =    4.000    mass and valenz                                          
   RCORE  =    1.900    outmost cutoff radius                                                       
   RWIGS  =    2.480; RWIGS  =    1.312    wigner-seitz radius (au A)                               
   ENMAX  =  245.345; ENMIN  =  184.009 eV                                                          
   ICORE  =        2    local potential                                                             
   LCOR   =        T    correct aug charges                                                         
   LPAW   =        T    paw PP                                                                      
   EAUG   =  322.069                                                                                
   DEXC   =    0.000                                                                                
   RMAX   =    1.950    core radius for proj-oper                                                   
   RAUG   =    1.300    factor for augmentation sphere                                              
   RDEP   =    1.993    radius for radial grids                                                     
   RDEPT  =    1.837    core radius for aug-charge                                                  
                                                                                                    
   Atomic configuration                                                                             
    6 entries                                                                                       
     n  l   j            E        occ.                                                              
     1  0  0.50     -1785.8828   2.0000                                                             
     2  0  0.50      -139.4969   2.0000                                                             
     2  1  1.50       -95.5546   6.0000                                                             
     3  0  0.50       -10.8127   2.0000                                                             
     3  1  0.50        -4.0811   2.0000                                                             
     3  2  1.50        -4.0817   0.0000                                                             
   Description                                                                                      
     l       E           TYP  RCUT    TYP  RCUT                                                     
     0    -10.8127223     23  1.900                                                                 
     0     -7.6451159     23  1.900                                                                 
     1     -4.0811372     23  1.900                                                                 
     1      2.4879257     23  1.900                                                                 
     2     -4.0817478      7  1.900                                                                 
  local pseudopotential read in
  partial core-charges read in
  partial kinetic energy density read in
  atomic valenz-charges read in
  non local Contribution for L=           0  read in
    real space projection operators read in
  non local Contribution for L=           0  read in
    real space projection operators read in
  non local Contribution for L=           1  read in
    real space projection operators read in
  non local Contribution for L=           1  read in
    real space projection operators read in
    PAW grid and wavefunctions read in

   number of l-projection  operators is LMAX  =           4
   number of lm-projection operators is LMMAX =           8

 -----------------------------------------------------------------------------
|                                                                             |
|               ----> ADVICE to this user running VASP <----                  |
|                                                                             |
|     You have a (more or less) 'large supercell' and for larger cells it     |
|     might be more efficient to use real-space projection operators.         |
|     Therefore, try LREAL= Auto in the INCAR file.                           |
|     Mind: For very accurate calculation, you might also keep the            |
|     reciprocal projection scheme (i.e. LREAL=.FALSE.).                      |
|                                                                             |
 -----------------------------------------------------------------------------

 -----------------------------------------------------------------------------
|                                                                             |
|               ----> ADVICE to this user running VASP <----                  |
|                                                                             |
|     You enforced a specific xc type in the INCAR file but a different       |
|     type was found in the POTCAR file.                                      |
|     I HOPE YOU KNOW WHAT YOU ARE DOING!                                     |
|                                                                             |
 -----------------------------------------------------------------------------

  PAW_PBE H 15Jun2001                   :
 energy of atom  1       EATOM=  -12.4884
 kinetic energy error for atom=    0.0000 (will be added to EATOM!!)
  PAW_PBE Si 05Jan2001                  :
 energy of atom  2       EATOM= -103.0669
 kinetic energy error for atom=    0.0001 (will be added to EATOM!!)


 POSCAR:  H Si
  positions in cartesian coordinates
  No initial velocities read in


 exchange-correlation table for SCAN
   RHO(1)=    0.500       N(1)  =     2000
   RHO(2)=  100.500       N(2)  =     4000



--------------------------------------------------------------------------------------------------------


 ion  position               nearest neighbor table
   1  0.972  0.201  0.574-  40 1.60
   2  0.822  0.461  0.374-
   3  0.834  0.166  0.501-  10 1.47
   4  0.301  0.876  0.629-  49 1.73
   5  0.346  0.677  0.549-  16 2.31  72 2.36  20 2.43  48 2.45
   6  0.025  0.397  0.393-  50 2.27  73 2.29  30 2.35
   7  0.504  0.158  0.612-  25 2.30  14 2.35  68 2.40
   8  0.944  0.483  0.536-  45 2.30  44 2.33  29 2.34  24 2.38
   9  0.199  0.267  0.444-  30 2.25  63 2.26  82 2.29  46 2.40
  10  0.861  0.077  0.523-   3 1.47  43 2.30  58 2.37  13 2.38
  11  0.260  0.139  0.612-  25 2.38  32 2.44  15 2.48
  12  0.116  0.914  0.582-  27 2.29  15 2.33  65 2.36
  13  0.023  0.103  0.515-  46 2.28  56 2.37  10 2.38  15 2.44
  14  0.445  0.303  0.592-   7 2.35  28 2.41  32 2.52
  15  0.107  0.072  0.592-  12 2.33  13 2.44  11 2.48
  16  0.345  0.637  0.466-  37 2.26  69 2.29   5 2.31  39 2.43
  17  0.718  0.501  0.447-  29 2.33  19 2.38  79 2.40  75 2.44
  18  0.840  0.692  0.513-  33 2.35  54 2.41  44 2.47  75 2.51
  19  0.608  0.545  0.508-  74 2.27  41 2.34  39 2.38  17 2.38
  20  0.373  0.838  0.530-  49 2.20  61 2.36   5 2.43  38 2.44
  21  0.203  0.997  0.430-  63 2.33  56 2.34  61 2.36
  22  0.880  0.202  0.372-  57 2.35  50 2.45
  23  0.537  0.538  0.372-  79 2.24  39 2.48
  24  0.921  0.572  0.608-  26 2.32   8 2.38  52 2.45
  25  0.392  0.068  0.576-   7 2.30  49 2.35  81 2.37  11 2.38
  26  0.771  0.535  0.630-  24 2.32  41 2.45
  27  0.132  0.825  0.512-  61 2.28  12 2.29  42 2.37  59 2.40
  28  0.482  0.261  0.508-  53 2.30  81 2.32  71 2.36  14 2.41
  29  0.825  0.414  0.490-  17 2.33   8 2.34  77 2.34  50 2.57
  30  0.171  0.340  0.372-   9 2.25   6 2.35
  31  0.529  0.829  0.628-  49 2.36  64 2.41  48 2.51
  32  0.276  0.305  0.616-  76 2.34  11 2.44  14 2.52
  33  0.889  0.846  0.515-  18 2.35  42 2.37  65 2.40  58 2.49
  34  0.620  0.179  0.426-  57 2.34  60 2.39  71 2.41  80 2.43
  35  0.408  0.851  0.372-  55 2.31  37 2.35
  36  0.697  0.743  0.370-  75 2.40
  37  0.305  0.752  0.413-  16 2.26  61 2.31  35 2.35
  38  0.531  0.839  0.501-  55 2.29  74 2.41  20 2.44  47 2.52
  39  0.475  0.533  0.457-  53 2.34  19 2.38  16 2.43  23 2.48
  40  0.961  0.291  0.607-   1 1.60  45 2.29  67 2.31
  41  0.657  0.460  0.577-  77 2.26  19 2.34  26 2.45
  42  0.011  0.862  0.457-  78 2.23  33 2.37  27 2.37  56 2.40
  43  0.780  0.098  0.595-  10 2.30  68 2.30  67 2.42
  44  0.986  0.615  0.492-   8 2.33  73 2.39  66 2.40  59 2.42  18 2.47
  45  0.047  0.364  0.548-  40 2.29   8 2.30  46 2.38  76 2.40
  46  0.056  0.247  0.487-  13 2.28  45 2.38   9 2.40  50 2.45
  47  0.641  0.963  0.527-  64 2.29  68 2.34  58 2.45  38 2.52
  48  0.494  0.675  0.591-  74 2.33   5 2.45  31 2.51
  49  0.400  0.912  0.600-   4 1.73  20 2.20  25 2.35  31 2.36
  50  0.927  0.307  0.438-   6 2.27  46 2.45  22 2.45  29 2.57
  51  0.390  0.110  0.382-  60 2.34  63 2.39  81 3.05
  52  0.010  0.715  0.608-  59 2.28  65 2.35  24 2.45
  53  0.421  0.381  0.464-  82 2.22  28 2.30  39 2.34  70 2.37
  54  0.728  0.735  0.575-  64 2.31  74 2.33  18 2.41
  55  0.521  0.906  0.424-  38 2.29  35 2.31  60 2.34
  56  0.044  0.020  0.440-  21 2.34  13 2.37  42 2.40
  57  0.738  0.125  0.374-  34 2.34  62 2.35  22 2.35
  58  0.783  0.962  0.478-  10 2.37  62 2.43  47 2.45  33 2.49
  59  0.106  0.674  0.545-  72 2.24  52 2.28  27 2.40  44 2.42
  60  0.505  0.064  0.437-  81 2.30  51 2.34  55 2.34  34 2.39
  61  0.260  0.863  0.469-  27 2.28  37 2.31  21 2.36  20 2.36
  62  0.780  0.971  0.388-  57 2.35  58 2.43
  63  0.280  0.135  0.446-  81 2.22   9 2.26  21 2.33  51 2.39
  64  0.676  0.880  0.597-  47 2.29  54 2.31  31 2.41
  65  0.962  0.867  0.593-  52 2.35  12 2.36  33 2.40
  66  0.944  0.639  0.407-  78 2.31  44 2.40  75 2.45  73 2.78
  67  0.807  0.257  0.616-  40 2.31  77 2.36  43 2.42
  68  0.634  0.110  0.563-  43 2.30  71 2.31  47 2.34   7 2.40
  69  0.241  0.532  0.436-  16 2.29  73 2.40  82 2.41
  70  0.412  0.358  0.377-  53 2.37  80 2.41
  71  0.641  0.232  0.509-  68 2.31  77 2.33  28 2.36  34 2.41
  72  0.220  0.579  0.567-  59 2.24   5 2.36  76 2.60
  73  0.077  0.516  0.441-   6 2.29  44 2.39  69 2.40  66 2.78
  74  0.600  0.696  0.527-  19 2.27  54 2.33  48 2.33  38 2.41
  75  0.782  0.653  0.429-  36 2.40  17 2.44  66 2.45  18 2.51
  76  0.207  0.401  0.557-  82 2.30  32 2.34  45 2.40  72 2.60
  77  0.738  0.337  0.550-  41 2.26  71 2.33  29 2.34  67 2.36
  78  0.031  0.769  0.393-  42 2.23  66 2.31
  79  0.656  0.441  0.371-  23 2.24  80 2.33  17 2.40
  80  0.570  0.306  0.374-  79 2.33  70 2.41  34 2.43
  81  0.403  0.124  0.494-  63 2.22  60 2.30  28 2.32  25 2.37  51 3.05
  82  0.272  0.390  0.480-  53 2.22   9 2.29  76 2.30  69 2.41

  LATTYP: Found a simple tetragonal cell.
 ALAT       =    14.5330482480
 C/A-ratio  =     1.8605533773
  
  Lattice vectors:
  
 A1 = (  14.5330482480,   0.0000000000,   0.0000000000)
 A2 = (   0.0000000000,  14.5330482480,   0.0000000000)
 A3 = (   0.0000000000,   0.0000000000,  27.0395120000)


Analysis of symmetry for initial positions (statically):
=====================================================================
 Subroutine PRICEL returns:
 Original cell was already a primitive cell.
 

 Routine SETGRP: Setting up the symmetry group for a 
 simple tetragonal supercell.


 Subroutine GETGRP returns: Found  1 space group operations
 (whereof  1 operations were pure point group operations)
 out of a pool of 16 trial point group operations.


The static configuration has the point symmetry C_1 .


Analysis of symmetry for dynamics (positions and initial velocities):
=====================================================================
 Subroutine PRICEL returns:
 Original cell was already a primitive cell.
 

 Routine SETGRP: Setting up the symmetry group for a 
 simple tetragonal supercell.


 Subroutine GETGRP returns: Found  1 space group operations
 (whereof  1 operations were pure point group operations)
 out of a pool of 16 trial point group operations.


The dynamic configuration has the point symmetry C_1 .


 Subroutine INISYM returns: Found  1 space group operations
 (whereof  1 operations are pure point group operations),
 and found     1 'primitive' translations


----------------------------------------------------------------------------------------

                                     Primitive cell                                     

  volume of cell :    5711.0016

  direct lattice vectors                    reciprocal lattice vectors
    14.533048248  0.000000000  0.000000000     0.068808689  0.000000000  0.000000000
     0.000000000 14.533048248  0.000000000     0.000000000  0.068808689  0.000000000
     0.000000000  0.000000000 27.039512000     0.000000000  0.000000000  0.036982916

  length of vectors
    14.533048248 14.533048248 27.039512000     0.068808689  0.068808689  0.036982916

  position of ions in fractional coordinates (direct lattice)
     0.971984663  0.201220002  0.573710872
     0.821603273  0.460978997  0.374179456
     0.833933790  0.166313354  0.501393368
     0.300984344  0.876092873  0.629135319
     0.345663203  0.676779560  0.548666781
     0.024714086  0.397130726  0.393420895
     0.504373197  0.157580843  0.611593212
     0.943938241  0.482753506  0.535546352
     0.199351158  0.267218545  0.444217410
     0.861285244  0.077457253  0.523089766
     0.259605551  0.138553865  0.611653125
     0.115626121  0.913600490  0.581928476
     0.022661523  0.102555911  0.515280823
     0.444543353  0.303349987  0.592234875
     0.107048430  0.072329630  0.591789600
     0.344823048  0.637248968  0.465806927
     0.718080600  0.501485984  0.446992978
     0.839576102  0.691719991  0.513285965
     0.607990825  0.544615270  0.508104658
     0.372693320  0.838014145  0.530323994
     0.202823245  0.997430116  0.430363240
     0.880475987  0.201530329  0.371961417
     0.536945854  0.538216750  0.372154409
     0.920694666  0.572305951  0.608292487
     0.392021681  0.067798234  0.576234956
     0.770746770  0.535132057  0.630170840
     0.132026672  0.825346465  0.512465684
     0.481625044  0.261294116  0.508290312
     0.825484083  0.414223492  0.490266318
     0.170889132  0.339673406  0.372143491
     0.529434009  0.829364893  0.627876790
     0.276432028  0.305111490  0.615783377
     0.888567889  0.845768884  0.514570751
     0.620180973  0.179168193  0.425686751
     0.407682538  0.850702467  0.372419580
     0.697128354  0.742803562  0.369829160
     0.305158280  0.751542265  0.413150652
     0.531040004  0.838564614  0.500732484
     0.474832938  0.532869627  0.457415134
     0.960810132  0.291427506  0.606768421
     0.657243397  0.459686081  0.576610332
     0.010557661  0.861526074  0.457208029
     0.780476319  0.097917517  0.595270802
     0.985718877  0.614924677  0.491912428
     0.046853075  0.364406001  0.547664913
     0.055739580  0.246695665  0.486734080
     0.641197899  0.963307887  0.527143833
     0.494493645  0.675097876  0.591017027
     0.399922982  0.912183031  0.599515331
     0.927348466  0.307051207  0.438073069
     0.390313161  0.110267989  0.381748643
     0.009801591  0.715390180  0.607997363
     0.420986010  0.381465740  0.463883076
     0.727679412  0.735461674  0.574603269
     0.521450137  0.905604920  0.424310986
     0.044374448  0.020045829  0.440427401
     0.737691076  0.125253833  0.374307872
     0.782595627  0.962089973  0.478027192
     0.105644045  0.673822163  0.545263243
     0.504566549  0.063907584  0.437165138
     0.260350061  0.863397670  0.468670884
     0.780242369  0.971461717  0.388374391
     0.280312838  0.134566401  0.446171958
     0.675857524  0.880269561  0.596624007
     0.961677121  0.867092697  0.593483418
     0.944406140  0.638531562  0.406913372
     0.806891975  0.257340369  0.616449439
     0.634294323  0.109524855  0.563274663
     0.241475838  0.532096905  0.436366677
     0.412215655  0.357783853  0.377351522
     0.641450427  0.232382769  0.509450097
     0.220227714  0.579122140  0.566579456
     0.077124219  0.516136042  0.441027264
     0.600033101  0.696350816  0.527189322
     0.781570377  0.652804549  0.428584362
     0.206618044  0.401303973  0.557337795
     0.738055762  0.336576327  0.549691947
     0.031478186  0.768703152  0.392508230
     0.656214707  0.440871722  0.371476719
     0.569528832  0.305853247  0.373554194
     0.403454244  0.124347623  0.494176522
     0.271561061  0.390424631  0.480128561

  ion indices of the primitive-cell ions
   primitive index   ion index
                 1           1
                 2           2
                 3           3
                 4           4
                 5           5
                 6           6
                 7           7
                 8           8
                 9           9
                10          10
                11          11
                12          12
                13          13
                14          14
                15          15
                16          16
                17          17
                18          18
                19          19
                20          20
                21          21
                22          22
                23          23
                24          24
                25          25
                26          26
                27          27
                28          28
                29          29
                30          30
                31          31
                32          32
                33          33
                34          34
                35          35
                36          36
                37          37
                38          38
                39          39
                40          40
                41          41
                42          42
                43          43
                44          44
                45          45
                46          46
                47          47
                48          48
                49          49
                50          50
                51          51
                52          52
                53          53
                54          54
                55          55
                56          56
                57          57
                58          58
                59          59
                60          60
                61          61
                62          62
                63          63
                64          64
                65          65
                66          66
                67          67
                68          68
                69          69
                70          70
                71          71
                72          72
                73          73
                74          74
                75          75
                76          76
                77          77
                78          78
                79          79
                80          80
                81          81
                82          82

----------------------------------------------------------------------------------------


 -----------------------------------------------------------------------------
|                                                                             |
|           W    W    AA    RRRRR   N    N  II  N    N   GGGG   !!!           |
|           W    W   A  A   R    R  NN   N  II  NN   N  G    G  !!!           |
|           W    W  A    A  R    R  N N  N  II  N N  N  G       !!!           |
|           W WW W  AAAAAA  RRRRR   N  N N  II  N  N N  G  GGG   !            |
|           WW  WW  A    A  R   R   N   NN  II  N   NN  G    G                |
|           W    W  A    A  R    R  N    N  II  N    N   GGGG   !!!           |
|                                                                             |
|     The requested file  could not be found or opened for reading            |
|     k-point information. Automatic k-point generation is used as a          |
|     fallback, which may lead to unwanted results.                           |
|                                                                             |
 -----------------------------------------------------------------------------



Automatic generation of k-mesh.
 Grid dimensions derived from KSPACING:
 generate k-points for:    2    2    2

 Generating k-lattice:

  Cartesian coordinates                     Fractional coordinates (reciprocal lattice)
     0.034404345  0.000000000  0.000000000     0.500000000  0.000000000  0.000000000
     0.000000000  0.034404345  0.000000000     0.000000000  0.500000000  0.000000000
     0.000000000  0.000000000  0.018491458     0.000000000  0.000000000  0.500000000

  Length of vectors
     0.034404345  0.034404345  0.018491458

  Shift w.r.t. Gamma in fractional coordinates (k-lattice)
     0.000000000  0.000000000  0.000000000

 
 Subroutine IBZKPT returns following result:
 ===========================================
 
 Found      8 irreducible k-points:
 
 Following reciprocal coordinates:
            Coordinates               Weight
  0.000000  0.000000  0.000000      1.000000
  0.500000  0.000000  0.000000      1.000000
  0.000000  0.500000  0.000000      1.000000
  0.500000  0.500000  0.000000      1.000000
  0.000000  0.000000  0.500000      1.000000
  0.500000  0.000000  0.500000      1.000000
  0.000000  0.500000  0.500000      1.000000
  0.500000  0.500000  0.500000      1.000000
 
 Following cartesian coordinates:
            Coordinates               Weight
  0.000000  0.000000  0.000000      1.000000
  0.034404  0.000000  0.000000      1.000000
  0.000000  0.034404  0.000000      1.000000
  0.034404  0.034404  0.000000      1.000000
  0.000000  0.000000  0.018491      1.000000
  0.034404  0.000000  0.018491      1.000000
  0.000000  0.034404  0.018491      1.000000
  0.034404  0.034404  0.018491      1.000000
 


--------------------------------------------------------------------------------------------------------




 Dimension of arrays:
   k-points           NKPTS =      8   k-points in BZ     NKDIM =      8   number of bands    NBANDS=    200
   number of dos      NEDOS =   2000   number of ions     NIONS =     82
   non local maximal  LDIM  =      4   non local SUM 2l+1 LMDIM =      8
   total plane-waves  NPLWV = ******
   max r-space proj   IRMAX =      1   max aug-charges    IRDMAX= 423156
   dimension x,y,z NGX =   168 NGY =  168 NGZ =  320
   dimension x,y,z NGXF=   336 NGYF=  336 NGZF=  640
   support grid    NGXF=   672 NGYF=  672 NGZF= 1280
   ions per type =               4  78
   NGX,Y,Z   is equivalent  to a cutoff of  19.22, 19.22, 19.67 a.u.
   NGXF,Y,Z  is equivalent  to a cutoff of  38.44, 38.44, 39.35 a.u.

 SYSTEM =  a-Si SPC                                
 POSCAR =   H Si                                   

 Startparameter for this run:
   NWRITE =      2    write-flag & timer
   PREC   = accura    normal or accurate (medium, high low for compatibility)
   ISTART =      1    job   : 0-new  1-cont  2-samecut
   ICHARG =      1    charge: 1-file 2-atom 10-const
   ISPIN  =      1    spin polarized calculation?
   LNONCOLLINEAR =      F non collinear calculations
   LSORBIT =      F    spin-orbit coupling
   INIWAV =      1    electr: 0-lowe 1-rand  2-diag
   LASPH  =      T    aspherical Exc in radial PAW
 Electronic Relaxation 1
   ENCUT  = 1200.0 eV  88.20 Ry    9.39 a.u.  41.05 41.05 76.37*2*pi/ulx,y,z
   ENINI  = 1200.0     initial cutoff
   ENAUG  =  400.0 eV  augmentation charge cutoff
   NELM   =    150;   NELMIN=  2; NELMDL=  0     # of ELM steps 
   EDIFF  = 0.1E-05   stopping-criterion for ELM
   LREAL  =      F    real-space projection
   NLSPLINE    = F    spline interpolate recip. space projectors
   LCOMPAT=      F    compatible to vasp.4.4
   GGA_COMPAT  = T    GGA compatible to vasp.4.4-vasp.4.6
   LMAXPAW     = -100 max onsite density
   LMAXMIX     =    2 max onsite mixed and CHGCAR
   VOSKOWN=      0    Vosko Wilk Nusair interpolation
   ROPT   =    0.00000   0.00000
 Ionic relaxation
   EDIFFG = -.1E-01   stopping-criterion for IOM
   NSW    =      0    number of steps for IOM
   NBLOCK =      1;   KBLOCK =      1    inner block; outer block 
   IBRION =     -1    ionic relax: 0-MD 1-quasi-New 2-CG
   NFREE  =      0    steps in history (QN), initial steepest desc. (CG)
   ISIF   =      2    stress and relaxation
   IWAVPR =     10    prediction:  0-non 1-charg 2-wave 3-comb
   ISYM   =      1    0-nonsym 1-usesym 2-fastsym
   LCORR  =      T    Harris-Foulkes like correction to forces

   POTIM  = 0.5000    time-step for ionic-motion
   TEIN   =    0.0    initial temperature
   TEBEG  =    0.0;   TEEND  =   0.0 temperature during run
   SMASS  =  -3.00    Nose mass-parameter (am)
   estimated Nose-frequenzy (Omega)   =  0.10E-29 period in steps = 0.13E+47 mass=  -0.483E-26a.u.
   SCALEE = 1.0000    scale energy and forces
   NPACO  =    256;   APACO  = 10.0  distance and # of slots for P.C.
   PSTRESS=    0.0 pullay stress

  Mass of Ions in am
   POMASS =   1.00 28.09
  Ionic Valenz
   ZVAL   =   1.00  4.00
  Atomic Wigner-Seitz radii
   RWIGS  =  -1.00 -1.00
  virtual crystal weights 
   VCA    =   1.00  1.00
   NELECT =     316.0000    total number of electrons
   NUPDOWN=      -1.0000    fix difference up-down

 DOS related values:
   EMIN   =  10.00;   EMAX   =-10.00  energy-range for DOS
   EFERMI =   0.00;   METHOD = LEGACY      
   ISMEAR =     0;   SIGMA  =   0.10  broadening in eV -4-tet -1-fermi 0-gaus
   EFERMI_NEDOS =   21; number of points for ismear=-14 and -15

 Electronic relaxation 2 (details)
   IALGO  =     38    algorithm
   LDIAG  =      F    sub-space diagonalisation (order eigenvalues)
   LSUBROT=      F    optimize rotation matrix (better conditioning)
   TURBO    =      0    0=normal 1=particle mesh
   IRESTART =      0    0=no restart 2=restart with 2 vectors
   NREBOOT  =      0    no. of reboots
   NMIN     =      0    reboot dimension
   EREF     =   0.00    reference energy to select bands
   IMIX   =      4    mixing-type and parameters
     AMIX     =   0.40;   BMIX     =  1.00
     AMIX_MAG =   1.60;   BMIX_MAG =  1.00
     AMIN     =   0.10
     WC   =   100.;   INIMIX=   1;  MIXPRE=   1;  MAXMIX= -45

 Intra band minimization:
   WEIMIN = 0.0000     energy-eigenvalue tresh-hold
   EBREAK =  0.13E-08  absolut break condition
   DEPER  =   0.30     relativ break condition  

   TIME   =   0.40     timestep for ELM

  volume/ion in A,a.u.               =      69.65       470.00
  Fermi-wavevector in a.u.,A,eV,Ry     =   0.623830  1.178868  5.294900  0.389164
  Thomas-Fermi vector in A             =   1.684175

 Write flags
   LWAVE        =      F    write WAVECAR
   LDOWNSAMPLE  =      F    k-point downsampling of WAVECAR
   LCHARG       =      F    write CHGCAR
   LVTOT        =      F    write LOCPOT, total local potential
   LVHAR        =      F    write LOCPOT, Hartree potential only
   WRT_POTENTIAL= false  ! write potential to hdf5 file
   LELF         =      F    write electronic localiz. function (ELF)
   LORBIT       =     11    0 simple, 1 ext, 2 COOP (PROOUT), +10 PAW based schemes


 Python interface
   PLUGINS active      =      F    recompile with -DPLUGINS to activate

 Dipole corrections
   LMONO      =      F    monopole corrections only (constant potential shift)
   LDIPOL     =      F    correct potential (dipole corrections)
   IDIPOL     =      0    1-x, 2-y, 3-z, 4-all directions 
   EPSILON    =  1.0000000 bulk dielectric constant
   LVACPOTAV  =      F  vacuum potentials using an averaging scheme for the charge density
   VACPOTFLAT =  0.1000000 required flatness to determine vacuum potential

Coulomb truncation method
  LTRUNCATE          =      F  Coulomb kernel truncation to be used
  IDIMENSIONALITY    =      3  Dimensionality of cutoff (0 molecules / 2 surfaces)
  ISURFACE           =     -1  Direction of surface normal
  LCOARSEN           =      F  Coarsen the charge grid before padding, preferred


 Exchange correlation treatment:
   METAGGA = SCAN    functional components
   XC_C    = 1    coefficients multiplying the functional components
   LIBXC   =     F    Libxc                    
   VOSKOWN =     0    Vosko Wilk Nusair interpolation
   LHFCALC =     F    Hartree Fock is set to
   LHFONE  =     F    Hartree Fock one center treatment
   AEXX    =    0.0000 exact exchange contribution

 Parameters of functionals:
   SCAN:
     P1 =  0.000000E+00
     P2 =  0.000000E+00
     P3 =  0.000000E+00

 Accuracy and mixing parameters for tau-dependent meta-GGA functionals:
   LMAXTAU = 6
   LMIXTAU = T

 Van der Waals corrections
   IVDW    =     0    specifies the selected vdW correction

 Linear response parameters
   LEPSILON=     F    determine dielectric tensor
   LRPA    =     F    only Hartree local field effects (RPA)
   LNABLA  =     F    use nabla operator in PAW spheres
   LVEL    =     F    velocity operator in full k-point grid
   CSHIFT  =0.1000    complex shift for real part using Kramers Kronig
   OMEGAMAX=  -1.0    maximum frequency
   DEG_THRESHOLD= 0.2000000E-02 threshold for treating states as degnerate
   RTIME   =   -0.100 relaxation time in fs
  (WPLASMAI=    0.000 imaginary part of plasma frequency in eV, 0.658/RTIME)
   DFIELD  = 0.0000000 0.0000000 0.0000000 field for delta impulse in time

  Optional k-point grid parameters
   LKPOINTS_OPT  =     F    use optional k-point grid
   KPOINTS_OPT_MODE=     1    mode for optional k-point grid

 Orbital magnetization related:
   ORBITALMAG=     F  switch on orbital magnetization
   LCHIMAG   =     F  perturbation theory with respect to B field
   DQ        =  0.001000  dq finite difference perturbation B field
   LLRAUG    =     F  two centre corrections for induced B field
   LBONE     =     F  B-component reconstruction in AE one-centre
   LVGVCALC  =     T  calculate vGv susceptibility
   LVGVAPPL  =     F  apply vGv susceptibility instead of pGv for G=0

 Random number generation:
   RANDOM_GENERATOR = DEFAULT
   PCG_SEED         = not used


--------------------------------------------------------------------------------------------------------


 Static calculation
 charge density and potential will be updated during run
 non-spin polarized calculation
 Variant of blocked Davidson
 perform Loewdin sub-space diagonalisation
    ordering is kept fixed
    before iterative eigenvector-optimisation
 modified Broyden-mixing scheme, WC =      100.0
 initial mixing is a Kerker type mixing with AMIX =  0.4000 and BMIX =      1.0000
 Hartree-type preconditioning will be used
 using additional bands           42
 reciprocal scheme for non local part
 use partial core corrections
 calculate Harris-corrections to forces   (improved forces if not selfconsistent)
 use gradient corrections 
 use of overlap-Matrix (Vanderbilt PP)
 Gauss-broadening in eV      SIGMA  =   0.10


--------------------------------------------------------------------------------------------------------


  energy-cutoff  :     1200.00
  volume of cell :     5711.00
      direct lattice vectors                 reciprocal lattice vectors
    14.533048248  0.000000000  0.000000000     0.068808689  0.000000000  0.000000000
     0.000000000 14.533048248  0.000000000     0.000000000  0.068808689  0.000000000
     0.000000000  0.000000000 27.039512000     0.000000000  0.000000000  0.036982916

  length of vectors
    14.533048248 14.533048248 27.039512000     0.068808689  0.068808689  0.036982916



 old parameters found on file WAVECAR:
  energy-cutoff  :     1200.00
  volume of cell :     5711.00
      direct lattice vectors                 reciprocal lattice vectors
    14.533048248  0.000000000  0.000000000     0.068808689  0.000000000  0.000000000
     0.000000000 14.533048248  0.000000000     0.000000000  0.068808689  0.000000000
     0.000000000  0.000000000 27.039512000     0.000000000  0.000000000  0.036982916

  length of vectors


 k-points in units of 2pi/SCALE and weight: read from INCAR                         
   0.00000000  0.00000000  0.00000000       0.125
   0.03440434  0.00000000  0.00000000       0.125
   0.00000000  0.03440434  0.00000000       0.125
   0.03440434  0.03440434  0.00000000       0.125
   0.00000000  0.00000000  0.01849146       0.125
   0.03440434  0.00000000  0.01849146       0.125
   0.00000000  0.03440434  0.01849146       0.125
   0.03440434  0.03440434  0.01849146       0.125

 k-points in reciprocal lattice and weights: read from INCAR                         
   0.00000000  0.00000000  0.00000000       0.125
   0.50000000  0.00000000  0.00000000       0.125
   0.00000000  0.50000000  0.00000000       0.125
   0.50000000  0.50000000  0.00000000       0.125
   0.00000000  0.00000000  0.50000000       0.125
   0.50000000  0.00000000  0.50000000       0.125
   0.00000000  0.50000000  0.50000000       0.125
   0.50000000  0.50000000  0.50000000       0.125

 position of ions in fractional coordinates (direct lattice) 
   0.97198466  0.20122000  0.57371087
   0.82160327  0.46097900  0.37417946
   0.83393379  0.16631335  0.50139337
   0.30098434  0.87609287  0.62913532
   0.34566320  0.67677956  0.54866678
   0.02471409  0.39713073  0.39342089
   0.50437320  0.15758084  0.61159321
   0.94393824  0.48275351  0.53554635
   0.19935116  0.26721854  0.44421741
   0.86128524  0.07745725  0.52308977
   0.25960555  0.13855386  0.61165312
   0.11562612  0.91360049  0.58192848
   0.02266152  0.10255591  0.51528082
   0.44454335  0.30334999  0.59223487
   0.10704843  0.07232963  0.59178960
   0.34482305  0.63724897  0.46580693
   0.71808060  0.50148598  0.44699298
   0.83957610  0.69171999  0.51328596
   0.60799083  0.54461527  0.50810466
   0.37269332  0.83801414  0.53032399
   0.20282324  0.99743012  0.43036324
   0.88047599  0.20153033  0.37196142
   0.53694585  0.53821675  0.37215441
   0.92069467  0.57230595  0.60829249
   0.39202168  0.06779823  0.57623496
   0.77074677  0.53513206  0.63017084
   0.13202667  0.82534647  0.51246568
   0.48162504  0.26129412  0.50829031
   0.82548408  0.41422349  0.49026632
   0.17088913  0.33967341  0.37214349
   0.52943401  0.82936489  0.62787679
   0.27643203  0.30511149  0.61578338
   0.88856789  0.84576888  0.51457075
   0.62018097  0.17916819  0.42568675
   0.40768254  0.85070247  0.37241958
   0.69712835  0.74280356  0.36982916
   0.30515828  0.75154227  0.41315065
   0.53104000  0.83856461  0.50073248
   0.47483294  0.53286963  0.45741513
   0.96081013  0.29142751  0.60676842
   0.65724340  0.45968608  0.57661033
   0.01055766  0.86152607  0.45720803
   0.78047632  0.09791752  0.59527080
   0.98571888  0.61492468  0.49191243
   0.04685308  0.36440600  0.54766491
   0.05573958  0.24669566  0.48673408
   0.64119790  0.96330789  0.52714383
   0.49449364  0.67509788  0.59101703
   0.39992298  0.91218303  0.59951533
   0.92734847  0.30705121  0.43807307
   0.39031316  0.11026799  0.38174864
   0.00980159  0.71539018  0.60799736
   0.42098601  0.38146574  0.46388308
   0.72767941  0.73546167  0.57460327
   0.52145014  0.90560492  0.42431099
   0.04437445  0.02004583  0.44042740
   0.73769108  0.12525383  0.37430787
   0.78259563  0.96208997  0.47802719
   0.10564404  0.67382216  0.54526324
   0.50456655  0.06390758  0.43716514
   0.26035006  0.86339767  0.46867088
   0.78024237  0.97146172  0.38837439
   0.28031284  0.13456640  0.44617196
   0.67585752  0.88026956  0.59662401
   0.96167712  0.86709270  0.59348342
   0.94440614  0.63853156  0.40691337
   0.80689197  0.25734037  0.61644944
   0.63429432  0.10952485  0.56327466
   0.24147584  0.53209691  0.43636668
   0.41221565  0.35778385  0.37735152
   0.64145043  0.23238277  0.50945010
   0.22022771  0.57912214  0.56657946
   0.07712422  0.51613604  0.44102726
   0.60003310  0.69635082  0.52718932
   0.78157038  0.65280455  0.42858436
   0.20661804  0.40130397  0.55733780
   0.73805576  0.33657633  0.54969195
   0.03147819  0.76870315  0.39250823
   0.65621471  0.44087172  0.37147672
   0.56952883  0.30585325  0.37355419
   0.40345424  0.12434762  0.49417652
   0.27156106  0.39042463  0.48012856

 position of ions in cartesian coordinates  (Angst):
  14.12590000  2.92434000 15.51286200
  11.94040000  6.69943000 10.11762990
  12.11960000  2.41704000 13.55743200
   4.37422000 12.73230000 17.01151200
   5.02354000  9.83567000 14.83568200
   0.35917100  5.77152000 10.63790900
   7.33008000  2.29013000 16.53718200
  13.71830000  7.01588000 14.48091200
   2.89718000  3.88350000 12.01142200
  12.51710000  1.12569000 14.14409200
   3.77286000  2.01361000 16.53880200
   1.68040000 13.27740000 15.73506200
   0.32934100  1.49045000 13.93294200
   6.46057000  4.40860000 16.01374200
   1.55574000  1.05117000 16.00170200
   5.01133000  9.26117000 12.59519200
  10.43590000  7.28812000 12.08647200
  12.20160000 10.05280000 13.87900200
   8.83596000  7.91492000 13.73890200
   5.41637000 12.17890000 14.33970200
   2.94764000 14.49570000 11.63681200
  12.79600000  2.92885000 10.05765520
   7.80346000  7.82193000 10.06287360
  13.38050000  8.31735000 16.44793200
   5.69727000  0.98531500 15.58111200
  11.20130000  7.77710000 17.03951200
   1.91875000 11.99480000 13.85682200
   6.99948000  3.79740000 13.74392200
  11.99680000  6.01993000 13.25656200
   2.48354000  4.93649000 10.06257840
   7.69429000 12.05320000 16.97748200
   4.01740000  4.43420000 16.65048200
  12.91360000 12.29160000 13.91374200
   9.01312000  2.60386000 11.51036200
   5.92487000 12.36330000 10.07004370
  10.13140000 10.79520000 10.00000000
   4.43488000 10.92220000 11.17139200
   7.71763000 12.18690000 13.53956200
   6.90077000  7.74422000 12.36828200
  13.96350000  4.23533000 16.40672200
   9.55175000  6.68064000 15.59126200
   0.15343500 12.52060000 12.36268200
  11.34270000  1.42304000 16.09583200
  14.32550000  8.93673000 13.30107200
   0.68091800  5.29593000 14.80859200
   0.81006600  3.58524000 13.16105200
   9.31856000 13.99980000 14.25371200
   7.18650000  9.81123000 15.98081200
   5.81210000 13.25680000 16.21060200
  13.47720000  4.46239000 11.84528200
   5.67244000  1.60253000 10.32229700
   0.14244700 10.39680000 16.43995200
   6.11821000  5.54386000 12.54317200
  10.57540000 10.68850000 15.53699200
   7.57826000 13.16120000 11.47316200
   0.64489600  0.29132700 11.90894200
  10.72090000  1.82032000 10.12110220
  11.37350000 13.98210000 12.92562200
   1.53533000  9.79269000 14.74365200
   7.33289000  0.92877200 11.82073200
   3.78368000 12.54780000 12.67263200
  11.33930000 14.11830000 10.50145400
   4.07380000  1.95566000 12.06427200
   9.82227000 12.79300000 16.13242200
  13.97610000 12.60150000 16.04750200
  13.72510000  9.27981000 11.00273900
  11.72660000  3.73994000 16.66849200
   9.21823000  1.59173000 15.23067200
   3.50938000  7.73299000 11.79914200
   5.99075000  5.19969000 10.20340100
   9.32223000  3.37723000 13.77528200
   3.20058000  8.41641000 15.32003200
   1.12085000  7.50103000 11.92516200
   8.72031000 10.12010000 14.25494200
  11.35860000  9.48724000 11.58871200
   3.00279000  5.83217000 15.07014200
  10.72620000  4.89148000 14.86340200
   0.45747400 11.17160000 10.61323100
   9.53680000  6.40721000 10.04454920
   8.27699000  4.44498000 10.10072310
   5.86342000  1.80715000 13.36229200
   3.94661000  5.67406000 12.98244200



--------------------------------------------------------------------------------------------------------


 k-point     1 :   0.0000 0.0000 0.0000  plane waves:  538929
 k-point     2 :   0.5000 0.0000 0.0000  plane waves:  539050
 k-point     3 :   0.0000 0.5000 0.0000  plane waves:  539050
 k-point     4 :   0.5000 0.5000 0.0000  plane waves:  539124
 k-point     5 :   0.0000 0.0000 0.5000  plane waves:  538784
 k-point     6 :   0.5000 0.0000 0.5000  plane waves:  539184
 k-point     7 :   0.0000 0.5000 0.5000  plane waves:  539184
 k-point     8 :   0.5000 0.5000 0.5000  plane waves:  539248

 maximum and minimum number of plane-waves per node :     33780    33603

 maximum number of plane-waves:    539248
 maximum index in each direction: 
   IXMAX=   41   IYMAX=   41   IZMAX=   76
   IXMIN=  -41   IYMIN=  -41   IZMIN=  -76


 parallel 3D FFT for wavefunctions:
    minimum data exchange during FFTs selected (reduces bandwidth)
 parallel 3D FFT for charge:
    minimum data exchange during FFTs selected (reduces bandwidth)


 total amount of memory used by VASP MPI-rank0   409624. kBytes
=======================================================================

   base                                    :      30000. kBytes
   nonl-proj                               :      78751. kBytes
   fftplans                                :     108832. kBytes
   grid                                    :      83991. kBytes
   one-center                              :         18. kBytes
   wavefun                                 :     108032. kBytes

     INWAV:  cpu time     32.6770: real time     32.6967
 Broyden mixing: mesh for mixing (old mesh)
   NGX = 83   NGY = 83   NGZ =153
  (NGX  =336   NGY  =336   NGZ  =640)
  gives a total of ****** points

 initial charge density was supplied:
 number of electron     315.9999999 magnetization 
 keeping initial charge density in first step


--------------------------------------------------------------------------------------------------------


 Maximum index for augmentation-charges        11553 (set IRDMAX)


--------------------------------------------------------------------------------------------------------


 First call to EWALD:  gamma=   0.099
 Maximum number of real-space cells   3x   3x   2
 Maximum number of reciprocal cells   2x   2x   4

    FEWALD:  cpu time      0.0172: real time      0.0172


--------------------------------------- Ionic step        1  -------------------------------------------




--------------------------------------- Iteration      1(   1)  ---------------------------------------


    POTLOK:  cpu time      2.1772: real time      2.1777
    SETDIJ:  cpu time      1.5701: real time      1.5712
    EDDIAG:  cpu time     66.1503: real time     66.1912
     EDDAV:  cpu time    294.7134: real time    294.8808
       DOS:  cpu time      0.0078: real time      0.0090
    CHARGE:  cpu time     37.4977: real time     37.5319
    MIXING:  cpu time      0.0517: real time      0.0524
    --------------------------------------------
      LOOP:  cpu time    402.1684: real time    402.4142

 eigenvalue-minimisations  :  3200
 total energy-change (2. order) :-0.7795118E+03  (-0.8960446E+00)
 number of electron     315.9999999 magnetization 
 augmentation part      -17.9556471 magnetization 

 Broyden mixing:
  rms(total) = 0.10322E+01    rms(broyden)= 0.25772E+02
  rms(prec ) = 0.10653E+01
  weight for this iteration     100.00
  WARNING: grid for Broyden might be to small

 Free energy of the ion-electron system (eV)
  ---------------------------------------------------
  alpha Z        PSCENC =        36.86070208
  Ewald energy   TEWEN  =     41918.74148867
  -Hartree energ DENC   =    -48982.16572015
  -exchange      EXHF   =         0.00000000
  -V(xc)+E(xc)   XCENC  =      -386.85706466
  PAW double counting   =     26292.27739262   -25513.67093481
  entropy T*S    EENTRO =        -0.18918129
  eigenvalues    EBANDS =     -2233.67508946
  atomic energy  EATOM  =      8089.16663890
  Solvation  Ediel_sol  =         0.00000000
  ---------------------------------------------------
  free energy    TOTEN  =      -779.51176810 eV

  energy without entropy =     -779.32258681  energy(sigma->0) =     -779.41717746


--------------------------------------------------------------------------------------------------------




--------------------------------------- Iteration      1(   2)  ---------------------------------------


    POTLOK:  cpu time      2.1292: real time      2.1580
    SETDIJ:  cpu time      1.5664: real time      1.5676
    EDDIAG:  cpu time     66.2465: real time     66.2862
     EDDAV:  cpu time    294.6202: real time    294.7872
       DOS:  cpu time      0.0042: real time      0.0042
    CHARGE:  cpu time     37.4033: real time     37.4370
    MIXING:  cpu time      0.0436: real time      0.0440
    --------------------------------------------
      LOOP:  cpu time    402.0134: real time    402.2843

 eigenvalue-minimisations  :  3200
 total energy-change (2. order) : 0.5631814E+02  (-0.8381154E+00)
 number of electron     315.9999999 magnetization 
 augmentation part      -17.8946829 magnetization 

 Broyden mixing:
  rms(total) = 0.69865E+00    rms(broyden)= 0.14939E+02
  rms(prec ) = 0.71591E+00
  weight for this iteration     100.00
  WARNING: grid for Broyden might be to small

 eigenvalues of (default mixing * dielectric matrix)
  average eigenvalue GAMMA=   0.6331
  0.6331

 Free energy of the ion-electron system (eV)
  ---------------------------------------------------
  alpha Z        PSCENC =        36.86070208
  Ewald energy   TEWEN  =     41918.74148867
  -Hartree energ DENC   =    -48970.90327555
  -exchange      EXHF   =         0.00000000
  -V(xc)+E(xc)   XCENC  =      -378.19491048
  PAW double counting   =     31385.78809762   -30606.99765468
  entropy T*S    EENTRO =        -0.17176062
  eigenvalues    EBANDS =     -2197.48295067
  atomic energy  EATOM  =      8089.16663890
  Solvation  Ediel_sol  =         0.00000000
  ---------------------------------------------------
  free energy    TOTEN  =      -723.19362472 eV

  energy without entropy =     -723.02186410  energy(sigma->0) =     -723.10774441


--------------------------------------------------------------------------------------------------------




--------------------------------------- Iteration      1(   3)  ---------------------------------------


    POTLOK:  cpu time      2.1658: real time      2.1684
    SETDIJ:  cpu time      1.5642: real time      1.5651
    EDDIAG:  cpu time     66.2914: real time     66.3306
     EDDAV:  cpu time    294.9345: real time    295.1047
       DOS:  cpu time      0.0059: real time      0.0059
    CHARGE:  cpu time     37.3937: real time     37.4268
    MIXING:  cpu time      0.0422: real time      0.0422
    --------------------------------------------
      LOOP:  cpu time    402.3978: real time    402.6437

 eigenvalue-minimisations  :  3208
 total energy-change (2. order) :-0.2843456E+01  (-0.6970589E+00)
 number of electron     315.9999999 magnetization 
 augmentation part      -17.8360564 magnetization 

 Broyden mixing:
  rms(total) = 0.30420E+00    rms(broyden)= 0.21162E+02
  rms(prec ) = 0.37525E+00
  weight for this iteration     100.00
  WARNING: grid for Broyden might be to small

 eigenvalues of (default mixing * dielectric matrix)
  average eigenvalue GAMMA=   0.8474
  1.0685  0.6263

 Free energy of the ion-electron system (eV)
  ---------------------------------------------------
  alpha Z        PSCENC =        36.86070208
  Ewald energy   TEWEN  =     41918.74148867
  -Hartree energ DENC   =    -48969.06199443
  -exchange      EXHF   =         0.00000000
  -V(xc)+E(xc)   XCENC  =      -381.29515568
  PAW double counting   =     37243.93800958   -36465.27716412
  entropy T*S    EENTRO =        -0.18861582
  eigenvalues    EBANDS =     -2198.92099027
  atomic energy  EATOM  =      8089.16663890
  Solvation  Ediel_sol  =         0.00000000
  ---------------------------------------------------
  free energy    TOTEN  =      -726.03708108 eV

  energy without entropy =     -725.84846526  energy(sigma->0) =     -725.94277317


--------------------------------------------------------------------------------------------------------




--------------------------------------- Iteration      1(   4)  ---------------------------------------


    POTLOK:  cpu time      2.1403: real time      2.1691
    SETDIJ:  cpu time      1.5669: real time      1.5679
    EDDIAG:  cpu time     66.2494: real time     66.2914
     EDDAV:  cpu time    298.3457: real time    298.5108
       DOS:  cpu time      0.0132: real time      0.0137
    CHARGE:  cpu time     37.3785: real time     37.4122
    MIXING:  cpu time      0.0573: real time      0.0579
    --------------------------------------------
      LOOP:  cpu time    405.7513: real time    406.0229

 eigenvalue-minimisations  :  3272
 total energy-change (2. order) : 0.2955754E+00  (-0.7959909E-01)
 number of electron     315.9999999 magnetization 
 augmentation part      -17.8297925 magnetization 

 Broyden mixing:
  rms(total) = 0.64072E-01    rms(broyden)= 0.17298E+01
  rms(prec ) = 0.89188E-01
  weight for this iteration     100.00
  WARNING: grid for Broyden might be to small

 eigenvalues of (default mixing * dielectric matrix)
  average eigenvalue GAMMA=   1.0905
  1.9714  0.6918  0.6083

 Free energy of the ion-electron system (eV)
  ---------------------------------------------------
  alpha Z        PSCENC =        36.86070208
  Ewald energy   TEWEN  =     41918.74148867
  -Hartree energ DENC   =    -48969.25838232
  -exchange      EXHF   =         0.00000000
  -V(xc)+E(xc)   XCENC  =      -382.16583836
  PAW double counting   =     42053.72461758   -41275.12299188
  entropy T*S    EENTRO =        -0.17301126
  eigenvalues    EBANDS =     -2197.51472909
  atomic energy  EATOM  =      8089.16663890
  Solvation  Ediel_sol  =         0.00000000
  ---------------------------------------------------
  free energy    TOTEN  =      -725.74150566 eV

  energy without entropy =     -725.56849441  energy(sigma->0) =     -725.65500004


--------------------------------------------------------------------------------------------------------




--------------------------------------- Iteration      1(   5)  ---------------------------------------


    POTLOK:  cpu time      2.1630: real time      2.1652
    SETDIJ:  cpu time      1.5695: real time      1.5721
    EDDIAG:  cpu time     66.2962: real time     66.3363
     EDDAV:  cpu time    327.6621: real time    327.8436
       DOS:  cpu time      0.0035: real time      0.0035
    CHARGE:  cpu time     37.4000: real time     37.4323
    MIXING:  cpu time      0.0430: real time      0.0430
    --------------------------------------------
      LOOP:  cpu time    435.1374: real time    435.3960

 eigenvalue-minimisations  :  3856
 total energy-change (2. order) :-0.2764262E-01  (-0.1215431E-01)
 number of electron     315.9999999 magnetization 
 augmentation part      -17.8313620 magnetization 

 Broyden mixing:
  rms(total) = 0.47392E-01    rms(broyden)= 0.59293E+00
  rms(prec ) = 0.70594E-01
  weight for this iteration     100.00
  WARNING: grid for Broyden might be to small

 eigenvalues of (default mixing * dielectric matrix)
  average eigenvalue GAMMA=   1.0671
  2.4475  0.7513  0.6187  0.4511

 Free energy of the ion-electron system (eV)
  ---------------------------------------------------
  alpha Z        PSCENC =        36.86070208
  Ewald energy   TEWEN  =     41918.74148867
  -Hartree energ DENC   =    -48969.69470801
  -exchange      EXHF   =         0.00000000
  -V(xc)+E(xc)   XCENC  =      -383.11694315
  PAW double counting   =     41744.12132840   -40965.49833648
  entropy T*S    EENTRO =        -0.18294468
  eigenvalues    EBANDS =     -2196.16637401
  atomic energy  EATOM  =      8089.16663890
  Solvation  Ediel_sol  =         0.00000000
  ---------------------------------------------------
  free energy    TOTEN  =      -725.76914829 eV

  energy without entropy =     -725.58620360  energy(sigma->0) =     -725.67767594


--------------------------------------------------------------------------------------------------------




--------------------------------------- Iteration      1(   6)  ---------------------------------------


    POTLOK:  cpu time      2.1290: real time      2.1592
    SETDIJ:  cpu time      1.5654: real time      1.5662
    EDDIAG:  cpu time     66.3157: real time     66.3516
     EDDAV:  cpu time    315.7004: real time    315.8742
       DOS:  cpu time      0.0047: real time      0.0048
    CHARGE:  cpu time     37.4243: real time     37.4554
    MIXING:  cpu time      0.0437: real time      0.0437
    --------------------------------------------
      LOOP:  cpu time    423.1833: real time    423.4551

 eigenvalue-minimisations  :  3616
 total energy-change (2. order) : 0.1172639E-02  (-0.5103732E-02)
 number of electron     315.9999999 magnetization 
 augmentation part      -17.8321140 magnetization 

 Broyden mixing:
  rms(total) = 0.29504E-01    rms(broyden)= 0.21761E+00
  rms(prec ) = 0.36901E-01
  weight for this iteration     100.00
  WARNING: grid for Broyden might be to small

 eigenvalues of (default mixing * dielectric matrix)
  average eigenvalue GAMMA=   0.9975
  2.5773  0.8338  0.6243  0.4761  0.4761

 Free energy of the ion-electron system (eV)
  ---------------------------------------------------
  alpha Z        PSCENC =        36.86070208
  Ewald energy   TEWEN  =     41918.74148867
  -Hartree energ DENC   =    -48969.40959461
  -exchange      EXHF   =         0.00000000
  -V(xc)+E(xc)   XCENC  =      -383.33258445
  PAW double counting   =     41583.25887260   -40804.62418325
  entropy T*S    EENTRO =        -0.18071846
  eigenvalues    EBANDS =     -2196.24859714
  atomic energy  EATOM  =      8089.16663890
  Solvation  Ediel_sol  =         0.00000000
  ---------------------------------------------------
  free energy    TOTEN  =      -725.76797565 eV

  energy without entropy =     -725.58725719  energy(sigma->0) =     -725.67761642


--------------------------------------------------------------------------------------------------------




--------------------------------------- Iteration      1(   7)  ---------------------------------------


    POTLOK:  cpu time      2.1430: real time      2.1611
    SETDIJ:  cpu time      1.5655: real time      1.5663
    EDDIAG:  cpu time     66.3044: real time     66.3454
     EDDAV:  cpu time    303.4280: real time    303.5952
       DOS:  cpu time      0.0053: real time      0.0053
    CHARGE:  cpu time     37.3975: real time     37.4313
    MIXING:  cpu time      0.0439: real time      0.0439
    --------------------------------------------
      LOOP:  cpu time    410.8877: real time    411.1486

 eigenvalue-minimisations  :  3376
 total energy-change (2. order) : 0.5652715E-03  (-0.1694242E-02)
 number of electron     315.9999999 magnetization 
 augmentation part      -17.8304584 magnetization 

 Broyden mixing:
  rms(total) = 0.18669E-01    rms(broyden)= 0.11888E+00
  rms(prec ) = 0.20644E-01
  weight for this iteration     100.00
  WARNING: grid for Broyden might be to small

 eigenvalues of (default mixing * dielectric matrix)
  average eigenvalue GAMMA=   0.9706
  2.5808  1.0529  0.6812  0.6262  0.5315  0.3508

 Free energy of the ion-electron system (eV)
  ---------------------------------------------------
  alpha Z        PSCENC =        36.86070208
  Ewald energy   TEWEN  =     41918.74148867
  -Hartree energ DENC   =    -48969.16620014
  -exchange      EXHF   =         0.00000000
  -V(xc)+E(xc)   XCENC  =      -383.28803246
  PAW double counting   =     41555.95486206   -40777.31323908
  entropy T*S    EENTRO =        -0.17936613
  eigenvalues    EBANDS =     -2196.54426428
  atomic energy  EATOM  =      8089.16663890
  Solvation  Ediel_sol  =         0.00000000
  ---------------------------------------------------
  free energy    TOTEN  =      -725.76741038 eV

  energy without entropy =     -725.58804424  energy(sigma->0) =     -725.67772731


--------------------------------------------------------------------------------------------------------




--------------------------------------- Iteration      1(   8)  ---------------------------------------


    POTLOK:  cpu time      2.1288: real time      2.1572
    SETDIJ:  cpu time      1.5704: real time      1.5717
    EDDIAG:  cpu time     66.3351: real time     66.3757
     EDDAV:  cpu time    301.9386: real time    302.1159
       DOS:  cpu time      0.0039: real time      0.0039
    CHARGE:  cpu time     37.3859: real time     37.4200
    MIXING:  cpu time      0.0444: real time      0.0444
    --------------------------------------------
      LOOP:  cpu time    409.4070: real time    409.6888

 eigenvalue-minimisations  :  3352
 total energy-change (2. order) :-0.7501123E-03  (-0.8173622E-03)
 number of electron     315.9999999 magnetization 
 augmentation part      -17.8284699 magnetization 

 Broyden mixing:
  rms(total) = 0.83720E-02    rms(broyden)= 0.89756E-01
  rms(prec ) = 0.11059E-01
  weight for this iteration     100.00
  WARNING: grid for Broyden might be to small

 eigenvalues of (default mixing * dielectric matrix)
  average eigenvalue GAMMA=   0.9622
  2.5666  1.3007  0.8039  0.6149  0.5555  0.5555  0.3383

 Free energy of the ion-electron system (eV)
  ---------------------------------------------------
  alpha Z        PSCENC =        36.86070208
  Ewald energy   TEWEN  =     41918.74148867
  -Hartree energ DENC   =    -48968.50009279
  -exchange      EXHF   =         0.00000000
  -V(xc)+E(xc)   XCENC  =      -383.07951420
  PAW double counting   =     41576.89996984   -40798.24726642
  entropy T*S    EENTRO =        -0.18120834
  eigenvalues    EBANDS =     -2197.42887823
  atomic energy  EATOM  =      8089.16663890
  Solvation  Ediel_sol  =         0.00000000
  ---------------------------------------------------
  free energy    TOTEN  =      -725.76816049 eV

  energy without entropy =     -725.58695215  energy(sigma->0) =     -725.67755632


--------------------------------------------------------------------------------------------------------




--------------------------------------- Iteration      1(   9)  ---------------------------------------


    POTLOK:  cpu time      2.1399: real time      2.1745
    SETDIJ:  cpu time      1.5672: real time      1.5678
    EDDIAG:  cpu time     66.2204: real time     66.2605
     EDDAV:  cpu time    306.9519: real time    307.1243
       DOS:  cpu time      0.0030: real time      0.0030
    CHARGE:  cpu time     37.4273: real time     37.4599
    MIXING:  cpu time      0.0452: real time      0.0453
    --------------------------------------------
      LOOP:  cpu time    414.3551: real time    414.6356

 eigenvalue-minimisations  :  3448
 total energy-change (2. order) :-0.1424502E-04  (-0.1768277E-03)
 number of electron     315.9999999 magnetization 
 augmentation part      -17.8286406 magnetization 

 Broyden mixing:
  rms(total) = 0.29143E-02    rms(broyden)= 0.30283E-01
  rms(prec ) = 0.35172E-02
  weight for this iteration     100.00
  WARNING: grid for Broyden might be to small

 eigenvalues of (default mixing * dielectric matrix)
  average eigenvalue GAMMA=   1.0280
  2.5201  2.0144  0.9502  0.7013  0.6387  0.5890  0.3594  0.4509

 Free energy of the ion-electron system (eV)
  ---------------------------------------------------
  alpha Z        PSCENC =        36.86070208
  Ewald energy   TEWEN  =     41918.74148867
  -Hartree energ DENC   =    -48968.30758182
  -exchange      EXHF   =         0.00000000
  -V(xc)+E(xc)   XCENC  =      -383.09223074
  PAW double counting   =     41591.01824739   -40812.36192300
  entropy T*S    EENTRO =        -0.18051196
  eigenvalues    EBANDS =     -2197.61300426
  atomic energy  EATOM  =      8089.16663890
  Solvation  Ediel_sol  =         0.00000000
  ---------------------------------------------------
  free energy    TOTEN  =      -725.76817473 eV

  energy without entropy =     -725.58766278  energy(sigma->0) =     -725.67791875


--------------------------------------------------------------------------------------------------------




--------------------------------------- Iteration      1(  10)  ---------------------------------------


    POTLOK:  cpu time      2.1342: real time      2.1617
    SETDIJ:  cpu time      1.5656: real time      1.5665
    EDDIAG:  cpu time     66.3638: real time     66.4062
     EDDAV:  cpu time    305.2320: real time    305.4072
       DOS:  cpu time      0.0124: real time      0.0128
    CHARGE:  cpu time     37.4260: real time     37.4764
    MIXING:  cpu time      0.0602: real time      0.0609
    --------------------------------------------
      LOOP:  cpu time    412.7941: real time    413.0916

 eigenvalue-minimisations  :  3416
 total energy-change (2. order) : 0.3228501E-04  (-0.8343230E-04)
 number of electron     315.9999999 magnetization 
 augmentation part      -17.8287511 magnetization 

 Broyden mixing:
  rms(total) = 0.17839E-02    rms(broyden)= 0.12582E-01
  rms(prec ) = 0.21729E-02
  weight for this iteration     100.00
  WARNING: grid for Broyden might be to small

 eigenvalues of (default mixing * dielectric matrix)
  average eigenvalue GAMMA=   1.0506
  2.5140  2.5140  0.9146  0.7419  0.7419  0.3622  0.4524  0.6344  0.5801

 Free energy of the ion-electron system (eV)
  ---------------------------------------------------
  alpha Z        PSCENC =        36.86070208
  Ewald energy   TEWEN  =     41918.74148867
  -Hartree energ DENC   =    -48968.08305120
  -exchange      EXHF   =         0.00000000
  -V(xc)+E(xc)   XCENC  =      -383.10694922
  PAW double counting   =     41597.26900146   -40818.61100548
  entropy T*S    EENTRO =        -0.18018452
  eigenvalues    EBANDS =     -2197.82478314
  atomic energy  EATOM  =      8089.16663890
  Solvation  Ediel_sol  =         0.00000000
  ---------------------------------------------------
  free energy    TOTEN  =      -725.76814245 eV

  energy without entropy =     -725.58795793  energy(sigma->0) =     -725.67805019


--------------------------------------------------------------------------------------------------------




--------------------------------------- Iteration      1(  11)  ---------------------------------------


    POTLOK:  cpu time      2.1634: real time      2.1665
    SETDIJ:  cpu time      1.5845: real time      1.5869
    EDDIAG:  cpu time     66.3731: real time     66.4151
     EDDAV:  cpu time    307.5630: real time    307.7393
       DOS:  cpu time      0.0067: real time      0.0067
    CHARGE:  cpu time     37.4083: real time     37.4396
    MIXING:  cpu time      0.0466: real time      0.0467
    --------------------------------------------
      LOOP:  cpu time    415.1455: real time    415.4005

 eigenvalue-minimisations  :  3456
 total energy-change (2. order) :-0.1198317E-03  (-0.2249851E-04)
 number of electron     315.9999999 magnetization 
 augmentation part      -17.8288635 magnetization 

 Broyden mixing:
  rms(total) = 0.11261E-02    rms(broyden)= 0.70705E-02
  rms(prec ) = 0.14486E-02
  weight for this iteration     100.00
  WARNING: grid for Broyden might be to small

 eigenvalues of (default mixing * dielectric matrix)
  average eigenvalue GAMMA=   1.0648
  2.6817  2.6817  0.9775  0.9775  0.3597  0.7076  0.6625  0.6177  0.5079  0.4735

 Free energy of the ion-electron system (eV)
  ---------------------------------------------------
  alpha Z        PSCENC =        36.86070208
  Ewald energy   TEWEN  =     41918.74148867
  -Hartree energ DENC   =    -48967.85639871
  -exchange      EXHF   =         0.00000000
  -V(xc)+E(xc)   XCENC  =      -383.11757671
  PAW double counting   =     41597.59780678   -40818.93873992
  entropy T*S    EENTRO =        -0.18034529
  eigenvalues    EBANDS =     -2198.04183809
  atomic energy  EATOM  =      8089.16663890
  Solvation  Ediel_sol  =         0.00000000
  ---------------------------------------------------
  free energy    TOTEN  =      -725.76826228 eV

  energy without entropy =     -725.58791699  energy(sigma->0) =     -725.67808964


--------------------------------------------------------------------------------------------------------




--------------------------------------- Iteration      1(  12)  ---------------------------------------


    POTLOK:  cpu time      2.1459: real time      2.1766
    SETDIJ:  cpu time      1.5790: real time      1.5798
    EDDIAG:  cpu time     66.3334: real time     66.3756
     EDDAV:  cpu time    300.8047: real time    300.9732
       DOS:  cpu time      0.0038: real time      0.0038
    CHARGE:  cpu time     37.4458: real time     37.4787
    MIXING:  cpu time      0.0478: real time      0.0478
    --------------------------------------------
      LOOP:  cpu time    408.3605: real time    408.6355

 eigenvalue-minimisations  :  3328
 total energy-change (2. order) :-0.1539801E-03  (-0.2045272E-04)
 number of electron     315.9999999 magnetization 
 augmentation part      -17.8290160 magnetization 

 Broyden mixing:
  rms(total) = 0.56877E-03    rms(broyden)= 0.43678E-02
  rms(prec ) = 0.84543E-03
  weight for this iteration     100.00
  WARNING: grid for Broyden might be to small

 eigenvalues of (default mixing * dielectric matrix)
  average eigenvalue GAMMA=   1.0761
  2.7179  2.7179  1.2367  0.8881  0.8881  0.8125  0.3599  0.6309  0.4585  0.5796
  0.5472

 Free energy of the ion-electron system (eV)
  ---------------------------------------------------
  alpha Z        PSCENC =        36.86070208
  Ewald energy   TEWEN  =     41918.74148867
  -Hartree energ DENC   =    -48967.53678447
  -exchange      EXHF   =         0.00000000
  -V(xc)+E(xc)   XCENC  =      -383.13043655
  PAW double counting   =     41594.40784511   -40815.74784126
  entropy T*S    EENTRO =        -0.18033749
  eigenvalues    EBANDS =     -2198.34969127
  atomic energy  EATOM  =      8089.16663890
  Solvation  Ediel_sol  =         0.00000000
  ---------------------------------------------------
  free energy    TOTEN  =      -725.76841626 eV

  energy without entropy =     -725.58807878  energy(sigma->0) =     -725.67824752


--------------------------------------------------------------------------------------------------------




--------------------------------------- Iteration      1(  13)  ---------------------------------------


    POTLOK:  cpu time      2.1616: real time      2.1693
    SETDIJ:  cpu time      1.5652: real time      1.5661
    EDDIAG:  cpu time     66.3765: real time     66.4183
     EDDAV:  cpu time    301.5292: real time    301.7019
       DOS:  cpu time      0.0042: real time      0.0042
    CHARGE:  cpu time     37.3761: real time     37.4107
    MIXING:  cpu time      0.0514: real time      0.0514
    --------------------------------------------
      LOOP:  cpu time    409.0642: real time    409.3220

 eigenvalue-minimisations  :  3328
 total energy-change (2. order) :-0.1364592E-03  (-0.1292946E-04)
 number of electron     315.9999999 magnetization 
 augmentation part      -17.8290774 magnetization 

 Broyden mixing:
  rms(total) = 0.37376E-03    rms(broyden)= 0.22917E-02
  rms(prec ) = 0.60794E-03
  weight for this iteration     100.00
  WARNING: grid for Broyden might be to small

 eigenvalues of (default mixing * dielectric matrix)
  average eigenvalue GAMMA=   1.1134
  2.8051  2.8051  1.8408  1.0721  0.7870  0.7870  0.3599  0.7023  0.4590  0.6265
  0.5858  0.5308

 Free energy of the ion-electron system (eV)
  ---------------------------------------------------
  alpha Z        PSCENC =        36.86070208
  Ewald energy   TEWEN  =     41918.74148867
  -Hartree energ DENC   =    -48967.30534396
  -exchange      EXHF   =         0.00000000
  -V(xc)+E(xc)   XCENC  =      -383.13597602
  PAW double counting   =     41593.47325666   -40814.81308413
  entropy T*S    EENTRO =        -0.18037126
  eigenvalues    EBANDS =     -2198.57586368
  atomic energy  EATOM  =      8089.16663890
  Solvation  Ediel_sol  =         0.00000000
  ---------------------------------------------------
  free energy    TOTEN  =      -725.76855272 eV

  energy without entropy =     -725.58818146  energy(sigma->0) =     -725.67836709


--------------------------------------------------------------------------------------------------------




--------------------------------------- Iteration      1(  14)  ---------------------------------------


    POTLOK:  cpu time      2.1699: real time      2.1716
    SETDIJ:  cpu time      1.5631: real time      1.5639
    EDDIAG:  cpu time     66.1118: real time     66.1513
     EDDAV:  cpu time    299.1405: real time    299.3131
       DOS:  cpu time      0.0065: real time      0.0065
    CHARGE:  cpu time     37.4668: real time     37.5016
    MIXING:  cpu time      0.0489: real time      0.0489
    --------------------------------------------
      LOOP:  cpu time    406.5076: real time    406.7570

 eigenvalue-minimisations  :  3296
 total energy-change (2. order) :-0.1174879E-03  (-0.1073407E-04)
 number of electron     315.9999999 magnetization 
 augmentation part      -17.8291250 magnetization 

 Broyden mixing:
  rms(total) = 0.25955E-03    rms(broyden)= 0.11126E-02
  rms(prec ) = 0.43824E-03
  weight for this iteration     100.00
  WARNING: grid for Broyden might be to small

 eigenvalues of (default mixing * dielectric matrix)
  average eigenvalue GAMMA=   1.1356
  2.9887  2.7765  2.1291  1.0639  1.0639  0.7836  0.7836  0.3599  0.6380  0.6380
  0.4605  0.5628  0.5149

 Free energy of the ion-electron system (eV)
  ---------------------------------------------------
  alpha Z        PSCENC =        36.86070208
  Ewald energy   TEWEN  =     41918.74148867
  -Hartree energ DENC   =    -48967.10985399
  -exchange      EXHF   =         0.00000000
  -V(xc)+E(xc)   XCENC  =      -383.14054239
  PAW double counting   =     41593.38131345   -40814.72133101
  entropy T*S    EENTRO =        -0.18035815
  eigenvalues    EBANDS =     -2198.76672777
  atomic energy  EATOM  =      8089.16663890
  Solvation  Ediel_sol  =         0.00000000
  ---------------------------------------------------
  free energy    TOTEN  =      -725.76867021 eV

  energy without entropy =     -725.58831206  energy(sigma->0) =     -725.67849113


--------------------------------------------------------------------------------------------------------




--------------------------------------- Iteration      1(  15)  ---------------------------------------


    POTLOK:  cpu time      2.1373: real time      2.1607
    SETDIJ:  cpu time      1.5768: real time      1.5775
    EDDIAG:  cpu time     66.0115: real time     66.0502
     EDDAV:  cpu time    301.0541: real time    301.2192
       DOS:  cpu time      0.0037: real time      0.0172
    CHARGE:  cpu time     37.3821: real time     37.4124
    MIXING:  cpu time      0.0502: real time      0.0503
    --------------------------------------------
      LOOP:  cpu time    408.2158: real time    408.4874

 eigenvalue-minimisations  :  3328
 total energy-change (2. order) :-0.1389048E-03  (-0.1370567E-04)
 number of electron     315.9999999 magnetization 
 augmentation part      -17.8291852 magnetization 

 Broyden mixing:
  rms(total) = 0.16842E-03    rms(broyden)= 0.18461E-02
  rms(prec ) = 0.28160E-03
  weight for this iteration     100.00
  WARNING: grid for Broyden might be to small

 eigenvalues of (default mixing * dielectric matrix)
  average eigenvalue GAMMA=   1.1677
  3.1887  2.7474  2.3328  1.4383  0.9834  0.9834  0.8231  0.3599  0.6762  0.6762
  0.6151  0.4600  0.5570  0.5061

 Free energy of the ion-electron system (eV)
  ---------------------------------------------------
  alpha Z        PSCENC =        36.86070208
  Ewald energy   TEWEN  =     41918.74148867
  -Hartree energ DENC   =    -48966.88319926
  -exchange      EXHF   =         0.00000000
  -V(xc)+E(xc)   XCENC  =      -383.14523976
  PAW double counting   =     41593.67320967   -40815.01362534
  entropy T*S    EENTRO =        -0.18035889
  eigenvalues    EBANDS =     -2198.98842519
  atomic energy  EATOM  =      8089.16663890
  Solvation  Ediel_sol  =         0.00000000
  ---------------------------------------------------
  free energy    TOTEN  =      -725.76880911 eV

  energy without entropy =     -725.58845022  energy(sigma->0) =     -725.67862967


--------------------------------------------------------------------------------------------------------




--------------------------------------- Iteration      1(  16)  ---------------------------------------


    POTLOK:  cpu time      2.1631: real time      2.1647
    SETDIJ:  cpu time      1.5888: real time      1.5904
    EDDIAG:  cpu time     66.3754: real time     66.4143
     EDDAV:  cpu time    301.1070: real time    301.2732
       DOS:  cpu time      0.0083: real time      0.0083
    CHARGE:  cpu time     37.3985: real time     37.4326
    MIXING:  cpu time      0.0514: real time      0.0514
    --------------------------------------------
      LOOP:  cpu time    408.6925: real time    408.9348

 eigenvalue-minimisations  :  3328
 total energy-change (2. order) :-0.1162987E-03  (-0.9590884E-05)
 number of electron     315.9999999 magnetization 
 augmentation part      -17.8292242 magnetization 

 Broyden mixing:
  rms(total) = 0.11260E-03    rms(broyden)= 0.22261E-02
  rms(prec ) = 0.17617E-03
  weight for this iteration     100.00
  WARNING: grid for Broyden might be to small

 eigenvalues of (default mixing * dielectric matrix)
  average eigenvalue GAMMA=   1.2353
  3.7300  2.6869  2.6869  1.7823  1.1444  0.9310  0.8654  0.8654  0.3599  0.6741
  0.6567  0.6239  0.4604  0.5594  0.5035

 Free energy of the ion-electron system (eV)
  ---------------------------------------------------
  alpha Z        PSCENC =        36.86070208
  Ewald energy   TEWEN  =     41918.74148867
  -Hartree energ DENC   =    -48966.70883702
  -exchange      EXHF   =         0.00000000
  -V(xc)+E(xc)   XCENC  =      -383.14760404
  PAW double counting   =     41593.85847252   -40815.19917807
  entropy T*S    EENTRO =        -0.18037292
  eigenvalues    EBANDS =     -2199.16023554
  atomic energy  EATOM  =      8089.16663890
[...]
   -.765E+01 0.328E+01 0.326E+03   0.941E+01 -.434E+01 -.329E+03   -.126E+01 0.188E+01 0.149E+01   0.111E-05 0.151E-05 -.437E-05
   0.584E+00 0.920E+01 -.329E+03   -.105E+01 -.985E+01 0.328E+03   0.330E+00 0.547E-01 0.357E+00   -.122E-04 -.322E-04 -.341E-05
   0.782E+01 -.272E+02 -.297E+03   -.803E+01 0.274E+02 0.297E+03   0.141E+01 -.132E+01 0.180E+00   -.416E-04 0.359E-04 0.299E-04
   0.161E+02 -.165E+02 -.340E+02   -.148E+02 0.149E+02 0.329E+02   -.181E+01 0.169E+01 0.301E+00   0.177E-05 -.203E-04 0.209E-04
   -.187E+02 0.477E+01 0.183E+03   0.197E+02 -.517E+01 -.183E+03   -.570E+00 0.707E+00 0.708E+00   -.792E-05 -.153E-04 -.152E-04
   0.271E+01 0.728E+01 0.315E+03   -.295E+01 -.585E+01 -.316E+03   -.363E-01 -.940E+00 0.969E+00   0.137E-04 -.399E-05 -.612E-06
   0.108E+02 -.230E+02 0.288E+03   -.119E+02 0.238E+02 -.293E+03   0.796E+00 -.483E+00 0.541E+01   -.153E-04 0.993E-05 -.226E-04
   0.205E+02 0.164E+02 0.254E+03   -.204E+02 -.152E+02 -.253E+03   -.294E+00 -.633E+00 -.204E+01   0.150E-04 -.699E-06 -.741E-06
   -.856E+01 0.132E+02 0.174E+02   0.670E+01 -.120E+02 -.200E+02   0.177E+01 -.991E+00 0.264E+01   -.263E-04 -.182E-04 -.304E-04
   0.551E+01 -.244E+02 0.920E+02   -.402E+01 0.232E+02 -.929E+02   -.922E+00 0.117E+01 0.518E+00   -.206E-04 0.556E-04 0.336E-04
   -.234E+02 -.652E+01 -.301E+03   0.225E+02 0.520E+01 0.297E+03   0.899E+00 0.500E-02 0.300E+01   -.272E-04 0.223E-04 0.335E-04
   0.477E+02 -.437E+01 -.230E+03   -.459E+02 0.264E+01 0.227E+03   -.209E+01 0.240E+01 0.324E+01   0.389E-04 0.537E-05 0.725E-04
   0.947E+01 -.151E+02 0.137E+03   -.943E+01 0.139E+02 -.138E+03   -.401E+00 0.211E+01 0.121E+01   0.855E-05 -.776E-05 0.237E-04
   -.212E+02 0.272E+02 -.279E+03   0.200E+02 -.264E+02 0.276E+03   0.122E+01 -.924E+00 0.366E+01   0.229E-04 0.184E-04 0.584E-04
   -.116E+02 -.133E+02 0.260E+02   0.116E+02 0.123E+02 -.247E+02   0.131E+00 0.154E+01 -.195E+00   -.473E-06 -.907E-05 0.325E-04
   -.230E+02 -.424E+01 -.146E+03   0.211E+02 0.359E+01 0.145E+03   0.269E+01 0.807E+00 0.926E+00   -.267E-04 0.230E-04 0.405E-04
   -.610E+01 0.186E+02 0.369E+02   0.584E+01 -.190E+02 -.358E+02   -.219E-01 0.139E+01 -.143E+01   -.153E-04 0.107E-04 0.184E-04
   0.315E+01 0.366E+01 -.473E+02   -.156E+01 -.415E+01 0.497E+02   -.178E+01 -.103E-01 -.292E+01   0.324E-05 -.202E-04 0.316E-06
   0.199E+02 0.530E+02 -.265E+03   -.187E+02 -.536E+02 0.263E+03   -.147E+01 0.120E+01 0.213E+01   0.109E-05 -.428E-04 0.108E-04
   0.193E+02 -.735E+01 -.270E+03   -.195E+02 0.508E+01 0.266E+03   -.150E+01 0.221E+01 0.583E+01   -.224E-04 -.245E-04 0.141E-04
   0.254E+02 0.190E+02 0.156E+03   -.240E+02 -.189E+02 -.158E+03   -.251E+01 -.339E+00 0.196E+01   0.771E-05 0.165E-04 0.627E-05
   0.175E+02 0.112E+02 0.316E+03   -.169E+02 -.106E+02 -.318E+03   -.837E+00 -.422E+00 0.204E+01   0.490E-05 -.332E-04 0.278E-05
   -.129E+02 0.163E+01 -.308E+03   0.137E+02 0.172E+00 0.305E+03   -.165E+01 -.212E+01 0.351E+01   -.165E-04 -.255E-04 0.159E-04
   -.113E+02 -.115E+02 0.638E+02   0.971E+01 0.118E+02 -.644E+02   0.242E+01 -.182E+00 0.110E+00   -.118E-04 0.251E-04 0.210E-04
   -.167E+02 0.996E+01 -.217E+03   0.151E+02 -.101E+02 0.215E+03   0.218E+01 -.141E+01 0.197E+01   0.183E-04 -.404E-04 0.172E-04
   -.293E+02 0.186E+02 0.212E+03   0.268E+02 -.201E+02 -.211E+03   0.281E+01 0.109E+01 -.182E+01   -.281E-04 -.324E-04 -.265E-04
   0.154E+02 -.123E+02 0.196E+03   -.154E+02 0.122E+02 -.194E+03   -.601E-01 -.252E+00 -.212E+01   0.643E-05 -.118E-04 0.190E-05
   -.373E+01 0.971E+01 0.295E+03   0.529E+01 -.101E+02 -.293E+03   -.975E+00 0.286E+00 -.171E+01   -.115E-04 -.204E-04 -.384E-04
   0.908E+00 0.153E+02 0.821E+02   0.122E+00 -.142E+02 -.820E+02   -.869E+00 -.136E+01 0.361E+00   0.439E-05 -.277E-04 0.981E-05
   -.285E+02 0.524E+01 -.124E+03   0.280E+02 -.508E+01 0.125E+03   -.204E-01 0.473E+00 -.226E+01   -.239E-05 -.175E-04 0.128E-04
   -.193E+02 0.278E+02 0.163E+03   0.165E+02 -.265E+02 -.164E+03   0.341E+01 -.151E+01 0.663E+00   -.188E-04 -.422E-04 -.160E-04
   -.379E+00 -.150E+02 0.913E+02   -.843E+00 0.128E+02 -.899E+02   0.180E+01 0.252E+01 -.162E+01   0.159E-04 -.189E-04 -.214E-04
   -.147E+02 0.344E+02 0.273E+03   0.166E+02 -.359E+02 -.275E+03   -.170E+01 0.962E+00 0.212E+01   -.123E-04 -.249E-04 -.309E-04
   0.331E+02 0.101E+02 0.133E+03   -.315E+02 -.108E+02 -.133E+03   -.225E+01 0.265E-01 -.734E+00   0.670E-05 -.197E-04 -.889E-05
   -.332E+02 -.138E+02 -.274E+03   0.312E+02 0.136E+02 0.270E+03   0.186E+01 0.318E+00 0.449E+01   0.371E-04 -.953E-05 0.189E-04
   0.239E+02 -.288E+02 -.267E+03   -.233E+02 0.296E+02 0.268E+03   -.894E+00 -.848E+00 0.151E+00   -.205E-05 -.461E-05 0.145E-04
   0.558E+00 0.433E+01 0.273E+03   -.186E+00 -.768E+00 -.271E+03   -.205E+00 -.365E+01 -.110E+01   -.446E-05 -.680E-05 0.984E-05
   0.945E+01 -.402E+01 -.311E+03   -.101E+02 0.378E+01 0.310E+03   0.569E+00 0.195E+00 0.121E+01   -.158E-05 0.406E-04 0.453E-04
   0.508E+01 0.663E+01 -.179E+03   -.265E+01 -.558E+01 0.178E+03   -.282E+01 -.109E+01 0.131E+01   0.425E-04 -.405E-05 0.381E-04
   0.385E+01 -.238E+02 0.190E+03   -.313E+01 0.231E+02 -.190E+03   -.207E+01 -.462E+00 -.335E+00   -.916E-07 0.409E-04 0.542E-05
   0.323E+02 -.309E+01 0.304E+03   -.337E+02 0.453E+01 -.304E+03   0.201E+01 -.874E+00 -.321E+00   -.294E-04 0.352E-05 -.172E-04
   -.202E+02 -.183E+02 -.156E+02   0.190E+02 0.169E+02 0.170E+02   0.641E+00 0.116E+01 -.214E+01   0.268E-04 0.261E-04 0.343E-04
   -.209E+02 0.209E+02 -.216E+03   0.194E+02 -.186E+02 0.216E+03   0.197E+01 -.307E+01 -.957E-01   -.980E-05 0.225E-05 0.175E-04
   -.151E+02 -.191E+02 0.160E+03   0.156E+02 0.164E+02 -.159E+03   -.125E+00 0.272E+01 -.120E+01   -.350E-05 0.213E-04 0.240E-04
   0.630E+00 0.281E+01 -.414E+02   -.652E-01 -.437E+01 0.445E+02   -.367E+00 0.229E+01 -.259E+01   -.644E-05 -.158E-04 0.152E-04
   0.118E+02 -.232E+02 0.191E+03   -.135E+02 0.243E+02 -.192E+03   0.178E+01 -.115E+01 0.911E+00   -.408E-05 -.103E-04 0.172E-04
   -.101E+02 -.195E+02 -.186E+03   0.105E+02 0.163E+02 0.183E+03   -.699E+00 0.390E+01 0.341E+01   -.317E-04 0.337E-04 0.267E-04
   0.410E+01 0.441E+01 -.135E+03   -.444E+01 -.238E+01 0.134E+03   0.671E+00 -.237E+01 0.397E+00   0.234E-04 0.372E-04 0.847E-04
   -.226E+02 -.122E+02 0.298E+03   0.230E+02 0.142E+02 -.300E+03   0.708E-01 -.233E+01 0.528E+00   0.192E-04 -.325E-05 0.686E-05
   -.433E+02 0.133E+01 0.302E+03   0.370E+02 0.192E+00 -.300E+03   0.778E+01 -.226E+01 -.141E+01   0.426E-04 0.196E-04 -.264E-04
   -.105E+02 0.187E+02 0.295E+03   0.852E+01 -.173E+02 -.293E+03   0.159E+01 -.152E+01 -.108E+01   0.175E-04 -.195E-04 -.286E-04
   0.210E+02 0.153E+02 -.313E+01   -.212E+02 -.149E+02 0.197E+01   0.684E+00 -.833E+00 0.192E+01   -.508E-05 -.317E-04 -.302E-04
   -.790E+00 -.972E+01 0.251E+02   0.226E+01 0.941E+01 -.257E+02   -.233E+01 0.885E+00 0.446E+00   -.271E-04 0.251E-04 0.188E-04
 -----------------------------------------------------------------------------------------------
   -.107E+02 0.116E+02 -.441E+02   -.400E-13 -.213E-13 0.604E-12   0.107E+02 -.116E+02 0.441E+02   -.429E-04 -.153E-03 0.924E-03


 POSITION                                       TOTAL-FORCE (eV/Angst)
 -----------------------------------------------------------------------------------
     14.12590      2.92434     15.51286        -0.069629      0.207152      0.814626
     11.94040      6.69943     10.11763        -1.460757     -0.168231     -0.089549
     12.11960      2.41704     13.55743        -0.213438      0.503827     -0.408618
      4.37422     12.73230     17.01151         1.785603      0.958284     -0.668826
      5.02354      9.83567     14.83568         0.792077      0.185358      0.775161
      0.35917      5.77152     10.63791         0.379382      0.266099      0.026571
      7.33008      2.29013     16.53718         0.313557     -0.015959     -0.511110
     13.71830      7.01588     14.48091        -0.013842      0.178964      0.202738
      2.89718      3.88350     12.01142        -1.302337     -0.421534      0.808621
     12.51710      1.12569     14.14409         0.159435      0.006082     -0.411729
      3.77286      2.01361     16.53880        -0.834831      0.913727     -0.836365
      1.68040     13.27740     15.73506        -0.359453      0.164413      0.494193
      0.32934      1.49045     13.93294         0.077506     -0.824600      0.444973
      6.46057      4.40860     16.01374        -0.514068      0.073467      0.068074
      1.55574      1.05117     16.00170         0.867860      0.499527     -0.391758
      5.01133      9.26117     12.59519         0.964436     -0.909577      0.141220
     10.43590      7.28812     12.08647         0.171335      0.338449     -0.396753
     12.20160     10.05280     13.87900         0.036454      0.512716     -0.629369
      8.83596      7.91492     13.73890        -0.074136     -0.292608     -0.798028
      5.41637     12.17890     14.33970         0.235089     -0.897958     -1.447621
      2.94764     14.49570     11.63681         0.235889      0.429356      0.471815
     12.79600      2.92885     10.05766         0.042401     -0.484909      0.331889
      7.80346      7.82193     10.06287        -1.293100      0.667871      0.115675
     13.38050      8.31735     16.44793        -0.360794      0.504495     -0.727571
      5.69727      0.98532     15.58111        -0.488929     -0.013775      1.204633
     11.20130      7.77710     17.03951        -0.674029      0.811529     -0.714221
      1.91875     11.99480     13.85682        -0.127523     -0.707799      0.093628
      6.99948      3.79740     13.74392         0.403917      0.701483      1.081548
     11.99680      6.01993     13.25656         0.783590     -0.989705     -0.241305
      2.48354      4.93649     10.06258         0.290239      0.923114     -1.151406
      7.69429     12.05320     16.97748        -0.144990     -0.585490     -0.583475
      4.01740      4.43420     16.65048         1.346907     -1.296040     -0.506792
     12.91360     12.29160     13.91374        -0.533755      0.117513     -0.750686
      9.01312      2.60386     11.51036         0.356940      0.345184     -0.089043
      5.92487     12.36330     10.07004        -0.265038      0.403586      0.078329
     10.13140     10.79520     10.00000        -0.179688      0.137953      0.286424
      4.43488     10.92220     11.17139        -0.005236      0.583328     -0.613969
      7.71763     12.18690     13.53956         0.033747      0.141757      0.105452
      6.90077      7.74422     12.36828         0.505034     -0.089314     -0.345892
     13.96350      4.23533     16.40672         0.015398     -1.447000     -0.457044
      9.55175      6.68064     15.59126        -0.206387      0.832669      0.723519
      0.15343     12.52060     12.36268        -0.329140      0.995306      0.752731
     11.34270      1.42304     16.09583         0.051494     -0.045284      0.951116
     14.32550      8.93673     13.30107         0.065432      0.562479      1.012467
      0.68092      5.29593     14.80859         0.895137      0.186327     -0.257231
      0.81007      3.58524     13.16105        -0.301628      1.151242     -0.394071
      9.31856     13.99980     14.25371        -0.254017     -0.539467     -0.586222
      7.18650      9.81123     15.98081        -0.325442      0.860348      0.323844
      5.81210     13.25680     16.21060        -1.837771      0.016006      2.200646
     13.47720      4.46239     11.84528        -1.062115     -0.141283      0.481099
      5.67244      1.60253     10.32230        -0.326714      0.153832     -0.384338
      0.14245     10.39680     16.43995        -0.978818     -0.484155      0.323690
      6.11821      5.54386     12.54317         0.956589      0.017617     -0.559948
     10.57540     10.68850     15.53699         0.566800     -1.543341      0.267761
      7.57826     13.16120     11.47316         0.335104     -0.331179     -0.543539
      0.64490      0.29133     11.90894         0.054041     -0.518862     -0.131691
     10.72090      1.82032     10.12110         0.618853     -0.073071      0.726702
     11.37350     13.98210     12.92562         0.141234     -0.261392      0.551605
      1.53533      9.79269     14.74365        -0.497937      0.661010     -1.177342
      7.33289      0.92877     11.82073         0.724304     -0.287525     -0.425483
      3.78368     12.54780     12.67263         0.662819      0.400897     -0.314426
     11.33930     14.11830     10.50145         0.017605     -0.232704      0.331454
      4.07380      1.95566     12.06427        -0.712717     -0.604028     -0.707980
      9.82227     12.79300     16.13242        -0.109319     -0.038048      0.611569
     13.97610     12.60150     16.04750        -0.247242     -0.274780      0.043761
     13.72510      9.27981     11.00274         0.226136     -0.197801      0.395962
     11.72660      3.73994     16.66849         0.040525     -0.054559     -0.330681
      9.21823      1.59173     15.23067        -0.518595     -0.099975      0.301460
      3.50938      7.73299     11.79914        -1.494686     -1.287946     -0.002414
      5.99075      5.19969     10.20340         0.973559      0.493918     -0.522742
      9.32223      3.37723     13.77528        -0.624780     -0.171041     -0.853489
      3.20058      8.41641     15.32003         0.583305     -0.792974     -0.298155
      1.12085      7.50103     11.92516         0.288019      0.202066     -0.542275
      8.72031     10.12010     14.25494         0.157381      0.832340      0.453008
     11.35860      9.48724     11.58871         0.217833     -0.155507      0.558433
      3.00279      5.83217     15.07014        -0.346447      0.922603      0.799740
     10.72620      4.89148     14.86340         0.331741     -0.460398     -0.159980
      0.45747     11.17160     10.61323         0.288372     -0.460770     -0.800812
      9.53680      6.40721     10.04455         1.746839     -0.843545      0.690463
      8.27699      4.44498     10.10072        -0.240125     -0.005129      1.069761
      5.86342      1.80715     13.36229         0.599503     -0.420965      0.819036
      3.94661      5.67406     12.98244        -1.009966      0.606336     -0.171452
 -----------------------------------------------------------------------------------
    total drift:                               -0.001439      0.001915      0.007215


--------------------------------------------------------------------------------------------------------



  FREE ENERGIE OF THE ION-ELECTRON SYSTEM (eV)
  ---------------------------------------------------
  free  energy   TOTEN  =      -725.76902696 eV

  energy  without entropy=     -725.58865043  energy(sigma->0) =     -725.67883869



--------------------------------------------------------------------------------------------------------


    POTLOK:  cpu time      3.6944: real time      3.6974


--------------------------------------------------------------------------------------------------------


     LOOP+:  cpu time   9131.0031: real time   9137.1710
    4ORBIT:  cpu time      0.0000: real time      0.0000



 total charge

# of ion       s       p       d       tot
------------------------------------------
    1        0.526   0.016   0.000   0.542
    2        0.394   0.002   0.000   0.396
    3        0.575   0.017   0.000   0.592
    4        0.479   0.008   0.000   0.487
    5        0.762   0.896   0.000   1.657
    6        0.804   0.867   0.000   1.671
    7        0.801   0.852   0.000   1.652
    8        0.767   0.922   0.000   1.689
    9        0.757   0.993   0.000   1.750
   10        0.753   0.965   0.000   1.718
   11        0.788   0.799   0.000   1.586
   12        0.803   0.856   0.000   1.660
   13        0.763   0.895   0.000   1.657
   14        0.802   0.795   0.000   1.597
   15        0.800   0.799   0.000   1.599
   16        0.765   0.938   0.000   1.703
   17        0.764   0.880   0.000   1.644
   18        0.777   0.843   0.000   1.619
   19        0.761   0.939   0.000   1.700
   20        0.779   0.914   0.000   1.693
   21        0.786   0.850   0.000   1.636
   22        0.863   0.703   0.000   1.566
   23        0.841   0.748   0.000   1.589
   24        0.796   0.813   0.000   1.609
   25        0.761   0.922   0.000   1.683
   26        0.830   0.739   0.000   1.569
   27        0.779   0.920   0.000   1.699
   28        0.762   0.927   0.000   1.689
   29        0.765   0.904   0.000   1.668
   30        0.871   0.740   0.000   1.611
   31        0.803   0.806   0.000   1.608
   32        0.793   0.808   0.000   1.601
   33        0.772   0.886   0.000   1.658
   34        0.768   0.879   0.000   1.647
   35        0.857   0.736   0.000   1.593
   36        0.926   0.581   0.000   1.507
   37        0.803   0.879   0.000   1.682
   38        0.766   0.865   0.000   1.631
   39        0.775   0.878   0.000   1.653
   40        0.797   0.864   0.000   1.660
   41        0.796   0.835   0.000   1.631
   42        0.771   0.932   0.000   1.703
   43        0.794   0.860   0.000   1.653
   44        0.771   0.906   0.000   1.677
   45        0.760   0.935   0.000   1.695
   46        0.769   0.904   0.000   1.673
   47        0.771   0.886   0.000   1.657
   48        0.816   0.794   0.000   1.610
   49        0.750   0.934   0.000   1.685
   50        0.773   0.859   0.000   1.632
   51        0.879   0.710   0.000   1.589
   52        0.798   0.835   0.000   1.633
   53        0.762   0.974   0.000   1.736
   54        0.792   0.844   0.000   1.637
   55        0.791   0.871   0.000   1.662
   56        0.798   0.836   0.000   1.634
   57        0.788   0.865   0.000   1.653
   58        0.764   0.869   0.000   1.633
   59        0.759   0.945   0.000   1.705
   60        0.759   0.941   0.000   1.700
   61        0.760   0.941   0.000   1.700
   62        0.854   0.705   0.000   1.559
   63        0.758   0.988   0.000   1.746
   64        0.807   0.833   0.000   1.640
   65        0.811   0.820   0.000   1.631
   66        0.806   0.818   0.000   1.624
   67        0.797   0.838   0.000   1.636
   68        0.758   0.943   0.000   1.701
   69        0.801   0.830   0.000   1.632
   70        0.859   0.708   0.000   1.567
   71        0.766   0.931   0.000   1.697
   72        0.797   0.828   0.000   1.625
   73        0.810   0.808   0.000   1.618
   74        0.760   0.942   0.000   1.702
   75        0.772   0.858   0.000   1.630
   76        0.768   0.869   0.000   1.637
   77        0.760   0.937   0.000   1.697
   78        0.856   0.775   0.000   1.631
   79        0.785   0.851   0.000   1.637
   80        0.801   0.803   0.000   1.604
   81        0.775   0.944   0.000   1.720
   82        0.766   0.971   0.000   1.737
--------------------------------------------------
tot         63.618  67.125   0.000 130.744


 total amount of memory used by VASP MPI-rank0   409624. kBytes
=======================================================================

   base                                    :      30000. kBytes
   nonl-proj                               :      78751. kBytes
   fftplans                                :     108832. kBytes
   grid                                    :      83991. kBytes
   one-center                              :         18. kBytes
   wavefun                                 :     108032. kBytes

  
  
 General timing and accounting informations for this job:
 ========================================================
  
                  Total CPU time used (sec):     9294.457
                            User time (sec):     8238.803
                          System time (sec):     1055.654
                         Elapsed time (sec):     9300.744
  
                   Maximum memory used (kb):      682400.
                   Average memory used (kb):          N/A
  
                          Minor page faults:     16624414
                          Major page faults:         1187
                 Voluntary context switches:         2949
