 vasp.6.5.0 16Dec24 (build Jan 20 2025 08:32:48) complex                         
 executed on        HPECrayEX_GCC date 2025.07.22  02:37:20
 running  128 mpi-ranks, with    1 threads/rank, on    1 nodes
 distrk:  each k-point on  128 cores,    1 groups
 distr:  one band on NCORE=  16 cores,    8 groups


--------------------------------------------------------------------------------------------------------


 INCAR:
   SYSTEM = a-Si SPC
   NCORE = 16
   ISTART = 1
   ICHARG = 1
   ISPIN = 1
   ISYM = 1
   EDIFF = 1E-6
   NELM = 150
   EDIFFG = -0.01
   NSW = 0
   ISIF = 2
   IBRION = -1
   PREC = Accurate
   ENCUT = 1200
   KSPACING = 0.23
   KGAMMA = .TRUE.
   METAGGA = SCAN
   LASPH = .TRUE.
   LDIAG = .FALSE.
   LMIXTAU = .TRUE.
   ADDGRID = .TRUE.
   ALGO = Normal
   ISMEAR = 0
   SIGMA = 0.1
   LORBIT = 11
   NEDOS = 2000
   LWAVE = .FALSE.
   LCHARG = .FALSE.

 POTCAR:    PAW_PBE H 15Jun2001                   
 POTCAR:    PAW_PBE Si 05Jan2001                  
 POTCAR:    PAW_PBE H 15Jun2001                   
   SHA256 =  030f79b5d3ab3cf0e668861823c8fb652ff669f3e15e46930bd03bfd63a607b6 H/POTCAR              
   COPYR  = (c) Copyright 15Jun2001 Georg Kresse                                                    
   COPYR  = This file is part of the software VASP. Any use, copying, and all other rights are regul
   COPYR  = If you do not have a valid VASP license, you may not use, copy or distribute this file. 
   VRHFIN =H: ultrasoft test                                                                        
   LEXCH  = PE                                                                                      
   EATOM  =    12.4884 eV,    0.9179 Ry                                                             
                                                                                                    
   TITEL  = PAW_PBE H 15Jun2001                                                                     
   LULTRA =        F    use ultrasoft PP ?                                                          
   IUNSCR =        0    unscreen: 0-lin 1-nonlin 2-no                                               
   RPACOR =    0.000    partial core radius                                                         
   POMASS =    1.000; ZVAL   =    1.000    mass and valenz                                          
   RCORE  =    1.100    outmost cutoff radius                                                       
   RWIGS  =    0.700; RWIGS  =    0.370    wigner-seitz radius (au A)                               
   ENMAX  =  250.000; ENMIN  =  200.000 eV                                                          
   RCLOC  =    0.701    cutoff for local pot                                                        
   LCOR   =        T    correct aug charges                                                         
   LPAW   =        T    paw PP                                                                      
   EAUG   =  400.000                                                                                
   RMAX   =    1.123    core radius for proj-oper                                                   
   RAUG   =    1.200    factor for augmentation sphere                                              
   RDEP   =    1.112    radius for radial grids                                                     
   RDEPT  =    0.926    core radius for aug-charge                                                  
                                                                                                    
   Atomic configuration                                                                             
    2 entries                                                                                       
     n  l   j            E        occ.                                                              
     1  0  0.50        -6.4927   1.0000                                                             
     2  1  0.50        -3.4015   0.0000                                                             
   Description                                                                                      
     l       E           TYP  RCUT    TYP  RCUT                                                     
     0     -6.4927494     23  1.100                                                                 
     0      6.8029130     23  1.100                                                                 
     1     -4.0817478     23  1.100                                                                 
  local pseudopotential read in
  atomic valenz-charges read in
  non local Contribution for L=           0  read in
    real space projection operators read in
  non local Contribution for L=           0  read in
    real space projection operators read in
  non local Contribution for L=           1  read in
    real space projection operators read in
    PAW grid and wavefunctions read in

   number of l-projection  operators is LMAX  =           3
   number of lm-projection operators is LMMAX =           5

 POTCAR:    PAW_PBE Si 05Jan2001                  
   SHA256 =  79d9987ad8750f624c4d6acb2a16d13abf6a777132adc04dc6c8399be72b42bb Si/POTCAR             
   COPYR  = (c) Copyright 05Jan2001 Georg Kresse                                                    
   COPYR  = This file is part of the software VASP. Any use, copying, and all other rights are regul
   COPYR  = If you do not have a valid VASP license, you may not use, copy or distribute this file. 
   VRHFIN =Si: s2p2                                                                                 
   LEXCH  = PE                                                                                      
   EATOM  =   103.0669 eV,    7.5752 Ry                                                             
                                                                                                    
   TITEL  = PAW_PBE Si 05Jan2001                                                                    
   LULTRA =        F    use ultrasoft PP ?                                                          
   IUNSCR =        1    unscreen: 0-lin 1-nonlin 2-no                                               
   RPACOR =    1.500    partial core radius                                                         
   POMASS =   28.085; ZVAL   =    4.000    mass and valenz                                          
   RCORE  =    1.900    outmost cutoff radius                                                       
   RWIGS  =    2.480; RWIGS  =    1.312    wigner-seitz radius (au A)                               
   ENMAX  =  245.345; ENMIN  =  184.009 eV                                                          
   ICORE  =        2    local potential                                                             
   LCOR   =        T    correct aug charges                                                         
   LPAW   =        T    paw PP                                                                      
   EAUG   =  322.069                                                                                
   DEXC   =    0.000                                                                                
   RMAX   =    1.950    core radius for proj-oper                                                   
   RAUG   =    1.300    factor for augmentation sphere                                              
   RDEP   =    1.993    radius for radial grids                                                     
   RDEPT  =    1.837    core radius for aug-charge                                                  
                                                                                                    
   Atomic configuration                                                                             
    6 entries                                                                                       
     n  l   j            E        occ.                                                              
     1  0  0.50     -1785.8828   2.0000                                                             
     2  0  0.50      -139.4969   2.0000                                                             
     2  1  1.50       -95.5546   6.0000                                                             
     3  0  0.50       -10.8127   2.0000                                                             
     3  1  0.50        -4.0811   2.0000                                                             
     3  2  1.50        -4.0817   0.0000                                                             
   Description                                                                                      
     l       E           TYP  RCUT    TYP  RCUT                                                     
     0    -10.8127223     23  1.900                                                                 
     0     -7.6451159     23  1.900                                                                 
     1     -4.0811372     23  1.900                                                                 
     1      2.4879257     23  1.900                                                                 
     2     -4.0817478      7  1.900                                                                 
  local pseudopotential read in
  partial core-charges read in
  partial kinetic energy density read in
  atomic valenz-charges read in
  non local Contribution for L=           0  read in
    real space projection operators read in
  non local Contribution for L=           0  read in
    real space projection operators read in
  non local Contribution for L=           1  read in
    real space projection operators read in
  non local Contribution for L=           1  read in
    real space projection operators read in
    PAW grid and wavefunctions read in

   number of l-projection  operators is LMAX  =           4
   number of lm-projection operators is LMMAX =           8

 -----------------------------------------------------------------------------
|                                                                             |
|               ----> ADVICE to this user running VASP <----                  |
|                                                                             |
|     You have a (more or less) 'large supercell' and for larger cells it     |
|     might be more efficient to use real-space projection operators.         |
|     Therefore, try LREAL= Auto in the INCAR file.                           |
|     Mind: For very accurate calculation, you might also keep the            |
|     reciprocal projection scheme (i.e. LREAL=.FALSE.).                      |
|                                                                             |
 -----------------------------------------------------------------------------

 -----------------------------------------------------------------------------
|                                                                             |
|               ----> ADVICE to this user running VASP <----                  |
|                                                                             |
|     You enforced a specific xc type in the INCAR file but a different       |
|     type was found in the POTCAR file.                                      |
|     I HOPE YOU KNOW WHAT YOU ARE DOING!                                     |
|                                                                             |
 -----------------------------------------------------------------------------

  PAW_PBE H 15Jun2001                   :
 energy of atom  1       EATOM=  -12.4884
 kinetic energy error for atom=    0.0000 (will be added to EATOM!!)
  PAW_PBE Si 05Jan2001                  :
 energy of atom  2       EATOM= -103.0669
 kinetic energy error for atom=    0.0001 (will be added to EATOM!!)


 POSCAR:  H Si
  positions in cartesian coordinates
  No initial velocities read in


 exchange-correlation table for SCAN
   RHO(1)=    0.500       N(1)  =     2000
   RHO(2)=  100.500       N(2)  =     4000



--------------------------------------------------------------------------------------------------------


 ion  position               nearest neighbor table
   1  0.804  0.662  0.515-  16 0.77
   2  0.029  0.561  0.535-  21 0.74
   3  0.680  0.738  0.497-  30 1.51
   4  0.005  0.681  0.598-  38 1.44
   5  0.025  0.840  0.597-  38 1.35
   6  0.950  0.962  0.555-  10 0.72
   7  0.965  0.406  0.563-  42 1.47
   8  0.789  0.570  0.423-  18 0.76
   9  0.897  0.768  0.573-  38 1.55
  10  0.965  0.928  0.535-   6 0.72
  11  0.926  0.574  0.470-  70 1.46
  12  0.776  0.835  0.550-  30 1.55
  13  0.164  0.816  0.588-
  14  0.839  0.527  0.599-
  15  0.832  0.753  0.455-  49 1.48
  16  0.810  0.626  0.493-   1 0.77
  17  0.964  0.922  0.464-  65 1.55
  18  0.815  0.612  0.412-   8 0.76
  19  0.867  0.437  0.522-  40 1.49
  20  0.818  0.949  0.589-  29 1.52
  21  0.052  0.545  0.560-   2 0.74
  22  0.642  0.754  0.406-  60 2.29  49 2.30  69 2.40
  23  0.471  0.832  0.518-  33 2.26  56 2.27  34 2.34  60 2.35
  24  0.140  0.997  0.466-  32 2.20  58 2.38  65 2.40
  25  0.161  0.400  0.515-  45 2.28  42 2.29  51 2.35  39 2.39
  26  0.390  0.087  0.533-  62 2.25  36 2.27  56 2.32  31 2.37
  27  0.204  0.252  0.404-  51 2.38
  28  0.403  0.395  0.494-  54 2.26  43 2.34  35 2.34  51 2.38
  29  0.781  0.025  0.553-  20 1.52  52 2.25  53 2.31  71 2.47
  30  0.685  0.781  0.552-   3 1.51  12 1.55  33 2.33
  31  0.514  0.126  0.591-  26 2.37  71 2.41  41 2.46
  32  0.253  0.899  0.479-  24 2.20  56 2.36  67 2.44  50 2.58
  33  0.566  0.873  0.585-  71 2.23  23 2.26  30 2.33
  34  0.417  0.682  0.532-  23 2.34  64 2.34  55 2.35  46 2.45
  35  0.559  0.356  0.493-  41 2.28  66 2.31  28 2.34  59 2.36
  36  0.431  0.085  0.446-  26 2.27  61 2.31  50 2.37
  37  0.731  0.263  0.571-  41 2.29  40 2.44  52 2.47
  38  0.003  0.765  0.567-   5 1.35   4 1.44   9 1.55  44 2.34
  39  0.234  0.498  0.579-  54 2.26  25 2.39  64 2.42
  40  0.782  0.384  0.510-  19 1.49  63 2.16  59 2.28  37 2.44
  41  0.603  0.216  0.525-  57 2.24  35 2.28  37 2.29  31 2.46  71 3.10
  42  0.038  0.336  0.558-   7 1.47  25 2.29  68 2.33
  43  0.369  0.497  0.424-  28 2.34  46 2.36
  44  0.051  0.750  0.478-  67 2.28  65 2.32  38 2.34  70 2.39
  45  0.096  0.477  0.445-  25 2.28  70 2.33
  46  0.466  0.621  0.445-  69 2.32  43 2.36  34 2.45
  47  0.920  0.171  0.450-  68 2.34  53 2.40  63 2.41
  48  0.619  0.536  0.599-  55 2.23  59 2.40
  49  0.795  0.794  0.406-  15 1.48  22 2.30
  50  0.343  0.971  0.401-  36 2.37  32 2.58
  51  0.274  0.296  0.486-  25 2.35  28 2.38  27 2.38  62 2.43
  52  0.858  0.151  0.580-  29 2.25  68 2.46  37 2.47
  53  0.807  0.054  0.463-  29 2.31  47 2.40  57 2.42
  54  0.381  0.450  0.577-  28 2.26  39 2.26  55 2.34
  55  0.472  0.579  0.597-  48 2.23  54 2.34  34 2.35
  56  0.362  0.932  0.547-  23 2.27  26 2.32  32 2.36
  57  0.663  0.137  0.457-  41 2.24  61 2.36  53 2.42  71 3.14
  58  0.114  0.087  0.544-  68 2.23  24 2.38  62 2.41
  59  0.659  0.480  0.512-  40 2.28  35 2.36  48 2.40  69 2.52
  60  0.536  0.861  0.433-  61 2.27  22 2.29  23 2.35
  61  0.566  0.007  0.460-  60 2.27  36 2.31  57 2.36  71 2.41
  62  0.260  0.166  0.547-  26 2.25  58 2.41  51 2.43
  63  0.830  0.309  0.441-  40 2.16  47 2.41
  64  0.263  0.655  0.551-  67 2.29  34 2.34  39 2.42
  65  0.041  0.883  0.428-  17 1.55  44 2.32  24 2.40
  66  0.573  0.339  0.401-  35 2.31
  67  0.207  0.738  0.480-  44 2.28  64 2.29  32 2.44
  68  0.001  0.187  0.531-  58 2.23  42 2.33  47 2.34  52 2.46
  69  0.624  0.604  0.445-  46 2.32  22 2.40  59 2.52
  70  0.004  0.607  0.439-  11 1.46  45 2.33  44 2.39
  71  0.612  0.009  0.553-  33 2.23  61 2.41  31 2.41  29 2.47  41 3.10  57 3.14

  LATTYP: Found a simple tetragonal cell.
 ALAT       =    14.5595896387
 C/A-ratio  =     1.7134696869
  
  Lattice vectors:
  
 A1 = (  14.5595896387,   0.0000000000,   0.0000000000)
 A2 = (   0.0000000000,  14.5595896387,   0.0000000000)
 A3 = (   0.0000000000,   0.0000000000,  24.9474155000)


Analysis of symmetry for initial positions (statically):
=====================================================================
 Subroutine PRICEL returns:
 Original cell was already a primitive cell.
 

 Routine SETGRP: Setting up the symmetry group for a 
 simple tetragonal supercell.


 Subroutine GETGRP returns: Found  1 space group operations
 (whereof  1 operations were pure point group operations)
 out of a pool of 16 trial point group operations.


The static configuration has the point symmetry C_1 .


Analysis of symmetry for dynamics (positions and initial velocities):
=====================================================================
 Subroutine PRICEL returns:
 Original cell was already a primitive cell.
 

 Routine SETGRP: Setting up the symmetry group for a 
 simple tetragonal supercell.


 Subroutine GETGRP returns: Found  1 space group operations
 (whereof  1 operations were pure point group operations)
 out of a pool of 16 trial point group operations.


The dynamic configuration has the point symmetry C_1 .


 Subroutine INISYM returns: Found  1 space group operations
 (whereof  1 operations are pure point group operations),
 and found     1 'primitive' translations


----------------------------------------------------------------------------------------

                                     Primitive cell                                     

  volume of cell :    5288.3943

  direct lattice vectors                    reciprocal lattice vectors
    14.559589639  0.000000000  0.000000000     0.068683254  0.000000000  0.000000000
     0.000000000 14.559589639  0.000000000     0.000000000  0.068683254  0.000000000
     0.000000000  0.000000000 24.947415500     0.000000000  0.000000000  0.040084313

  length of vectors
    14.559589639 14.559589639 24.947415500     0.068683254  0.068683254  0.040084313

  position of ions in fractional coordinates (direct lattice)
     0.804095465  0.662025527  0.514997455
     0.028578347  0.561355107  0.535461299
     0.679697041  0.737561996  0.496982764
     0.005145365  0.681289806  0.598046940
     0.025334093  0.839858836  0.596977090
     0.950157274  0.961778481  0.554664089
     0.965123355  0.405510055  0.562850509
     0.789342302  0.570160300  0.422784456
     0.896721702  0.768359568  0.573493695
     0.965363746  0.928192369  0.535196341
     0.925788455  0.574068377  0.469803195
     0.776045224  0.835133428  0.549828719
     0.164240893  0.815702935  0.588146916
     0.838677484  0.527141231  0.598928795
     0.832166311  0.753331672  0.455484677
     0.809926673  0.626408451  0.492648046
     0.963646665  0.921832300  0.464041876
     0.814878736  0.611932082  0.412151130
     0.866878828  0.437473868  0.521671493
     0.818422792  0.949010264  0.588505671
     0.052312601  0.544738567  0.559896696
     0.641537999  0.754355052  0.406476515
     0.470634830  0.832035813  0.517578885
     0.139677700  0.997067937  0.466034868
     0.160784751  0.399549036  0.514571760
     0.390114017  0.086814260  0.533370501
     0.203520846  0.252395163  0.403686847
     0.403195430  0.395411556  0.493602854
     0.781217073  0.025252910  0.552953692
     0.684523414  0.780873657  0.552016120
     0.514030284  0.125908768  0.590572819
     0.252867017  0.899311061  0.479297164
     0.566297554  0.872991637  0.584614687
     0.417441023  0.682421019  0.531928668
     0.559139385  0.356178308  0.492678109
     0.430544415  0.085428232  0.445610308
     0.731353030  0.262670865  0.571186843
     0.002771438  0.765103981  0.567430943
     0.233531307  0.497825844  0.578527483
     0.782439635  0.383605592  0.510290755
     0.602883063  0.216445661  0.525472689
     0.037848594  0.335602178  0.558105728
     0.368661489  0.496853289  0.423805805
     0.050751842  0.749512883  0.478195246
     0.096166859  0.476832120  0.444633453
     0.465776864  0.621156243  0.445084402
     0.920273190  0.170701926  0.450305383
     0.619136269  0.535824168  0.599156875
     0.794713332  0.793683084  0.405533932
     0.343452674  0.970810329  0.400914944
     0.274351826  0.295952022  0.485912278
     0.858341499  0.151232971  0.580049885
     0.806519984  0.053780568  0.463182870
     0.381303329  0.450237964  0.577405924
     0.471952175  0.578530042  0.596521331
     0.361572004  0.931784503  0.546613556
     0.662928712  0.137338349  0.456659549
     0.114277946  0.086687883  0.544237358
     0.659250036  0.479772451  0.511905752
     0.536039833  0.861253669  0.433114424
     0.566066778  0.007374178  0.460233466
     0.259611026  0.166304825  0.546961889
     0.830208838  0.308740158  0.440984177
     0.262509459  0.654605675  0.550771101
     0.040974713  0.882813343  0.427802251
     0.573175495  0.338741690  0.400843125
     0.206717365  0.737980964  0.480051952
     0.000811174  0.186665975  0.531037193
     0.624058111  0.604142714  0.444779360
     0.004192089  0.607418905  0.438882958
     0.612104477  0.008708144  0.552983755

  ion indices of the primitive-cell ions
   primitive index   ion index
                 1           1
                 2           2
                 3           3
                 4           4
                 5           5
                 6           6
                 7           7
                 8           8
                 9           9
                10          10
                11          11
                12          12
                13          13
                14          14
                15          15
                16          16
                17          17
                18          18
                19          19
                20          20
                21          21
                22          22
                23          23
                24          24
                25          25
                26          26
                27          27
                28          28
                29          29
                30          30
                31          31
                32          32
                33          33
                34          34
                35          35
                36          36
                37          37
                38          38
                39          39
                40          40
                41          41
                42          42
                43          43
                44          44
                45          45
                46          46
                47          47
                48          48
                49          49
                50          50
                51          51
                52          52
                53          53
                54          54
                55          55
                56          56
                57          57
                58          58
                59          59
                60          60
                61          61
                62          62
                63          63
                64          64
                65          65
                66          66
                67          67
                68          68
                69          69
                70          70
                71          71

----------------------------------------------------------------------------------------


 -----------------------------------------------------------------------------
|                                                                             |
|           W    W    AA    RRRRR   N    N  II  N    N   GGGG   !!!           |
|           W    W   A  A   R    R  NN   N  II  NN   N  G    G  !!!           |
|           W    W  A    A  R    R  N N  N  II  N N  N  G       !!!           |
|           W WW W  AAAAAA  RRRRR   N  N N  II  N  N N  G  GGG   !            |
|           WW  WW  A    A  R   R   N   NN  II  N   NN  G    G                |
|           W    W  A    A  R    R  N    N  II  N    N   GGGG   !!!           |
|                                                                             |
|     The requested file  could not be found or opened for reading            |
|     k-point information. Automatic k-point generation is used as a          |
|     fallback, which may lead to unwanted results.                           |
|                                                                             |
 -----------------------------------------------------------------------------



Automatic generation of k-mesh.
 Grid dimensions derived from KSPACING:
 generate k-points for:    2    2    2

 Generating k-lattice:

  Cartesian coordinates                     Fractional coordinates (reciprocal lattice)
     0.034341627  0.000000000  0.000000000     0.500000000  0.000000000  0.000000000
     0.000000000  0.034341627  0.000000000     0.000000000  0.500000000  0.000000000
     0.000000000  0.000000000  0.020042156     0.000000000  0.000000000  0.500000000

  Length of vectors
     0.034341627  0.034341627  0.020042156

  Shift w.r.t. Gamma in fractional coordinates (k-lattice)
     0.000000000  0.000000000  0.000000000

 
 Subroutine IBZKPT returns following result:
 ===========================================
 
 Found      8 irreducible k-points:
 
 Following reciprocal coordinates:
            Coordinates               Weight
  0.000000  0.000000  0.000000      1.000000
  0.500000  0.000000  0.000000      1.000000
  0.000000  0.500000  0.000000      1.000000
  0.500000  0.500000  0.000000      1.000000
  0.000000  0.000000  0.500000      1.000000
  0.500000  0.000000  0.500000      1.000000
  0.000000  0.500000  0.500000      1.000000
  0.500000  0.500000  0.500000      1.000000
 
 Following cartesian coordinates:
            Coordinates               Weight
  0.000000  0.000000  0.000000      1.000000
  0.034342  0.000000  0.000000      1.000000
  0.000000  0.034342  0.000000      1.000000
  0.034342  0.034342  0.000000      1.000000
  0.000000  0.000000  0.020042      1.000000
  0.034342  0.000000  0.020042      1.000000
  0.000000  0.034342  0.020042      1.000000
  0.034342  0.034342  0.020042      1.000000
 


--------------------------------------------------------------------------------------------------------




 Dimension of arrays:
   k-points           NKPTS =      8   k-points in BZ     NKDIM =      8   number of bands    NBANDS=    152
   number of dos      NEDOS =   2000   number of ions     NIONS =     71
   non local maximal  LDIM  =      4   non local SUM 2l+1 LMDIM =      8
   total plane-waves  NPLWV = ******
   max r-space proj   IRMAX =      1   max aug-charges    IRDMAX= 411280
   dimension x,y,z NGX =   168 NGY =  168 NGZ =  288
   dimension x,y,z NGXF=   336 NGYF=  336 NGZF=  576
   support grid    NGXF=   672 NGYF=  672 NGZF= 1152
   ions per type =              21  50
   NGX,Y,Z   is equivalent  to a cutoff of  19.18, 19.18, 19.19 a.u.
   NGXF,Y,Z  is equivalent  to a cutoff of  38.37, 38.37, 38.38 a.u.

 SYSTEM =  a-Si SPC                                
 POSCAR =   H Si                                   

 Startparameter for this run:
   NWRITE =      2    write-flag & timer
   PREC   = accura    normal or accurate (medium, high low for compatibility)
   ISTART =      1    job   : 0-new  1-cont  2-samecut
   ICHARG =      1    charge: 1-file 2-atom 10-const
   ISPIN  =      1    spin polarized calculation?
   LNONCOLLINEAR =      F non collinear calculations
   LSORBIT =      F    spin-orbit coupling
   INIWAV =      1    electr: 0-lowe 1-rand  2-diag
   LASPH  =      T    aspherical Exc in radial PAW
 Electronic Relaxation 1
   ENCUT  = 1200.0 eV  88.20 Ry    9.39 a.u.  41.12 41.12 70.46*2*pi/ulx,y,z
   ENINI  = 1200.0     initial cutoff
   ENAUG  =  400.0 eV  augmentation charge cutoff
   NELM   =    150;   NELMIN=  2; NELMDL=  0     # of ELM steps 
   EDIFF  = 0.1E-05   stopping-criterion for ELM
   LREAL  =      F    real-space projection
   NLSPLINE    = F    spline interpolate recip. space projectors
   LCOMPAT=      F    compatible to vasp.4.4
   GGA_COMPAT  = T    GGA compatible to vasp.4.4-vasp.4.6
   LMAXPAW     = -100 max onsite density
   LMAXMIX     =    2 max onsite mixed and CHGCAR
   VOSKOWN=      0    Vosko Wilk Nusair interpolation
   ROPT   =    0.00000   0.00000
 Ionic relaxation
   EDIFFG = -.1E-01   stopping-criterion for IOM
   NSW    =      0    number of steps for IOM
   NBLOCK =      1;   KBLOCK =      1    inner block; outer block 
   IBRION =     -1    ionic relax: 0-MD 1-quasi-New 2-CG
   NFREE  =      0    steps in history (QN), initial steepest desc. (CG)
   ISIF   =      2    stress and relaxation
   IWAVPR =     10    prediction:  0-non 1-charg 2-wave 3-comb
   ISYM   =      1    0-nonsym 1-usesym 2-fastsym
   LCORR  =      T    Harris-Foulkes like correction to forces

   POTIM  = 0.5000    time-step for ionic-motion
   TEIN   =    0.0    initial temperature
   TEBEG  =    0.0;   TEEND  =   0.0 temperature during run
   SMASS  =  -3.00    Nose mass-parameter (am)
   estimated Nose-frequenzy (Omega)   =  0.10E-29 period in steps = 0.13E+47 mass=  -0.484E-26a.u.
   SCALEE = 1.0000    scale energy and forces
   NPACO  =    256;   APACO  = 10.0  distance and # of slots for P.C.
   PSTRESS=    0.0 pullay stress

  Mass of Ions in am
   POMASS =   1.00 28.09
  Ionic Valenz
   ZVAL   =   1.00  4.00
  Atomic Wigner-Seitz radii
   RWIGS  =  -1.00 -1.00
  virtual crystal weights 
   VCA    =   1.00  1.00
   NELECT =     221.0000    total number of electrons
   NUPDOWN=      -1.0000    fix difference up-down

 DOS related values:
   EMIN   =  10.00;   EMAX   =-10.00  energy-range for DOS
   EFERMI =   0.00;   METHOD = LEGACY      
   ISMEAR =     0;   SIGMA  =   0.10  broadening in eV -4-tet -1-fermi 0-gaus
   EFERMI_NEDOS =   21; number of points for ismear=-14 and -15

 Electronic relaxation 2 (details)
   IALGO  =     38    algorithm
   LDIAG  =      F    sub-space diagonalisation (order eigenvalues)
   LSUBROT=      F    optimize rotation matrix (better conditioning)
   TURBO    =      0    0=normal 1=particle mesh
   IRESTART =      0    0=no restart 2=restart with 2 vectors
   NREBOOT  =      0    no. of reboots
   NMIN     =      0    reboot dimension
   EREF     =   0.00    reference energy to select bands
   IMIX   =      4    mixing-type and parameters
     AMIX     =   0.40;   BMIX     =  1.00
     AMIX_MAG =   1.60;   BMIX_MAG =  1.00
     AMIN     =   0.10
     WC   =   100.;   INIMIX=   1;  MIXPRE=   1;  MAXMIX= -45

 Intra band minimization:
   WEIMIN = 0.0000     energy-eigenvalue tresh-hold
   EBREAK =  0.16E-08  absolut break condition
   DEPER  =   0.30     relativ break condition  

   TIME   =   0.40     timestep for ELM

  volume/ion in A,a.u.               =      74.48       502.65
  Fermi-wavevector in a.u.,A,eV,Ry     =   0.568108  1.073569  4.391237  0.322747
  Thomas-Fermi vector in A             =   1.607198

 Write flags
   LWAVE        =      F    write WAVECAR
   LDOWNSAMPLE  =      F    k-point downsampling of WAVECAR
   LCHARG       =      F    write CHGCAR
   LVTOT        =      F    write LOCPOT, total local potential
   LVHAR        =      F    write LOCPOT, Hartree potential only
   WRT_POTENTIAL= false  ! write potential to hdf5 file
   LELF         =      F    write electronic localiz. function (ELF)
   LORBIT       =     11    0 simple, 1 ext, 2 COOP (PROOUT), +10 PAW based schemes


 Python interface
   PLUGINS active      =      F    recompile with -DPLUGINS to activate

 Dipole corrections
   LMONO      =      F    monopole corrections only (constant potential shift)
   LDIPOL     =      F    correct potential (dipole corrections)
   IDIPOL     =      0    1-x, 2-y, 3-z, 4-all directions 
   EPSILON    =  1.0000000 bulk dielectric constant
   LVACPOTAV  =      F  vacuum potentials using an averaging scheme for the charge density
   VACPOTFLAT =  0.1000000 required flatness to determine vacuum potential

Coulomb truncation method
  LTRUNCATE          =      F  Coulomb kernel truncation to be used
  IDIMENSIONALITY    =      3  Dimensionality of cutoff (0 molecules / 2 surfaces)
  ISURFACE           =     -1  Direction of surface normal
  LCOARSEN           =      F  Coarsen the charge grid before padding, preferred


 Exchange correlation treatment:
   METAGGA = SCAN    functional components
   XC_C    = 1    coefficients multiplying the functional components
   LIBXC   =     F    Libxc                    
   VOSKOWN =     0    Vosko Wilk Nusair interpolation
   LHFCALC =     F    Hartree Fock is set to
   LHFONE  =     F    Hartree Fock one center treatment
   AEXX    =    0.0000 exact exchange contribution

 Parameters of functionals:
   SCAN:
     P1 =  0.000000E+00
     P2 =  0.000000E+00
     P3 =  0.000000E+00

 Accuracy and mixing parameters for tau-dependent meta-GGA functionals:
   LMAXTAU = 6
   LMIXTAU = T

 Van der Waals corrections
   IVDW    =     0    specifies the selected vdW correction

 Linear response parameters
   LEPSILON=     F    determine dielectric tensor
   LRPA    =     F    only Hartree local field effects (RPA)
   LNABLA  =     F    use nabla operator in PAW spheres
   LVEL    =     F    velocity operator in full k-point grid
   CSHIFT  =0.1000    complex shift for real part using Kramers Kronig
   OMEGAMAX=  -1.0    maximum frequency
   DEG_THRESHOLD= 0.2000000E-02 threshold for treating states as degnerate
   RTIME   =   -0.100 relaxation time in fs
  (WPLASMAI=    0.000 imaginary part of plasma frequency in eV, 0.658/RTIME)
   DFIELD  = 0.0000000 0.0000000 0.0000000 field for delta impulse in time

  Optional k-point grid parameters
   LKPOINTS_OPT  =     F    use optional k-point grid
   KPOINTS_OPT_MODE=     1    mode for optional k-point grid

 Orbital magnetization related:
   ORBITALMAG=     F  switch on orbital magnetization
   LCHIMAG   =     F  perturbation theory with respect to B field
   DQ        =  0.001000  dq finite difference perturbation B field
   LLRAUG    =     F  two centre corrections for induced B field
   LBONE     =     F  B-component reconstruction in AE one-centre
   LVGVCALC  =     T  calculate vGv susceptibility
   LVGVAPPL  =     F  apply vGv susceptibility instead of pGv for G=0

 Random number generation:
   RANDOM_GENERATOR = DEFAULT
   PCG_SEED         = not used


--------------------------------------------------------------------------------------------------------


 Static calculation
 charge density and potential will be updated during run
 non-spin polarized calculation
 Variant of blocked Davidson
 perform Loewdin sub-space diagonalisation
    ordering is kept fixed
    before iterative eigenvector-optimisation
 modified Broyden-mixing scheme, WC =      100.0
 initial mixing is a Kerker type mixing with AMIX =  0.4000 and BMIX =      1.0000
 Hartree-type preconditioning will be used
 using additional bands           41
 reciprocal scheme for non local part
 use partial core corrections
 calculate Harris-corrections to forces   (improved forces if not selfconsistent)
 use gradient corrections 
 use of overlap-Matrix (Vanderbilt PP)
 Gauss-broadening in eV      SIGMA  =   0.10


--------------------------------------------------------------------------------------------------------


  energy-cutoff  :     1200.00
  volume of cell :     5288.39
      direct lattice vectors                 reciprocal lattice vectors
    14.559589639  0.000000000  0.000000000     0.068683254  0.000000000  0.000000000
     0.000000000 14.559589639  0.000000000     0.000000000  0.068683254  0.000000000
     0.000000000  0.000000000 24.947415500     0.000000000  0.000000000  0.040084313

  length of vectors
    14.559589639 14.559589639 24.947415500     0.068683254  0.068683254  0.040084313



 old parameters found on file WAVECAR:
  energy-cutoff  :     1200.00
  volume of cell :     5288.39
      direct lattice vectors                 reciprocal lattice vectors
    14.559589639  0.000000000  0.000000000     0.068683254  0.000000000  0.000000000
     0.000000000 14.559589639  0.000000000     0.000000000  0.068683254  0.000000000
     0.000000000  0.000000000 24.947415500     0.000000000  0.000000000  0.040084313

  length of vectors


 k-points in units of 2pi/SCALE and weight: read from INCAR                         
   0.00000000  0.00000000  0.00000000       0.125
   0.03434163  0.00000000  0.00000000       0.125
   0.00000000  0.03434163  0.00000000       0.125
   0.03434163  0.03434163  0.00000000       0.125
   0.00000000  0.00000000  0.02004216       0.125
   0.03434163  0.00000000  0.02004216       0.125
   0.00000000  0.03434163  0.02004216       0.125
   0.03434163  0.03434163  0.02004216       0.125

 k-points in reciprocal lattice and weights: read from INCAR                         
   0.00000000  0.00000000  0.00000000       0.125
   0.50000000  0.00000000  0.00000000       0.125
   0.00000000  0.50000000  0.00000000       0.125
   0.50000000  0.50000000  0.00000000       0.125
   0.00000000  0.00000000  0.50000000       0.125
   0.50000000  0.00000000  0.50000000       0.125
   0.00000000  0.50000000  0.50000000       0.125
   0.50000000  0.50000000  0.50000000       0.125

 position of ions in fractional coordinates (direct lattice) 
   0.80409546  0.66202553  0.51499746
   0.02857835  0.56135511  0.53546130
   0.67969704  0.73756200  0.49698276
   0.00514536  0.68128981  0.59804694
   0.02533409  0.83985884  0.59697709
   0.95015727  0.96177848  0.55466409
   0.96512336  0.40551006  0.56285051
   0.78934230  0.57016030  0.42278446
   0.89672170  0.76835957  0.57349370
   0.96536375  0.92819237  0.53519634
   0.92578846  0.57406838  0.46980319
   0.77604522  0.83513343  0.54982872
   0.16424089  0.81570293  0.58814692
   0.83867748  0.52714123  0.59892879
   0.83216631  0.75333167  0.45548468
   0.80992667  0.62640845  0.49264805
   0.96364667  0.92183230  0.46404188
   0.81487874  0.61193208  0.41215113
   0.86687883  0.43747387  0.52167149
   0.81842279  0.94901026  0.58850567
   0.05231260  0.54473857  0.55989670
   0.64153800  0.75435505  0.40647651
   0.47063483  0.83203581  0.51757889
   0.13967770  0.99706794  0.46603487
   0.16078475  0.39954904  0.51457176
   0.39011402  0.08681426  0.53337050
   0.20352085  0.25239516  0.40368685
   0.40319543  0.39541156  0.49360285
   0.78121707  0.02525291  0.55295369
   0.68452341  0.78087366  0.55201612
   0.51403028  0.12590877  0.59057282
   0.25286702  0.89931106  0.47929716
   0.56629755  0.87299164  0.58461469
   0.41744102  0.68242102  0.53192867
   0.55913939  0.35617831  0.49267811
   0.43054441  0.08542823  0.44561031
   0.73135303  0.26267086  0.57118684
   0.00277144  0.76510398  0.56743094
   0.23353131  0.49782584  0.57852748
   0.78243963  0.38360559  0.51029076
   0.60288306  0.21644566  0.52547269
   0.03784859  0.33560218  0.55810573
   0.36866149  0.49685329  0.42380580
   0.05075184  0.74951288  0.47819525
   0.09616686  0.47683212  0.44463345
   0.46577686  0.62115624  0.44508440
   0.92027319  0.17070193  0.45030538
   0.61913627  0.53582417  0.59915687
   0.79471333  0.79368308  0.40553393
   0.34345267  0.97081033  0.40091494
   0.27435183  0.29595202  0.48591228
   0.85834150  0.15123297  0.58004989
   0.80651998  0.05378057  0.46318287
   0.38130333  0.45023796  0.57740592
   0.47195218  0.57853004  0.59652133
   0.36157200  0.93178450  0.54661356
   0.66292871  0.13733835  0.45665955
   0.11427795  0.08668788  0.54423736
   0.65925004  0.47977245  0.51190575
   0.53603983  0.86125367  0.43311442
   0.56606678  0.00737418  0.46023347
   0.25961103  0.16630482  0.54696189
   0.83020884  0.30874016  0.44098418
   0.26250946  0.65460567  0.55077110
   0.04097471  0.88281334  0.42780225
   0.57317550  0.33874169  0.40084313
   0.20671736  0.73798096  0.48005195
   0.00081117  0.18666598  0.53103719
   0.62405811  0.60414271  0.44477936
   0.00419209  0.60741891  0.43888296
   0.61210448  0.00870814  0.55298375

 position of ions in cartesian coordinates  (Angst):
  11.70730000  9.63882000 12.84785550
   0.41608900  8.17310000 13.35837550
   9.89611000 10.73860000 12.39843550
   0.07491440  9.91930000 14.91972550
   0.36885400 12.22800000 14.89303550
  13.83390000 14.00310000 13.83743550
  14.05180000  5.90406000 14.04166550
  11.49250000  8.30130000 10.54737950
  13.05590000 11.18700000 14.30718550
  14.05530000 13.51410000 13.35176550
  13.47910000  8.35820000 11.72037550
  11.29890000 12.15920000 13.71680550
   2.39128000 11.87630000 14.67274550
  12.21080000  7.67496000 14.94172550
  12.11600000 10.96820000 11.36316550
  11.79220000  9.12025000 12.29029550
  14.03030000 13.42150000 11.57664550
  11.86430000  8.90948000 10.28210550
  12.62140000  6.36944000 13.01435550
  11.91590000 13.81720000 14.68169550
   0.76165000  7.93117000 13.96797550
   9.34053000 10.98310000 10.14053850
   6.85225000 12.11410000 12.91225550
   2.03365000 14.51690000 11.62636550
   2.34096000  5.81727000 12.83723550
   5.67990000  1.26398000 13.30621550
   2.96318000  3.67477000 10.07094350
   5.87036000  5.75703000 12.31411550
  11.37420000  0.36767200 13.79476550
   9.96638000 11.36920000 13.77137550
   7.48407000  1.83318000 14.73326550
   3.68164000 13.09360000 11.95722550
   8.24506000 12.71040000 14.58462550
   6.07777000  9.93577000 13.27024550
   8.14084000  5.18581000 12.29104550
   6.26855000  1.24380000 11.11682550
  10.64820000  3.82438000 14.24963550
   0.04035100 11.13960000 14.15593550
   3.40012000  7.24814000 14.43276550
  11.39200000  5.58514000 12.73043550
   8.77773000  3.15136000 13.10918550
   0.55106000  4.88623000 13.92329550
   5.36756000  7.23398000 10.57285950
   0.73892600 10.91260000 11.92973550
   1.40015000  6.94248000 11.09245550
   6.78152000  9.04378000 11.10370550
  13.39880000  2.48535000 11.23395550
   9.01437000  7.80138000 14.94741550
  11.57070000 11.55570000 10.11702350
   5.00053000 14.13460000 10.00179170
   3.99445000  4.30894000 12.12225550
  12.49710000  2.20189000 14.47074550
  11.74260000  0.78302300 11.55521550
   5.55162000  6.55528000 14.40478550
   6.87143000  8.42316000 14.88166550
   5.26434000 13.56640000 13.63659550
   9.65197000  1.99959000 11.39247550
   1.66384000  1.26214000 13.57731550
   9.59841000  6.98529000 12.77072550
   7.80452000 12.53950000 10.80508550
   8.24170000  0.10736500 11.48163550
   3.77983000  2.42133000 13.64528550
  12.08750000  4.49513000 11.00141550
   3.82203000  9.53079000 13.74031550
   0.59657500 12.85340000 10.67256050
   8.34520000  4.93194000 10.00000000
   3.00972000 10.74470000 11.97605550
   0.01181036  2.71778000 13.24800550
   9.08603000  8.79607000 11.09609550
   0.06103510  8.84377000 10.94899550
   8.91199000  0.12678700 13.79551550



--------------------------------------------------------------------------------------------------------


 k-point     1 :   0.0000 0.0000 0.0000  plane waves:  499109
 k-point     2 :   0.5000 0.0000 0.0000  plane waves:  499254
 k-point     3 :   0.0000 0.5000 0.0000  plane waves:  499254
 k-point     4 :   0.5000 0.5000 0.0000  plane waves:  499108
 k-point     5 :   0.0000 0.0000 0.5000  plane waves:  499204
 k-point     6 :   0.5000 0.0000 0.5000  plane waves:  499184
 k-point     7 :   0.0000 0.5000 0.5000  plane waves:  499184
 k-point     8 :   0.5000 0.5000 0.5000  plane waves:  499184

 maximum and minimum number of plane-waves per node :     31319    31126

 maximum number of plane-waves:    499254
 maximum index in each direction: 
   IXMAX=   41   IYMAX=   41   IZMAX=   70
   IXMIN=  -41   IYMIN=  -41   IZMIN=  -70


 parallel 3D FFT for wavefunctions:
    minimum data exchange during FFTs selected (reduces bandwidth)
 parallel 3D FFT for charge:
    minimum data exchange during FFTs selected (reduces bandwidth)


 total amount of memory used by VASP MPI-rank0   347047. kBytes
=======================================================================

   base                                    :      30000. kBytes
   nonl-proj                               :      67426. kBytes
   fftplans                                :      97987. kBytes
   grid                                    :      75605. kBytes
   one-center                              :         15. kBytes
   wavefun                                 :      76014. kBytes

     INWAV:  cpu time     23.0523: real time     23.0673
 Broyden mixing: mesh for mixing (old mesh)
   NGX = 83   NGY = 83   NGZ =141
  (NGX  =336   NGY  =336   NGZ  =576)
  gives a total of 971349 points

 initial charge density was supplied:
 number of electron     220.9999999 magnetization 
 keeping initial charge density in first step


--------------------------------------------------------------------------------------------------------


 Maximum index for augmentation-charges         9776 (set IRDMAX)


--------------------------------------------------------------------------------------------------------


 First call to EWALD:  gamma=   0.102
 Maximum number of real-space cells   3x   3x   2
 Maximum number of reciprocal cells   2x   2x   4

    FEWALD:  cpu time      0.0122: real time      0.0127


--------------------------------------- Ionic step        1  -------------------------------------------




--------------------------------------- Iteration      1(   1)  ---------------------------------------


    POTLOK:  cpu time      1.9310: real time      1.9321
    SETDIJ:  cpu time      1.4073: real time      1.4083
    EDDIAG:  cpu time     45.4664: real time     45.4942
     EDDAV:  cpu time    199.7371: real time    199.8483
       DOS:  cpu time      0.0085: real time      0.0086
    CHARGE:  cpu time     25.9247: real time     25.9583
    MIXING:  cpu time      0.0453: real time      0.0458
    --------------------------------------------
      LOOP:  cpu time    274.5206: real time    274.6957

 eigenvalue-minimisations  :  2464
 total energy-change (2. order) :-0.5497996E+03  (-0.6609127E+00)
 number of electron     220.9999999 magnetization 
 augmentation part      -11.2514082 magnetization 

 Broyden mixing:
  rms(total) = 0.81122E+00    rms(broyden)= 0.22985E+02
  rms(prec ) = 0.84754E+00
  weight for this iteration     100.00
  WARNING: grid for Broyden might be to small

 Free energy of the ion-electron system (eV)
  ---------------------------------------------------
  alpha Z        PSCENC =        19.72255585
  Ewald energy   TEWEN  =     21857.27098471
  -Hartree energ DENC   =    -26406.42897389
  -exchange      EXHF   =         0.00000000
  -V(xc)+E(xc)   XCENC  =      -194.00261571
  PAW double counting   =     17151.23454123   -16652.52558626
  entropy T*S    EENTRO =        -0.18845971
  eigenvalues    EBANDS =     -1740.47946945
  atomic energy  EATOM  =      5415.59739267
  Solvation  Ediel_sol  =         0.00000000
  ---------------------------------------------------
  free energy    TOTEN  =      -549.79963055 eV

  energy without entropy =     -549.61117084  energy(sigma->0) =     -549.70540069


--------------------------------------------------------------------------------------------------------




--------------------------------------- Iteration      1(   2)  ---------------------------------------


    POTLOK:  cpu time      1.8950: real time      1.9207
    SETDIJ:  cpu time      1.3962: real time      1.3972
    EDDIAG:  cpu time     45.5299: real time     45.5539
     EDDAV:  cpu time    198.2638: real time    198.3831
       DOS:  cpu time      0.0024: real time      0.0024
    CHARGE:  cpu time     25.7925: real time     25.8158
    MIXING:  cpu time      0.0386: real time      0.0392
    --------------------------------------------
      LOOP:  cpu time    272.9184: real time    273.1121

 eigenvalue-minimisations  :  2432
 total energy-change (2. order) : 0.3993498E+02  (-0.6647034E+00)
 number of electron     220.9999999 magnetization 
 augmentation part      -11.2615226 magnetization 

 Broyden mixing:
  rms(total) = 0.62940E+00    rms(broyden)= 0.13039E+02
  rms(prec ) = 0.67262E+00
  weight for this iteration     100.00
  WARNING: grid for Broyden might be to small

 eigenvalues of (default mixing * dielectric matrix)
  average eigenvalue GAMMA=   0.6382
  0.6382

 Free energy of the ion-electron system (eV)
  ---------------------------------------------------
  alpha Z        PSCENC =        19.72255585
  Ewald energy   TEWEN  =     21857.27098471
  -Hartree energ DENC   =    -26397.38413459
  -exchange      EXHF   =         0.00000000
  -V(xc)+E(xc)   XCENC  =      -189.62088081
  PAW double counting   =     20311.96235537   -19813.10431866
  entropy T*S    EENTRO =        -0.18347724
  eigenvalues    EBANDS =     -1714.12512756
  atomic energy  EATOM  =      5415.59739267
  Solvation  Ediel_sol  =         0.00000000
  ---------------------------------------------------
  free energy    TOTEN  =      -509.86465025 eV

  energy without entropy =     -509.68117301  energy(sigma->0) =     -509.77291163


--------------------------------------------------------------------------------------------------------




--------------------------------------- Iteration      1(   3)  ---------------------------------------


    POTLOK:  cpu time      1.8807: real time      1.9053
    SETDIJ:  cpu time      1.3937: real time      1.3947
    EDDIAG:  cpu time     45.5715: real time     45.5965
     EDDAV:  cpu time    199.8075: real time    199.9254
       DOS:  cpu time      0.0024: real time      0.0024
    CHARGE:  cpu time     25.5029: real time     25.5270
    MIXING:  cpu time      0.0370: real time      0.0370
    --------------------------------------------
      LOOP:  cpu time    274.1956: real time    274.3884

 eigenvalue-minimisations  :  2464
 total energy-change (2. order) :-0.1312860E+01  (-0.6205373E+00)
 number of electron     220.9999999 magnetization 
 augmentation part      -11.1749069 magnetization 

 Broyden mixing:
  rms(total) = 0.48953E+00    rms(broyden)= 0.38678E+01
  rms(prec ) = 0.53685E+00
  weight for this iteration     100.00
  WARNING: grid for Broyden might be to small

 eigenvalues of (default mixing * dielectric matrix)
  average eigenvalue GAMMA=   0.6029
  0.6381  0.5677

 Free energy of the ion-electron system (eV)
  ---------------------------------------------------
  alpha Z        PSCENC =        19.72255585
  Ewald energy   TEWEN  =     21857.27098471
  -Hartree energ DENC   =    -26400.43595497
  -exchange      EXHF   =         0.00000000
  -V(xc)+E(xc)   XCENC  =      -191.03051467
  PAW double counting   =     22315.83138912   -21817.06755938
  entropy T*S    EENTRO =        -0.17775843
  eigenvalues    EBANDS =     -1710.88804544
  atomic energy  EATOM  =      5415.59739267
  Solvation  Ediel_sol  =         0.00000000
  ---------------------------------------------------
  free energy    TOTEN  =      -511.17751053 eV

  energy without entropy =     -510.99975211  energy(sigma->0) =     -511.08863132


--------------------------------------------------------------------------------------------------------




--------------------------------------- Iteration      1(   4)  ---------------------------------------


    POTLOK:  cpu time      1.8818: real time      1.9073
    SETDIJ:  cpu time      1.3923: real time      1.3934
    EDDIAG:  cpu time     45.5601: real time     45.5862
     EDDAV:  cpu time    206.0397: real time    206.1628
       DOS:  cpu time      0.0024: real time      0.0024
    CHARGE:  cpu time     25.5019: real time     25.5249
    MIXING:  cpu time      0.0373: real time      0.0378
    --------------------------------------------
      LOOP:  cpu time    280.4156: real time    280.6148

 eigenvalue-minimisations  :  2600
 total energy-change (2. order) :-0.3609126E-01  (-0.8030173E-01)
 number of electron     220.9999999 magnetization 
 augmentation part      -11.1753805 magnetization 

 Broyden mixing:
  rms(total) = 0.26579E+00    rms(broyden)= 0.10936E+02
  rms(prec ) = 0.32520E+00
  weight for this iteration     100.00
  WARNING: grid for Broyden might be to small

 eigenvalues of (default mixing * dielectric matrix)
  average eigenvalue GAMMA=   0.7058
  1.0715  0.6302  0.4156

 Free energy of the ion-electron system (eV)
  ---------------------------------------------------
  alpha Z        PSCENC =        19.72255585
  Ewald energy   TEWEN  =     21857.27098471
  -Hartree energ DENC   =    -26400.60907050
  -exchange      EXHF   =         0.00000000
  -V(xc)+E(xc)   XCENC  =      -191.08005168
  PAW double counting   =     25657.21576970   -25158.51380862
  entropy T*S    EENTRO =        -0.18919355
  eigenvalues    EBANDS =     -1710.62818038
  atomic energy  EATOM  =      5415.59739267
  Solvation  Ediel_sol  =         0.00000000
  ---------------------------------------------------
  free energy    TOTEN  =      -511.21360179 eV

  energy without entropy =     -511.02440824  energy(sigma->0) =     -511.11900502


--------------------------------------------------------------------------------------------------------




--------------------------------------- Iteration      1(   5)  ---------------------------------------


    POTLOK:  cpu time      1.8962: real time      1.9210
    SETDIJ:  cpu time      1.3808: real time      1.3818
    EDDIAG:  cpu time     45.5360: real time     45.5594
     EDDAV:  cpu time    213.1863: real time    213.3066
       DOS:  cpu time      0.0026: real time      0.0026
    CHARGE:  cpu time     25.7025: real time     25.7254
    MIXING:  cpu time      0.0374: real time      0.0374
    --------------------------------------------
      LOOP:  cpu time    287.7418: real time    287.9342

 eigenvalue-minimisations  :  2768
 total energy-change (2. order) : 0.1662729E+00  (-0.2623215E-01)
 number of electron     220.9999999 magnetization 
 augmentation part      -11.1975839 magnetization 

 Broyden mixing:
  rms(total) = 0.86532E-01    rms(broyden)= 0.24124E+01
  rms(prec ) = 0.12783E+00
  weight for this iteration     100.00
  WARNING: grid for Broyden might be to small

 eigenvalues of (default mixing * dielectric matrix)
  average eigenvalue GAMMA=   0.9265
  2.0585  0.6407  0.4396  0.5671

 Free energy of the ion-electron system (eV)
  ---------------------------------------------------
  alpha Z        PSCENC =        19.72255585
  Ewald energy   TEWEN  =     21857.27098471
  -Hartree energ DENC   =    -26399.61145590
  -exchange      EXHF   =         0.00000000
  -V(xc)+E(xc)   XCENC  =      -191.22542005
  PAW double counting   =     26687.09521865   -26188.39284433
  entropy T*S    EENTRO =        -0.18052264
  eigenvalues    EBANDS =     -1711.32323788
  atomic energy  EATOM  =      5415.59739267
  Solvation  Ediel_sol  =         0.00000000
  ---------------------------------------------------
  free energy    TOTEN  =      -511.04732891 eV

  energy without entropy =     -510.86680627  energy(sigma->0) =     -510.95706759


--------------------------------------------------------------------------------------------------------




--------------------------------------- Iteration      1(   6)  ---------------------------------------


    POTLOK:  cpu time      1.8812: real time      1.9110
    SETDIJ:  cpu time      1.3902: real time      1.3911
    EDDIAG:  cpu time     45.5776: real time     45.6018
     EDDAV:  cpu time    205.7056: real time    205.8208
       DOS:  cpu time      0.0044: real time      0.0044
    CHARGE:  cpu time     25.7660: real time     25.7897
    MIXING:  cpu time      0.0381: real time      0.0381
    --------------------------------------------
      LOOP:  cpu time    280.3631: real time    280.5569

 eigenvalue-minimisations  :  2592
 total energy-change (2. order) :-0.7617566E-02  (-0.1480711E-01)
 number of electron     220.9999999 magnetization 
 augmentation part      -11.1986466 magnetization 

 Broyden mixing:
  rms(total) = 0.41797E-01    rms(broyden)= 0.52298E+00
  rms(prec ) = 0.47365E-01
  weight for this iteration     100.00
  WARNING: grid for Broyden might be to small

 eigenvalues of (default mixing * dielectric matrix)
  average eigenvalue GAMMA=   0.9289
  2.4367  0.6830  0.6095  0.4577  0.4577

 Free energy of the ion-electron system (eV)
  ---------------------------------------------------
  alpha Z        PSCENC =        19.72255585
  Ewald energy   TEWEN  =     21857.27098471
  -Hartree energ DENC   =    -26400.16083965
  -exchange      EXHF   =         0.00000000
  -V(xc)+E(xc)   XCENC  =      -191.29814360
  PAW double counting   =     26867.85026641   -26369.15021509
  entropy T*S    EENTRO =        -0.18664080
  eigenvalues    EBANDS =     -1710.70030700
  atomic energy  EATOM  =      5415.59739267
  Solvation  Ediel_sol  =         0.00000000
  ---------------------------------------------------
  free energy    TOTEN  =      -511.05494648 eV

  energy without entropy =     -510.86830568  energy(sigma->0) =     -510.96162608


--------------------------------------------------------------------------------------------------------




--------------------------------------- Iteration      1(   7)  ---------------------------------------


    POTLOK:  cpu time      1.8841: real time      1.9100
    SETDIJ:  cpu time      1.3991: real time      1.3996
    EDDIAG:  cpu time     45.3043: real time     45.3284
     EDDAV:  cpu time    199.8937: real time    200.0093
       DOS:  cpu time      0.0026: real time      0.0026
    CHARGE:  cpu time     25.7071: real time     25.7302
    MIXING:  cpu time      0.0386: real time      0.0386
    --------------------------------------------
      LOOP:  cpu time    274.2293: real time    274.4186

 eigenvalue-minimisations  :  2464
 total energy-change (2. order) : 0.1604579E-02  (-0.3653362E-02)
 number of electron     220.9999999 magnetization 
 augmentation part      -11.1961499 magnetization 

 Broyden mixing:
  rms(total) = 0.18524E-01    rms(broyden)= 0.28102E+00
  rms(prec ) = 0.20923E-01
  weight for this iteration     100.00
  WARNING: grid for Broyden might be to small

 eigenvalues of (default mixing * dielectric matrix)
  average eigenvalue GAMMA=   0.9726
  2.5664  0.8888  0.6728  0.6728  0.5205  0.5146

 Free energy of the ion-electron system (eV)
  ---------------------------------------------------
  alpha Z        PSCENC =        19.72255585
  Ewald energy   TEWEN  =     21857.27098471
  -Hartree energ DENC   =    -26400.00012292
  -exchange      EXHF   =         0.00000000
  -V(xc)+E(xc)   XCENC  =      -191.36878242
  PAW double counting   =     26835.98082300   -26337.27566598
  entropy T*S    EENTRO =        -0.18645943
  eigenvalues    EBANDS =     -1710.79406739
  atomic energy  EATOM  =      5415.59739267
  Solvation  Ediel_sol  =         0.00000000
  ---------------------------------------------------
  free energy    TOTEN  =      -511.05334190 eV

  energy without entropy =     -510.86688247  energy(sigma->0) =     -510.96011218


--------------------------------------------------------------------------------------------------------




--------------------------------------- Iteration      1(   8)  ---------------------------------------


    POTLOK:  cpu time      1.8782: real time      1.9084
    SETDIJ:  cpu time      1.3936: real time      1.3947
    EDDIAG:  cpu time     45.5950: real time     45.6211
     EDDAV:  cpu time    212.8919: real time    213.0129
       DOS:  cpu time      0.0037: real time      0.0037
    CHARGE:  cpu time     25.7890: real time     25.8141
    MIXING:  cpu time      0.0406: real time      0.0406
    --------------------------------------------
      LOOP:  cpu time    287.5921: real time    287.7956

 eigenvalue-minimisations  :  2752
 total energy-change (2. order) :-0.1194851E-02  (-0.5415993E-03)
 number of electron     220.9999999 magnetization 
 augmentation part      -11.1960645 magnetization 

 Broyden mixing:
  rms(total) = 0.17669E-01    rms(broyden)= 0.78379E-01
  rms(prec ) = 0.20046E-01
  weight for this iteration     100.00
  WARNING: grid for Broyden might be to small

 eigenvalues of (default mixing * dielectric matrix)
  average eigenvalue GAMMA=   0.9250
  2.5992  0.9639  0.5974  0.5974  0.6478  0.4686  0.6005

 Free energy of the ion-electron system (eV)
  ---------------------------------------------------
  alpha Z        PSCENC =        19.72255585
  Ewald energy   TEWEN  =     21857.27098471
  -Hartree energ DENC   =    -26399.78697209
  -exchange      EXHF   =         0.00000000
  -V(xc)+E(xc)   XCENC  =      -191.34648523
  PAW double counting   =     26802.48431128   -26303.77361070
  entropy T*S    EENTRO =        -0.18665564
  eigenvalues    EBANDS =     -1711.03605760
  atomic energy  EATOM  =      5415.59739267
  Solvation  Ediel_sol  =         0.00000000
  ---------------------------------------------------
  free energy    TOTEN  =      -511.05453675 eV

  energy without entropy =     -510.86788111  energy(sigma->0) =     -510.96120893


--------------------------------------------------------------------------------------------------------




--------------------------------------- Iteration      1(   9)  ---------------------------------------


    POTLOK:  cpu time      1.8790: real time      1.9064
    SETDIJ:  cpu time      1.3970: real time      1.3980
    EDDIAG:  cpu time     45.3228: real time     45.3479
     EDDAV:  cpu time    205.6816: real time    205.8005
       DOS:  cpu time      0.0034: real time      0.0034
    CHARGE:  cpu time     25.7403: real time     25.7648
    MIXING:  cpu time      0.0401: real time      0.0401
    --------------------------------------------
      LOOP:  cpu time    280.0644: real time    280.2613

 eigenvalue-minimisations  :  2608
 total energy-change (2. order) :-0.8298432E-03  (-0.2817692E-03)
 number of electron     220.9999999 magnetization 
 augmentation part      -11.1944260 magnetization 

 Broyden mixing:
  rms(total) = 0.78330E-02    rms(broyden)= 0.70193E-01
  rms(prec ) = 0.99113E-02
  weight for this iteration     100.00
  WARNING: grid for Broyden might be to small

 eigenvalues of (default mixing * dielectric matrix)
  average eigenvalue GAMMA=   0.9674
  2.6165  1.3982  0.7850  0.6629  0.6629  0.4544  0.5796  0.5796

 Free energy of the ion-electron system (eV)
  ---------------------------------------------------
  alpha Z        PSCENC =        19.72255585
  Ewald energy   TEWEN  =     21857.27098471
  -Hartree energ DENC   =    -26399.59603950
  -exchange      EXHF   =         0.00000000
  -V(xc)+E(xc)   XCENC  =      -191.28456644
  PAW double counting   =     26797.03261819   -26298.31685140
  entropy T*S    EENTRO =        -0.18622189
  eigenvalues    EBANDS =     -1711.29523879
  atomic energy  EATOM  =      5415.59739267
  Solvation  Ediel_sol  =         0.00000000
  ---------------------------------------------------
  free energy    TOTEN  =      -511.05536659 eV

  energy without entropy =     -510.86914470  energy(sigma->0) =     -510.96225565


--------------------------------------------------------------------------------------------------------




--------------------------------------- Iteration      1(  10)  ---------------------------------------


    POTLOK:  cpu time      1.9252: real time      1.9344
    SETDIJ:  cpu time      1.3921: real time      1.3933
    EDDIAG:  cpu time     45.6710: real time     45.6970
     EDDAV:  cpu time    205.6772: real time    205.7939
       DOS:  cpu time      0.0040: real time      0.0040
    CHARGE:  cpu time     25.7068: real time     25.7295
    MIXING:  cpu time      0.0407: real time      0.0407
    --------------------------------------------
      LOOP:  cpu time    280.4167: real time    280.5925

 eigenvalue-minimisations  :  2592
 total energy-change (2. order) : 0.2830170E-03  (-0.1272870E-03)
 number of electron     220.9999999 magnetization 
 augmentation part      -11.1951106 magnetization 

 Broyden mixing:
  rms(total) = 0.46213E-02    rms(broyden)= 0.29509E-01
  rms(prec ) = 0.57013E-02
  weight for this iteration     100.00
  WARNING: grid for Broyden might be to small

 eigenvalues of (default mixing * dielectric matrix)
  average eigenvalue GAMMA=   0.9846
  2.5974  1.9657  0.8936  0.6552  0.6552  0.6550  0.5175  0.5175  0.4042

 Free energy of the ion-electron system (eV)
  ---------------------------------------------------
  alpha Z        PSCENC =        19.72255585
  Ewald energy   TEWEN  =     21857.27098471
  -Hartree energ DENC   =    -26399.42746512
  -exchange      EXHF   =         0.00000000
  -V(xc)+E(xc)   XCENC  =      -191.27666392
  PAW double counting   =     26800.32132144   -26301.60315273
  entropy T*S    EENTRO =        -0.18654226
  eigenvalues    EBANDS =     -1711.47351423
  atomic energy  EATOM  =      5415.59739267
  Solvation  Ediel_sol  =         0.00000000
  ---------------------------------------------------
  free energy    TOTEN  =      -511.05508358 eV

  energy without entropy =     -510.86854131  energy(sigma->0) =     -510.96181245


--------------------------------------------------------------------------------------------------------




--------------------------------------- Iteration      1(  11)  ---------------------------------------


    POTLOK:  cpu time      1.8742: real time      1.9019
    SETDIJ:  cpu time      1.3929: real time      1.3938
    EDDIAG:  cpu time     45.5361: real time     45.5630
     EDDAV:  cpu time    204.2319: real time    204.3516
       DOS:  cpu time      0.0024: real time      0.0024
    CHARGE:  cpu time     25.6904: real time     25.7130
    MIXING:  cpu time      0.0413: real time      0.0413
    --------------------------------------------
      LOOP:  cpu time    278.7693: real time    278.9670

 eigenvalue-minimisations  :  2560
 total energy-change (2. order) :-0.1152920E-03  (-0.6692203E-04)
 number of electron     220.9999999 magnetization 
 augmentation part      -11.1950578 magnetization 

 Broyden mixing:
  rms(total) = 0.30325E-02    rms(broyden)= 0.24849E-01
  rms(prec ) = 0.34602E-02
  weight for this iteration     100.00
  WARNING: grid for Broyden might be to small

 eigenvalues of (default mixing * dielectric matrix)
  average eigenvalue GAMMA=   1.1294
  3.5213  2.5937  0.9208  0.8132  0.8132  0.5896  0.5896  0.6161  0.4714  0.3649

 Free energy of the ion-electron system (eV)
  ---------------------------------------------------
  alpha Z        PSCENC =        19.72255585
  Ewald energy   TEWEN  =     21857.27098471
  -Hartree energ DENC   =    -26399.26282111
  -exchange      EXHF   =         0.00000000
  -V(xc)+E(xc)   XCENC  =      -191.27150274
  PAW double counting   =     26802.51662808   -26303.79717968
  entropy T*S    EENTRO =        -0.18641819
  eigenvalues    EBANDS =     -1711.64483846
  atomic energy  EATOM  =      5415.59739267
  Solvation  Ediel_sol  =         0.00000000
  ---------------------------------------------------
  free energy    TOTEN  =      -511.05519887 eV

  energy without entropy =     -510.86878068  energy(sigma->0) =     -510.96198977


--------------------------------------------------------------------------------------------------------




--------------------------------------- Iteration      1(  12)  ---------------------------------------


    POTLOK:  cpu time      1.8867: real time      1.9130
    SETDIJ:  cpu time      1.3874: real time      1.3882
    EDDIAG:  cpu time     45.2986: real time     45.3249
     EDDAV:  cpu time    203.6308: real time    203.7531
       DOS:  cpu time      0.0025: real time      0.0025
    CHARGE:  cpu time     25.8253: real time     25.8484
    MIXING:  cpu time      0.0421: real time      0.0421
    --------------------------------------------
      LOOP:  cpu time    278.0733: real time    278.2722

 eigenvalue-minimisations  :  2560
 total energy-change (2. order) :-0.7103211E-04  (-0.2251352E-04)
 number of electron     220.9999999 magnetization 
 augmentation part      -11.1948179 magnetization 

 Broyden mixing:
  rms(total) = 0.18955E-02    rms(broyden)= 0.22336E-01
  rms(prec ) = 0.24530E-02
  weight for this iteration     100.00
  WARNING: grid for Broyden might be to small

 eigenvalues of (default mixing * dielectric matrix)
  average eigenvalue GAMMA=   1.1633
  4.1517  2.5986  1.0862  0.9920  0.7060  0.7060  0.6260  0.5468  0.5468  0.4636
  0.3725

 Free energy of the ion-electron system (eV)
  ---------------------------------------------------
  alpha Z        PSCENC =        19.72255585
  Ewald energy   TEWEN  =     21857.27098471
  -Hartree energ DENC   =    -26399.11526217
  -exchange      EXHF   =         0.00000000
  -V(xc)+E(xc)   XCENC  =      -191.27529191
  PAW double counting   =     26800.90067104   -26302.18063049
  entropy T*S    EENTRO =        -0.18633742
  eigenvalues    EBANDS =     -1711.78935219
  atomic energy  EATOM  =      5415.59739267
  Solvation  Ediel_sol  =         0.00000000
  ---------------------------------------------------
  free energy    TOTEN  =      -511.05526990 eV

  energy without entropy =     -510.86893248  energy(sigma->0) =     -510.96210119


--------------------------------------------------------------------------------------------------------




--------------------------------------- Iteration      1(  13)  ---------------------------------------


    POTLOK:  cpu time      1.8729: real time      1.9028
    SETDIJ:  cpu time      1.3925: real time      1.3934
    EDDIAG:  cpu time     45.6832: real time     45.7077
     EDDAV:  cpu time    205.0053: real time    205.1254
       DOS:  cpu time      0.0035: real time      0.0035
    CHARGE:  cpu time     25.7530: real time     25.7774
    MIXING:  cpu time      0.0427: real time      0.0428
    --------------------------------------------
      LOOP:  cpu time    279.7531: real time    279.9530

 eigenvalue-minimisations  :  2576
 total energy-change (2. order) :-0.2713278E-04  (-0.1412448E-04)
 number of electron     220.9999999 magnetization 
 augmentation part      -11.1950947 magnetization 

 Broyden mixing:
  rms(total) = 0.73587E-03    rms(broyden)= 0.17783E-01
  rms(prec ) = 0.97284E-03
  weight for this iteration     100.00
  WARNING: grid for Broyden might be to small

 eigenvalues of (default mixing * dielectric matrix)
  average eigenvalue GAMMA=   1.3143
  5.7365  2.6058  1.8417  0.8634  0.8634  0.6809  0.6809  0.6247  0.5234  0.5234
  0.4462  0.3818

 Free energy of the ion-electron system (eV)
  ---------------------------------------------------
  alpha Z        PSCENC =        19.72255585
  Ewald energy   TEWEN  =     21857.27098471
  -Hartree energ DENC   =    -26398.97362918
  -exchange      EXHF   =         0.00000000
  -V(xc)+E(xc)   XCENC  =      -191.28093686
  PAW double counting   =     26798.09764173   -26299.37727577
  entropy T*S    EENTRO =        -0.18637662
  eigenvalues    EBANDS =     -1711.92565357
  atomic energy  EATOM  =      5415.59739267
  Solvation  Ediel_sol  =         0.00000000
  ---------------------------------------------------
  free energy    TOTEN  =      -511.05529703 eV

  energy without entropy =     -510.86892041  energy(sigma->0) =     -510.96210872


--------------------------------------------------------------------------------------------------------




--------------------------------------- Iteration      1(  14)  ---------------------------------------


    POTLOK:  cpu time      1.9072: real time      1.9088
    SETDIJ:  cpu time      1.3920: real time      1.3931
    EDDIAG:  cpu time     45.6246: real time     45.6473
     EDDAV:  cpu time    203.3865: real time    203.5020
       DOS:  cpu time      0.0136: real time      0.0142
    CHARGE:  cpu time     25.7185: real time     25.7421
    MIXING:  cpu time      0.0579: real time      0.0596
    --------------------------------------------
      LOOP:  cpu time    278.1003: real time    278.2672

 eigenvalue-minimisations  :  2544
 total energy-change (2. order) :-0.8635375E-04  (-0.1201963E-04)
 number of electron     220.9999999 magnetization 
 augmentation part      -11.1950921 magnetization 

 Broyden mixing:
  rms(total) = 0.35927E-03    rms(broyden)= 0.12738E-01
  rms(prec ) = 0.58235E-03
  weight for this iteration     100.00
  WARNING: grid for Broyden might be to small

 eigenvalues of (default mixing * dielectric matrix)
  average eigenvalue GAMMA=   1.4910
  7.9520  2.6083  2.3930  0.9761  0.9761  0.7029  0.7029  0.6207  0.5634  0.5331
  0.5331  0.3867  0.4352

 Free energy of the ion-electron system (eV)
  ---------------------------------------------------
  alpha Z        PSCENC =        19.72255585
  Ewald energy   TEWEN  =     21857.27098471
  -Hartree energ DENC   =    -26398.83836495
  -exchange      EXHF   =         0.00000000
  -V(xc)+E(xc)   XCENC  =      -191.28372519
  PAW double counting   =     26798.05421278   -26299.33387813
  entropy T*S    EENTRO =        -0.18636346
  eigenvalues    EBANDS =     -1712.05819768
  atomic energy  EATOM  =      5415.59739267
  Solvation  Ediel_sol  =         0.00000000
  ---------------------------------------------------
  free energy    TOTEN  =      -511.05538339 eV

  energy without entropy =     -510.86901992  energy(sigma->0) =     -510.96220166


--------------------------------------------------------------------------------------------------------




--------------------------------------- Iteration      1(  15)  ---------------------------------------


    POTLOK:  cpu time      1.8871: real time      1.9067
    SETDIJ:  cpu time      1.3955: real time      1.3969
    EDDIAG:  cpu time     45.6210: real time     45.6453
     EDDAV:  cpu time    202.9785: real time    203.0949
       DOS:  cpu time      0.0024: real time      0.0024
    CHARGE:  cpu time     25.7458: real time     25.7698
    MIXING:  cpu time      0.0443: real time      0.0443
    --------------------------------------------
      LOOP:  cpu time    277.6745: real time    277.8602

 eigenvalue-minimisations  :  2528
 total energy-change (2. order) :-0.9328268E-04  (-0.1062356E-04)
 number of electron     220.9999999 magnetization 
 augmentation part      -11.1951125 magnetization 

 Broyden mixing:
  rms(total) = 0.36761E-03    rms(broyden)= 0.10486E-01
  rms(prec ) = 0.54117E-03
  weight for this iteration     100.00
  WARNING: grid for Broyden might be to small

 eigenvalues of (default mixing * dielectric matrix)
  average eigenvalue GAMMA=   1.5438
  9.1101  2.6287  2.6287  1.0241  1.0241  0.8276  0.6822  0.6822  0.6166  0.5491
  0.5018  0.5018  0.3825  0.4540

 Free energy of the ion-electron system (eV)
  ---------------------------------------------------
  alpha Z        PSCENC =        19.72255585
  Ewald energy   TEWEN  =     21857.27098471
  -Hartree energ DENC   =    -26398.72644787
  -exchange      EXHF   =         0.00000000
  -V(xc)+E(xc)   XCENC  =      -191.28722276
  PAW double counting   =     26798.45922813   -26299.73914484
  entropy T*S    EENTRO =        -0.18636795
  eigenvalues    EBANDS =     -1712.16645461
  atomic energy  EATOM  =      5415.59739267
  Solvation  Ediel_sol  =         0.00000000
  ---------------------------------------------------
  free energy    TOTEN  =      -511.05547667 eV

  energy without entropy =     -510.86910872  energy(sigma->0) =     -510.96229269


--------------------------------------------------------------------------------------------------------




--------------------------------------- Iteration      1(  16)  ---------------------------------------


    POTLOK:  cpu time      1.8735: real time      1.9109
    SETDIJ:  cpu time      1.3860: real time      1.3869
    EDDIAG:  cpu time     45.6244: real time     45.6493
     EDDAV:  cpu time    202.8128: real time    202.9256
       DOS:  cpu time      0.0042: real time      0.0042
    CHARGE:  cpu time     25.7351: real time     25.7601
    MIXING:  cpu time      0.0449: real time      0.0449
    --------------------------------------------
      LOOP:  cpu time    277.4809: real time    277.6818

 eigenvalue-minimisations  :  2528
 total energy-change (2. order) :-0.9131671E-04  (-0.1058742E-04)
 number of electron     220.9999999 magnetization 
 augmentation part      -11.1951854 magnetization 

 Broyden mixing:
  rms(total) = 0.25079E-03    rms(broyden)= 0.83243E-02
  rms(prec ) = 0.36885E-03
  weight for this iteration     100.00
  WARNING: grid for Broyden might be to small

 eigenvalues of (default mixing * dielectric matrix)
  average eigenvalue GAMMA=   1.5642
  9.6235  2.7353  2.7353  1.4323  0.9529  0.9529  0.6993  0.6993  0.6517  0.6240
  0.3834  0.5038  0.5038  0.4579  0.5070

 Free energy of the ion-electron system (eV)
  ---------------------------------------------------
  alpha Z        PSCENC =        19.72255585
  Ewald energy   TEWEN  =     21857.27098471
  -Hartree energ DENC   =    -26398.62129454
  -exchange      EXHF   =         0.00000000
  -V(xc)+E(xc)   XCENC  =      -191.29018909
  PAW double counting   =     26798.47049845   -26299.75065718
  entropy T*S    EENTRO =        -0.18637328
  eigenvalues    EBANDS =     -1712.26848559
  atomic energy  EATOM  =      5415.59739267
  Solvation  Ediel_sol  =         0.00000000
  ---------------------------------------------------
  free energy    TOTEN  =      -511.05556799 eV

  energy without entropy =     -510.86919471  energy(sigma->0) =     -510.96238135


--------------------------------------------------------------------------------------------------------




--------------------------------------- Iteration      1(  17)  ---------------------------------------


    POTLOK:  cpu time      1.8933: real time      1.9147
    SETDIJ:  cpu time      1.3916: real time      1.3926
    EDDIAG:  cpu time     45.5640: real time     45.5903
     EDDAV:  cpu time    202.7887: real time    202.8996
       DOS:  cpu time      0.0033: real time      0.0033
    CHARGE:  cpu time     25.7305: real time     25.7548
    MIXING:  cpu time      0.0455: real time      0.0455
    --------------------------------------------
      LOOP:  cpu time    277.4168: real time    277.6007

 eigenvalue-minimisations  :  2528
 total energy-change (2. order) :-0.8706582E-04  (-0.1064908E-04)
 number of electron     220.9999999 magnetization 
 augmentation part      -11.1951831 magnetization 

 Broyden mixing:
  rms(total) = 0.13138E-03    rms(broyden)= 0.59411E-02
  rms(prec ) = 0.21312E-03
  weight for this iteration     100.00
  WARNING: grid for Broyden might be to small

 eigenvalues of (default mixing * dielectric matrix)
  average eigenvalue GAMMA=   1.5797
  9.8640  2.9192  2.7433  1.8867  1.0338  1.0338  0.7920  0.6972  0.6972  0.6375
  0.6142  0.3833  0.5018  0.5018  0.5125  0.4572

 Free energy of the ion-electron system (eV)
  ---------------------------------------------------
  alpha Z        PSCENC =        19.72255585
  Ewald energy   TEWEN  =     21857.27098471
  -Hartree energ DENC   =    -26398.52269511
  -exchange      EXHF   =         0.00000000
  -V(xc)+E(xc)   XCENC  =      -191.29163141
  PAW double counting   =     26798.64753574   -26299.92787326
  entropy T*S    EENTRO =        -0.18636492
  eigenvalues    EBANDS =     -1712.36555933
  atomic energy  EATOM  =      5415.59739267
  Solvation  Ediel_sol  =         0.00000000
  ---------------------------------------------------
  free energy    TOTEN  =      -511.05565505 eV

  energy without entropy =     -510.86929013  energy(sigma->0) =     -510.96247259


--------------------------------------------------------------------------------------------------------




--------------------------------------- Iteration      1(  18)  ---------------------------------------


    POTLOK:  cpu time      1.9077: real time      1.9104
    SETDIJ:  cpu time      1.3963: real time      1.3970
    EDDIAG:  cpu time     45.5715: real time     45.5950
     EDDAV:  cpu time    202.9003: real time    203.0099
[...]
   0.171E+02 0.347E+01 -.427E+02   -.192E+02 -.323E+01 0.424E+02   0.266E+01 -.109E-02 -.430E+00   -.103E-04 -.406E-04 0.208E-04
   -.644E+01 0.112E+02 -.880E+01   0.835E+01 -.152E+02 0.453E+01   -.170E+01 0.373E+01 0.371E+01   -.112E-04 -.143E-04 0.647E-05
   0.125E+02 0.993E+01 0.856E+01   -.153E+02 -.113E+02 -.658E+01   0.251E+01 0.106E+01 -.172E+01   -.305E-04 0.250E-05 0.349E-04
   -.203E+02 -.255E+01 -.267E+02   0.220E+02 0.321E+01 0.267E+02   -.244E+01 -.146E+01 0.943E-01   0.698E-05 -.203E-04 0.874E-05
   -.237E+01 -.521E+01 -.526E+02   0.297E+01 0.464E+01 0.521E+02   -.184E-02 -.240E+00 -.221E+00   -.127E-04 -.591E-05 0.130E-04
   -.544E+01 -.324E+01 -.509E+02   0.510E+01 0.319E+01 0.508E+02   -.839E-01 -.511E-01 -.862E-01   0.158E-04 0.482E-05 0.606E-04
   -.133E+02 0.277E+01 0.112E+02   0.145E+02 -.418E+01 -.834E+01   -.120E+01 0.117E+01 -.266E+01   0.109E-05 -.841E-05 0.844E-05
   -.794E+01 0.153E+02 0.102E+02   0.849E+01 -.182E+02 -.130E+02   -.617E+00 0.333E+01 0.357E+01   0.699E-05 -.195E-04 0.485E-04
   0.144E+02 -.699E+01 0.174E+02   -.161E+02 0.777E+01 -.166E+02   0.185E+01 -.951E+00 -.152E+01   -.110E-04 -.111E-04 0.206E-05
   -.144E+02 -.676E+01 0.568E+02   0.168E+02 0.103E+02 -.586E+02   -.248E+01 -.389E+01 0.174E+01   0.152E-05 0.115E-06 0.787E-05
   -.177E+02 -.149E+02 -.141E+02   0.203E+02 0.168E+02 0.149E+02   -.252E+01 -.165E+01 -.582E+00   -.209E-04 0.549E-04 0.850E-04
   -.119E+02 0.162E+02 -.601E+02   0.127E+02 -.181E+02 0.613E+02   -.106E+01 0.214E+01 -.180E+01   0.889E-06 -.784E-05 -.163E-05
   -.233E+01 0.448E+01 -.518E+02   0.476E+01 -.620E+01 0.566E+02   -.236E+01 0.165E+01 -.434E+01   -.651E-04 0.906E-05 0.399E-04
   -.277E+01 0.550E+01 0.223E+03   0.547E+01 -.421E+01 -.220E+03   -.229E+01 -.209E+01 -.175E+01   0.526E-04 -.910E-05 0.465E-05
   0.180E+02 0.253E+02 -.291E+02   -.183E+02 -.237E+02 0.319E+02   0.868E-01 -.216E+01 -.270E+01   0.544E-04 -.218E-04 0.198E-04
   0.206E+02 -.336E+02 0.103E+03   -.211E+02 0.307E+02 -.100E+03   -.562E+00 0.324E+01 -.220E+01   -.549E-04 -.708E-04 -.169E-04
   0.148E+02 0.111E+01 -.220E+02   -.157E+02 -.118E+01 0.222E+02   0.113E+01 0.118E+00 0.382E+00   -.692E-04 -.156E-05 0.521E-04
   0.289E+02 -.230E+02 -.907E+02   -.288E+02 0.231E+02 0.898E+02   0.423E+00 0.835E-01 0.175E+01   0.422E-04 -.139E-04 0.338E-04
   0.239E+02 0.650E+01 0.216E+03   -.246E+02 -.790E+01 -.220E+03   0.620E+00 0.164E+01 0.403E+01   -.380E-04 -.281E-05 -.365E-04
   0.685E+01 0.192E+02 0.337E+02   -.740E+01 -.166E+02 -.328E+02   0.618E+00 -.278E+01 -.124E+01   0.854E-04 -.162E-04 0.136E-04
   -.197E+02 0.243E+02 -.121E+03   0.217E+02 -.241E+02 0.122E+03   -.287E+01 -.150E+01 -.303E+00   0.178E-04 -.648E-05 0.755E-05
   -.338E+02 0.346E+02 -.141E+03   0.331E+02 -.313E+02 0.138E+03   0.116E+01 -.214E+01 0.296E+01   0.823E-04 -.656E-04 0.426E-04
   0.212E+02 -.287E+02 -.235E+03   -.210E+02 0.286E+02 0.238E+03   0.406E+00 0.464E+00 -.283E+01   0.495E-04 0.233E-04 0.750E-04
   0.150E+02 0.197E+02 0.561E+02   -.157E+02 -.161E+02 -.540E+02   0.193E+01 -.409E+01 -.215E+01   -.521E-04 -.615E-04 0.492E-05
   -.519E+00 0.216E+02 -.236E+03   -.295E+00 -.201E+02 0.233E+03   0.124E+01 -.280E+01 0.368E+01   0.521E-04 -.445E-04 0.271E-04
   0.122E+02 -.707E+01 -.673E+02   -.120E+02 0.568E+01 0.674E+02   -.715E-02 0.918E+00 0.225E-01   0.431E-04 0.293E-04 0.442E-04
   0.860E+01 -.444E+01 0.169E+02   -.793E+01 0.324E+01 -.202E+02   -.993E+00 0.152E+01 0.255E+01   0.124E-03 0.325E-04 0.450E-04
   0.209E+02 -.509E+02 0.170E+03   -.209E+02 0.488E+02 -.167E+03   -.296E+00 0.212E+01 -.260E+01   0.674E-04 -.179E-04 -.113E-04
   -.180E+02 -.245E+02 -.192E+03   0.164E+02 0.251E+02 0.192E+03   0.304E+01 0.498E-01 0.443E+00   0.288E-04 0.107E-03 0.139E-04
   -.204E+00 0.842E+01 -.137E+03   -.359E+01 -.867E+01 0.143E+03   0.129E+01 -.181E+01 -.749E+01   -.616E-04 -.734E-04 0.748E-04
   0.434E+02 -.409E+01 -.190E+03   -.420E+02 0.166E+01 0.189E+03   -.177E+01 0.285E+01 0.771E+00   -.660E-04 0.390E-04 0.690E-04
   -.255E+02 -.236E+02 -.235E+02   0.281E+02 0.235E+02 0.222E+02   -.255E+01 0.513E+00 0.329E+01   0.279E-05 0.137E-03 0.159E-03
   0.193E+02 -.180E+02 -.625E+02   -.182E+02 0.181E+02 0.627E+02   -.201E+01 -.211E+00 0.142E+01   0.737E-04 0.605E-04 0.878E-05
   0.213E+01 -.650E+00 -.145E+03   -.185E+01 0.219E+01 0.145E+03   0.129E+00 -.198E+01 0.167E+00   -.130E-03 0.842E-04 0.875E-04
   0.383E+02 -.460E+01 0.205E+03   -.387E+02 0.338E+01 -.206E+03   0.425E+00 0.143E+01 0.117E+01   0.426E-04 0.112E-04 -.195E-04
   0.181E+02 0.122E+02 0.610E+02   -.150E+02 -.106E+02 -.603E+02   -.302E+01 -.194E+01 -.103E+01   -.509E-04 0.413E-05 0.476E-04
   0.840E+01 0.796E+01 0.162E+03   -.725E+01 -.818E+01 -.161E+03   -.804E+00 0.176E+00 -.209E+01   -.769E-04 0.345E-04 0.146E-05
   0.247E+02 -.888E+01 0.157E+03   -.237E+02 0.703E+01 -.155E+03   -.147E+01 0.130E+01 -.457E+00   0.789E-04 0.187E-04 0.426E-05
   -.345E+02 -.550E+00 0.163E+03   0.367E+02 0.613E+00 -.162E+03   -.211E+01 0.166E+00 -.519E+00   -.689E-04 0.618E-05 -.428E-05
   -.475E+02 -.321E+01 -.220E+03   0.461E+02 0.107E+01 0.220E+03   0.276E+01 0.166E+01 -.874E+00   0.237E-03 -.168E-04 0.429E-04
   -.374E+02 -.244E+02 0.208E+03   0.390E+02 0.260E+02 -.210E+03   -.879E+00 -.124E+00 0.686E+00   0.172E-04 -.206E-04 0.233E-04
   0.259E+02 0.617E+01 0.237E+03   -.263E+02 -.746E+01 -.241E+03   0.288E+00 0.290E+00 0.427E+01   0.208E-04 -.604E-04 -.310E-04
   0.304E+01 0.143E+02 0.482E+02   -.452E+01 -.145E+02 -.494E+02   0.129E+01 -.530E+00 0.135E+01   0.243E-04 0.235E-04 0.632E-04
   -.338E+02 -.129E+02 -.201E+03   0.331E+02 0.102E+02 0.201E+03   0.632E+00 0.378E+01 -.612E+00   -.289E-04 0.141E-04 0.226E-04
   -.325E+02 0.326E+02 0.136E+03   0.314E+02 -.320E+02 -.135E+03   0.101E+01 -.281E+00 -.132E+01   -.194E-05 -.755E-05 0.203E-04
   -.694E+00 0.366E+02 -.192E+03   -.892E+00 -.354E+02 0.190E+03   0.163E+01 -.427E+00 0.327E+01   0.714E-04 0.743E-05 0.506E-04
   0.828E+00 -.147E+02 -.222E+03   0.277E+00 0.142E+02 0.220E+03   -.146E+01 0.918E+00 0.184E+01   0.950E-04 0.111E-04 0.534E-04
   0.451E+02 0.908E+01 -.153E+03   -.453E+02 -.875E+01 0.151E+03   -.739E+00 -.360E+00 0.181E+01   0.945E-05 -.489E-04 0.530E-04
   -.206E+02 -.187E+02 0.164E+03   0.197E+02 0.180E+02 -.161E+03   0.164E+01 0.250E-01 -.418E+01   0.492E-04 0.266E-04 0.128E-04
   0.109E+01 0.161E+02 -.125E+03   -.226E+01 -.178E+02 0.125E+03   0.252E+01 0.600E+00 0.682E-02   -.645E-04 -.297E-04 0.502E-04
   -.249E+02 -.232E+02 -.195E+02   0.251E+02 0.211E+02 0.215E+02   -.129E+01 0.292E+01 -.191E+01   0.131E-03 -.775E-05 0.103E-03
   0.106E+02 0.102E+02 0.192E+03   -.105E+02 -.905E+01 -.189E+03   -.930E+00 -.128E+01 -.317E+01   0.384E-04 -.161E-04 -.262E-05
   -.219E+02 0.240E+01 0.134E+03   0.209E+02 -.902E+00 -.133E+03   0.149E+01 -.652E+00 -.146E+01   0.573E-04 -.174E-04 -.978E-06
   0.231E+02 -.148E+02 -.132E+03   -.216E+02 0.138E+02 0.131E+03   -.244E+01 0.162E+01 0.168E-01   -.286E-05 0.701E-05 0.570E-04
   -.259E+02 -.165E+02 0.184E+03   0.256E+02 0.186E+02 -.184E+03   0.393E+00 -.351E+01 -.264E+01   -.330E-04 0.195E-04 0.906E-05
   0.356E+02 -.919E+01 -.128E+03   -.338E+02 0.950E+01 0.125E+03   -.164E+01 -.377E+00 0.292E+01   -.542E-04 0.802E-04 0.650E-04
   0.963E+01 -.551E+01 0.201E+03   -.105E+02 0.573E+01 -.200E+03   -.860E-02 0.751E+00 -.465E+00   -.391E-04 -.304E-04 0.683E-06
   -.473E+01 0.289E+01 0.240E+03   0.423E+01 -.266E+01 -.243E+03   0.848E+00 -.580E+00 0.242E+01   0.645E-04 0.148E-04 -.204E-04
   -.714E+01 0.179E+02 0.837E+02   0.485E+01 -.185E+02 -.814E+02   0.236E+01 0.124E+01 -.180E+01   -.646E-04 0.231E-04 0.213E-04
   -.139E+02 -.608E+01 -.635E+02   0.155E+02 0.622E+01 0.620E+02   -.263E+01 0.956E+00 0.159E+01   -.844E-04 0.807E-05 0.378E-04
   -.262E+02 0.249E+02 0.135E+03   0.242E+02 -.245E+02 -.136E+03   0.130E+01 -.628E+00 0.969E+00   0.794E-04 -.228E-04 0.391E-04
   -.231E+01 0.461E+01 0.168E+03   0.593E-01 -.506E+01 -.166E+03   0.261E+01 0.771E+00 -.222E+01   -.942E-04 0.408E-04 0.301E-04
   -.234E+02 -.253E+00 -.134E+03   0.215E+02 -.780E+00 0.135E+03   0.263E+01 0.240E+01 -.103E+01   0.664E-04 -.153E-04 0.145E-04
 -----------------------------------------------------------------------------------------------
   -.425E+01 -.893E+00 0.163E+02   -.213E-13 -.163E-13 -.284E-12   0.424E+01 0.889E+00 -.163E+02   0.445E-03 0.639E-04 0.200E-02


 POSITION                                       TOTAL-FORCE (eV/Angst)
 -----------------------------------------------------------------------------------
     11.70730      9.63882     12.84786         0.112449     -0.651034     -0.350156
      0.41609      8.17310     13.35838        -0.118283      0.003281     -0.055205
      9.89611     10.73860     12.39844        -0.314717     -0.372643      0.146742
      0.07491      9.91930     14.91973         0.853139     -0.695860      0.369338
      0.36885     12.22800     14.89304         1.114825      2.295086      1.376477
     13.83390     14.00310     13.83744        -0.160212      0.602445      0.645873
     14.05180      5.90406     14.04167        -0.163875     -0.069739      0.248376
     11.49250      8.30130     10.54738         0.090199      0.196432     -0.350387
     13.05590     11.18700     14.30719         0.616771      0.235450     -0.659248
     14.05530     13.51410     13.35177         0.210472     -0.283577     -0.557552
     13.47910      8.35820     11.72038        -0.293329     -0.285257      0.263493
     11.29890     12.15920     13.71681        -0.699064     -0.797620      0.097480
      2.39128     11.87630     14.67275         0.592627     -0.810495     -0.685367
     12.21080      7.67496     14.94173        -0.426955     -0.101048     -0.221860
     12.11600     10.96820     11.36317        -0.026569     -0.248491      0.224001
     11.79220      9.12025     12.29030        -0.064698      0.444668      0.806861
     14.03030     13.42150     11.57665         0.111434     -0.171292     -0.748491
     11.86430      8.90948     10.28211        -0.078168     -0.351988     -0.093606
     12.62140      6.36944     13.01436         0.066354      0.284002      0.225619
     11.91590     13.81720     14.68170        -0.267030      0.250062     -0.557369
      0.76165      7.93117     13.96798         0.070135     -0.075961      0.449385
      9.34053     10.98310     10.14054         0.303631     -0.893233      0.798187
      6.85225     12.11410     12.91226        -0.128598     -0.588115      0.013445
      2.03365     14.51690     11.62637        -0.978402      0.369563      0.418778
      2.34096      5.81727     12.83724         0.256146      0.058472      0.596080
      5.67990      1.26398     13.30622         0.562660      0.134385      0.946654
      2.96318      3.67477     10.07094         0.030872      0.412027      0.903576
      5.87036      5.75703     12.31412         0.087876     -0.304343     -0.393144
     11.37420      0.36767     13.79477        -1.003407     -1.311462      0.877794
      9.96638     11.36920     13.77138         0.501148      1.096528      0.345269
      7.48407      1.83318     14.73327         0.654772      0.320257     -0.496078
      3.68164     13.09360     11.95723         1.341294     -0.649745     -0.133452
      8.24506     12.71040     14.58463         0.601195     -1.512607      0.699263
      6.07777      9.93577     13.27025         0.201408     -0.435126      0.072984
      8.14084      5.18581     12.29105        -0.381420      0.389988     -0.579960
      6.26855      1.24380     11.11683        -0.349985     -0.166379     -0.252365
     10.64820      3.82438     14.24964         1.570125      0.618917     -0.372375
      0.04035     11.13960     14.15594        -2.491074     -2.152229     -0.985794
      3.40012      7.24814     14.43277        -0.189318      0.611660     -0.461007
     11.39200      5.58514     12.73044        -0.082578      0.426762      2.159033
      8.77773      3.15136     13.10919        -0.973586     -0.092112      1.580844
      0.55106      4.88623     13.92330         0.326709     -0.482952     -0.364323
      5.36756      7.23398     10.57286         0.203915      0.329174     -0.163773
      0.73893     10.91260     11.92974        -0.027195     -0.544028     -0.322971
      1.40015      6.94248     11.09246         0.264881      0.062408     -0.688331
      6.78152      9.04378     11.10371        -0.416400     -0.602705      0.859707
     13.39880      2.48535     11.23396        -0.254481      0.279904      0.435098
      9.01437      7.80138     14.94742         1.283567     -0.334352     -0.578903
     11.57070     11.55570     10.11702         0.593637      1.295785     -0.682020
      5.00053     14.13460     10.00179         0.025177     -0.900742      0.796480
      3.99445      4.30894     12.12226        -0.182331     -0.697188      0.208371
     12.49710      2.20189     14.47075        -0.163171      1.315914     -0.931630
     11.74260      0.78302     11.55522        -0.103046      0.483187     -0.227186
      5.55162      6.55528     14.40479         0.055414      0.839889      0.752978
      6.87143      8.42316     14.88167        -0.372076      0.364424     -0.576125
      5.26434     13.56640     13.63660        -0.891116     -0.061978     -0.894251
      9.65197      1.99959     11.39248         0.798986     -0.821092     -1.219379
      1.66384      1.26214     13.57732         1.525755     -0.860048     -0.632628
      9.59841      6.98529     12.77073        -1.160043      0.955416      0.033303
      7.80452     12.53950     10.80509        -0.775050     -0.206648     -0.459388
      8.24170      0.10736     11.48164         0.523792      0.818464     -0.203076
      3.77983      2.42133     13.64529        -1.050010      0.646304     -0.848097
     12.08750      4.49513     11.00142         0.100341     -1.661126     -1.679563
      3.82203      9.53079     13.74032         0.156483     -0.093186     -0.021171
      0.59657     12.85340     10.67256        -0.982317      1.069278      0.423990
      8.34520      4.93194     10.00000         0.387969     -0.365900      0.201913
      3.00972     10.74470     11.97606         0.104034      0.753782      0.594050
      0.01181      2.71778     13.24801        -1.160962      1.142395      0.205014
      9.08603      8.79607     11.09610        -0.897095     -0.160017     -0.101155
      0.06104      8.84377     10.94900         0.470792      0.244616     -0.037879
      8.91199      0.12679     13.79552         0.855575      1.461394     -0.191189
 -----------------------------------------------------------------------------------
    total drift:                               -0.011039     -0.003513     -0.005187


--------------------------------------------------------------------------------------------------------



  FREE ENERGIE OF THE ION-ELECTRON SYSTEM (eV)
  ---------------------------------------------------
  free  energy   TOTEN  =      -511.05575313 eV

  energy  without entropy=     -510.86938270  energy(sigma->0) =     -510.96256791



--------------------------------------------------------------------------------------------------------


    POTLOK:  cpu time      3.2668: real time      3.2693


--------------------------------------------------------------------------------------------------------


     LOOP+:  cpu time   6530.7135: real time   6535.3367
    4ORBIT:  cpu time      0.0000: real time      0.0000



 total charge

# of ion       s       p       d       tot
------------------------------------------
    1        0.599   0.031   0.000   0.629
    2        0.614   0.036   0.000   0.650
    3        0.548   0.020   0.000   0.568
    4        0.594   0.017   0.000   0.611
    5        0.631   0.023   0.000   0.654
    6        0.635   0.037   0.000   0.672
    7        0.561   0.019   0.000   0.579
    8        0.600   0.032   0.000   0.632
    9        0.555   0.012   0.000   0.568
   10        0.627   0.039   0.000   0.666
   11        0.578   0.018   0.000   0.596
   12        0.542   0.015   0.000   0.557
   13        0.384   0.002   0.000   0.386
   14        0.383   0.000   0.000   0.383
   15        0.573   0.017   0.000   0.591
   16        0.600   0.031   0.000   0.631
   17        0.547   0.015   0.000   0.562
   18        0.601   0.031   0.000   0.632
   19        0.550   0.018   0.000   0.568
   20        0.555   0.015   0.000   0.570
   21        0.619   0.034   0.000   0.653
   22        0.798   0.860   0.000   1.658
   23        0.763   0.961   0.000   1.724
   24        0.795   0.861   0.000   1.656
   25        0.768   0.920   0.000   1.688
   26        0.768   0.957   0.000   1.725
   27        0.930   0.575   0.000   1.505
   28        0.771   0.923   0.000   1.694
   29        0.749   0.944   0.000   1.693
   30        0.794   0.864   0.000   1.658
   31        0.836   0.793   0.000   1.629
   32        0.772   0.898   0.000   1.671
   33        0.810   0.905   0.000   1.715
   34        0.768   0.898   0.000   1.666
   35        0.759   0.976   0.000   1.735
   36        0.811   0.869   0.000   1.681
   37        0.817   0.807   0.000   1.624
   38        0.743   1.053   0.000   1.796
   39        0.810   0.837   0.000   1.646
   40        0.763   0.996   0.000   1.759
   41        0.770   0.946   0.000   1.716
   42        0.781   0.911   0.000   1.693
   43        0.862   0.731   0.000   1.593
   44        0.749   0.964   0.000   1.713
   45        0.835   0.764   0.000   1.599
   46        0.806   0.833   0.000   1.639
   47        0.822   0.799   0.000   1.621
   48        0.850   0.746   0.000   1.595
   49        0.847   0.779   0.000   1.626
   50        0.883   0.668   0.000   1.551
   51        0.758   0.919   0.000   1.676
   52        0.815   0.818   0.000   1.633
   53        0.816   0.806   0.000   1.622
   54        0.801   0.887   0.000   1.688
   55        0.797   0.883   0.000   1.680
   56        0.819   0.844   0.000   1.663
   57        0.804   0.832   0.000   1.636
   58        0.806   0.849   0.000   1.655
   59        0.781   0.867   0.000   1.647
   60        0.786   0.872   0.000   1.659
   61        0.772   0.927   0.000   1.699
   62        0.799   0.840   0.000   1.639
   63        0.845   0.781   0.000   1.626
   64        0.802   0.819   0.000   1.620
   65        0.808   0.845   0.000   1.653
   66        0.918   0.613   0.000   1.531
   67        0.805   0.839   0.000   1.644
   68        0.759   0.927   0.000   1.686
   69        0.813   0.784   0.000   1.597
   70        0.779   0.904   0.000   1.682
   71        0.764   0.900   0.000   1.663
--------------------------------------------------
tot         51.973  43.255   0.000  95.228


 total amount of memory used by VASP MPI-rank0   347047. kBytes
=======================================================================

   base                                    :      30000. kBytes
   nonl-proj                               :      67426. kBytes
   fftplans                                :      97987. kBytes
   grid                                    :      75605. kBytes
   one-center                              :         15. kBytes
   wavefun                                 :      76014. kBytes

  
  
 General timing and accounting informations for this job:
 ========================================================
  
                  Total CPU time used (sec):     6669.211
                            User time (sec):     5874.384
                          System time (sec):      794.827
                         Elapsed time (sec):     6673.986
  
                   Maximum memory used (kb):      603564.
                   Average memory used (kb):          N/A
  
                          Minor page faults:     10693975
                          Major page faults:         1161
                 Voluntary context switches:         3175
