/u/vld/spet5633/Silicon/a-Si_potential/DFT_1200eV/Testing/Paper/surfaces/amorphous/anneals/3/cleaved_surface.data (written by ASE) 

2484 	 atoms 
2  atom types
0.0      42.803955704057834  xlo xhi
0.0      42.803955704057834  ylo yhi
0.0      41.369031714187706  zlo zhi


Atoms 

     1   2      1.4312514830343686      4.2335490306004413      11.076392292354921
     2   2     0.78407924358896086     0.83668008718893949      10.487429135462897
     3   2     0.45219594999441337     0.22619645882712355      14.210958835347373
     4   2      2.6892421356041845     0.90792662100978649      11.769267451934491
     5   2      2.0077408267111809      1.8883978904198255      13.753596066976078
     6   2      0.6143891139084996      3.7251520207377071      13.159440399334514
     7   2      4.4487419833911455      2.1676078021357181      11.135651884229151
     8   2      6.5453636730422531      1.9338944938717537      12.040579718565091
     9   2      6.3206547078585853      2.9290548427220595      14.120818549587703
    10   2      7.2999879127947045      3.3708167858432727       10.40825482193628
    11   1      8.7749274707779499      3.8892216509437669      13.013818192955828
    12   1      12.690397918601734      2.2398540339843587      12.445622365411985
    13   2      11.541279183448452      2.6814270800208475      13.553023461399311
    14   2      10.143575528892976      0.8555167518403668       13.78095040612757
    15   2      10.018377904162881      3.7796111114874731      12.186648506468918
    16   1      12.309648082291831       3.547714849472241      10.666198520933204
    17   2      10.854205460980676     0.97146982926537306      10.084062343976758
    18   2      12.814706290750868      1.9700024424541149      10.793757542730054
    19   2      9.5115728292187693       2.810284008605668      10.010750652239626
    20   1       16.13361006901486       1.982690953717466       11.63343195755165
    21   1      14.748257494498938     0.98145659377351213      13.195648293258976
    22   1      13.475539708566883     0.38018805054045246      11.525790252707438
    23   2      20.190181032971257      2.0817168473853833      13.515265209357338
    24   2      17.293712506203491      1.1283404212650321      11.267754382205601
    25   2      19.236321056584003      2.2925058695834744      11.450977396208085
    26   2       3.741102202725922      4.3420211517788845      11.473895972571889
    27   2      2.5105293534103685      7.9772007374066698      11.658738139298981
    28   2      1.0564264007885642      6.4282717505600875      10.749394713637262
    29   2      4.1527749230107718      7.3285380078047648      13.232370629411939
    30   2      3.8399787738938467       5.097298267017603      13.788116890312919
    31   2      6.6345465971146158      7.3006884976394817      10.972106763860937
    32   2      6.3330646738909726      8.1436864034979006        13.1382841580145
    33   2      8.0759936027993433      5.5664854212459769      10.489018446770251
    34   2      4.6564740220414969      6.1880838264506464      10.385306655068156
    35   1      10.374640060543401      8.3725631463991981      13.540600115075682
    36   2      10.047821590989408      6.9304146752360065      13.352742963195336
    37   2      10.327193348392814      5.9598478463677482      11.295236587349956
    38   1       12.73694541838001      8.1294630165630846      12.513963778404277
    39   1      12.166673531543166      8.1402393789005227      10.312367617896475
    40   2      12.537542634278083      5.1366151395172519      10.674152589491062
    41   2       14.60954304691213      4.4129336001726642       14.11539299080615
    42   1      14.709717351571573      6.5491375355839123      12.033537692835761
    43   2       14.50777135900498      5.0824017179013499      11.869601660791673
    44   1      16.181426212491854      7.7098313469247568      12.175773412508779
    45   2      13.516165143610078      8.3785620522962212      13.743866138557099
    46   2      16.104233400641473      4.6380730213462726       10.17623321259242
    47   2      17.254546004828779       7.670304198125697      11.152152769493354
    48   2      18.915790749162287      6.2540687460035338      11.870218071852069
    49   2      19.331164576000038      7.2392083564326981      13.834397876363175
    50   2       18.26082645722385        4.32530019830293      10.894436872239911
    51   2      20.813817714786715      6.7100073864393384      10.732192802793417
    52   2      1.3625185434097258      9.2046271277634695      13.250833236571044
    53   2      3.1938093504903167      10.551789069484478      13.656448221971951
    54   2      1.9825104163782463      12.524865255900167      13.973814890058033
    55   2      3.0865871615030498      11.856033063038961      11.560696262323859
    56   2      3.4510719171547053       9.466014712879101      10.138317733349023
    57   2      4.9019069292315685      10.024555649325318      11.889551742597186
    58   2      8.3262766095310177      11.037071940075583      12.495171809403987
    59   2      6.8341620717067011      10.223417378735167      14.235795487737199
    60   2      5.8305555195698933      12.408747597744489      14.120037046941789
    61   2      6.7935418381506052      10.953658928629139      10.781525940502886
    62   1      10.747973367216282      8.9486506836612048       11.73524416177362
    63   2       10.47554500333089       10.27404701660725       12.40945758180939
    64   2      10.849067456423272      11.373594222255223      10.409945301883395
    65   1      14.124089224527099        8.58567010357614       11.13888418275315
    66   1      14.793701084155447      9.0157653363968322      13.385053534621687
    67   1      13.297272527619949      10.649782029995851      12.796994631920565
    68   2      14.276451328933309      9.5509482716904603      10.041809671747757
    69   2      16.863490850482275      12.633152717962373      13.216558045107094
    70   2      13.307334626074773      12.124092159466636      13.014473529698421
    71   2      18.099729872162481      10.688754459625219      13.241586228182792
    72   2      20.028203396890504      12.448698823700665      10.162798879215122
    73   2      18.080410943674497       9.788762716429833      11.066911563512654
    74   2      20.298436805798517      11.483644435938807      13.728864089818263
    75   1      19.341038260882502      8.6878274477922677      13.440322508331974
    76   2      20.229066308516817      10.096023335511122      10.202414028197348
    77   2      1.1019391227725888      16.467983411553796      13.740914687538247
    78   2      1.1989172874569141      13.199645002774558      11.218386878826934
    79   2      1.5389566906248131      15.473615887293095      11.721007480625223
    80   2      3.8317464089827507      15.371101715263988      11.903456921544388
    81   1      2.7433967202981302      13.792505367962212      14.157921401268521
    82   2      6.0456759516372296      13.065372012632846      10.241560433653097
    83   2      8.5630446335502945      15.057313163563473      11.771049256316628
    84   2      4.9553098870873358      16.265735926646027      13.661621160114368
    85   2      4.8131062457954608      13.278680804204102      12.144159473313039
    86   2      7.0359793011087648       16.50698499149253      12.723440773700197
    87   2      4.7706868874161827      16.398757214648448      10.103669616032866
    88   1      11.689086323862249      14.765472467869138      12.453804873901721
    89   2      9.1928799823347358      13.188536329273539      12.964631353252688
    90   2      12.521094759012447      14.996596880794023      11.253726174249348
    91   2      10.027160250311764      16.838476556070084      11.950533486613338
    92   2      10.841178886733053      16.752804264858476      14.111837710934076
    93   2      11.289234448846269       12.89575874715625      13.905685362166652
    94   1      14.883942957276071      16.214345963816516      11.476119609449496
    95   2      15.818925667170683       15.53978914288072      12.536100433192491
    96   2      16.269344576837916      13.704084962163227      11.215866769470725
    97   2      13.992124054439413      13.222149757929449      11.097726316834816
    98   2      13.481464181090216      17.054209331935198      10.942864055257974
    99   2      21.067698555904261      13.152021102807499      12.151906860515259
   100   2      20.210275124073487      15.362007386764944      12.858964184681993
   101   2      20.369306296154654      16.460405846007916      10.814050210172461
   102   2      18.279462941346484      14.316703365301468      13.934516170502581
   103   1     0.59521576596933623      18.087992530856269      10.409675783584715
   104   2       1.945496812440241      20.227185390395089      12.349037337368788
   105   2      1.6138104808543867      19.222019554317693      10.335088717240172
   106   2      2.1521062432099911      18.534569527241768      13.885908377024499
   107   2      3.9541887452061775       21.19693889494582      11.564921824191261
   108   2      6.5401251884780356      17.652440027357251      10.764657579961138
   109   2      4.4687655863343601      18.498267595311511      13.778436444751602
   110   2      5.4945921081928502      19.484581395114521      11.866542635116746
   111   2      7.7286711926692009      20.167976335689936      12.256845957146185
   112   2      7.7340607667767909      18.443729543814612      13.845136811608372
   113   1      9.1504606582676793      18.027859104779843      12.232748392591574
   114   2       11.61268040829529       19.91622054845045      13.491006298606365
   115   2      11.406535516073102      18.050311999367178      10.563341033014771
   116   2      12.825634735858307      17.980047365096613      14.026542357335636
   117   2      11.146592816697767      20.335192421852998      11.223507896948696
   118   2      8.9697815825958909      20.170788290067673      10.235016974358242
   119   1      14.169481080703784      18.204350090333399      11.616156141619255
   120   2       14.91085358475476      20.761632571157811      11.842003712995938
   121   2      13.185125051497003      21.045415676026845       10.25466394643516
   122   2       16.40193076152724      19.000502426133771      11.176811459047393
   123   2      13.606126916339058      20.948318359092323      13.742455076426587
   124   2      16.846577953618063      17.545709435212853      12.920601605638534
   125   1      19.727417101146379      17.800086682358746      11.015487345377739
   126   2      19.061354905540956      17.403303837931919      13.583848874836393
   127   2      19.993046814115765      19.378386988882017      12.863046458849318
   128   1      21.037624686215729      20.728229171412163      10.410055520039133
   129   2      18.581438570031256      19.874674204705691      11.082055771563594
   130   1      3.7521893256694403      4.1697944667932516      16.831692063751838
   131   2      4.1202684096344235      2.3173225535602491      14.794077813367821
   132   2      1.1319576433282628      2.2884489579734577      17.001566394373413
   133   2      3.4515428840843172      2.5021487939477831      17.018752668696795
   134   2      4.6963349060331012     0.13400880882517727      15.084407824604693
   135   1      7.4517646062299994      1.9144137650792445      18.434671888776663
   136   2       8.144133979843474      1.5285568581197466       14.76727049735134
   137   2      8.5566803390625257      1.3132340433764098      17.180698877760221
   138   2      10.601243196684706      1.0753010698234231      18.360361380227616
   139   2      9.0620210882475529      3.4270247151442508       16.27055957322553
   140   1      10.437497124726988      3.2446596335341034      15.736104812092956
   141   2      13.098278539582875     0.86938107270651865       15.87246773495934
   142   2      13.014876453373521      3.0921572647425224      15.316660732691824
   143   2      14.547244924818614      3.9870824489314964      18.225774605659865
   144   2      16.862809179464346     0.56297712708901826      15.436962893193968
   145   2      14.241577418343695     0.19572386424218557      17.730097425305438
   146   2      14.802399383679852     0.26457821506660278      14.491695988641878
   147   2      20.091558684681349     0.03234356758754757      14.679810435529467
   148   1      17.605962188384026      1.9186553573867577      14.911790648845258
   149   2      19.751981401311998     0.43443566244090875      16.943616031947759
   150   2      19.710842261802416      3.8132804615584348      16.553261733667302
   151   2      21.052994658756322      2.2246250589676269      17.435802453350039
   152   2      18.578841476678242      3.3123911732015792      14.657123230002686
   153   2      17.587338907502264       0.520792217097097      17.607302643764463
   154   2       18.23576928719255      3.9754938711051824      18.349217738605603
   155   2      1.6155274336557239       5.399476481941841      14.432874574757594
   156   2      1.0008813338232372      4.5709889334097218      16.493872785257864
   157   1      3.5815357586477798      7.9812435338491241      14.455012212273466
   158   2      1.6458119612331015      8.4812143832175249       16.88808747990236
   159   2      3.6840927192491786      7.4147918760542995      17.071785777508371
   160   2      2.1805430241545261      5.3723050513188157      18.350425115138826
   161   2     0.91152002997457193      7.6210159195209943       14.86248242390408
   162   2      7.9668447099798261      6.8295689705363332      14.286087913570356
   163   2      4.3744319456393406      5.4783470813892761      16.061175247220827
   164   1      4.6402289273911865      8.4140798234516723      16.131972802747928
   165   2      7.5056896136888742      4.6903485500754574      15.077465632887959
   166   2      6.4668570549393314      5.5067702530797842      16.988369292661325
   167   2      7.1693066173871092      7.6919512920393256      17.542851017736492
   168   1      11.175471295467284      4.6407914346604455      14.527411105505067
   169   2      8.9220126914347304      7.9265111592678013      16.145385483928095
   170   2      10.557869392941404      6.4717487159038143      17.030188838592004
   171   2      11.431467938914796      6.0530243325605833      14.949679426612775
   172   2      9.4362810819788834      4.7742527537097441      18.175888859166243
   173   2      12.505165846095187      4.2969972796102134      17.264557375280567
   174   2      12.189053356347909      7.5661737714253885      18.243142532134065
   175   1      16.307530197107564      7.6105809232781958      14.279640468721487
   176   2      16.748262009263417      4.7213403304006469      14.915182014072997
   177   2       14.15310557257035      7.5073231800493465      16.949311904025247
   178   2       13.68994632270531      6.4218076915303772      14.937999591245259
   179   2      16.390122837816762      4.8310302540000665      17.183242294578019
   180   2      15.871008034375267       6.741011788913414      18.497338627881057
   181   2      20.852986705935283      5.7432615776266918      16.941332862848679
   182   2      17.413184798583323      6.9403410972330759      15.013369650979534
   183   2      18.262729569227677      8.3058749757994903        16.7165232722231
   184   2      19.555176093677055      7.0193418209769085      18.375338335937698
   185   2       21.14575411328936      7.1926850909899001       15.19534315982683
   186   1      3.7761604595538456      10.262999111449528      15.022227681938533
   187   2      1.3747290187571355      10.670292232411455      17.639224527871413
   188   2     0.86499077040129124      12.136502928477391      15.952422955595541
   189   1      3.4424352628010135      12.591614042726944      16.298498810149798
   190   2      6.3020296558582647      12.692926797838162      17.731277187210971
   191   2      5.9572307351080482      9.2951872067312813      16.350361733119041
   192   2      8.3684411599505157      12.202284520366561       16.71377309928349
   193   2      5.3585796963007386      10.638965602483204      18.126968913032805
   194   2      10.903065456001663      10.785368533174704      14.764893580607225
   195   1      12.640279581057312      9.2879844031410936      14.529323246279137
   196   1      9.8059695665951683      9.5636482885671974      17.958774041270075
   197   2      8.7943929291342382      10.194055916937058      15.613013205205981
   198   2      11.251922165127658      9.6805753172484952      18.321692237480825
   199   2      11.988954135265702      11.332646284403456      16.834107329795685
   200   2      10.375022636158839      12.819719324133509      17.717443051526121
   201   2      16.639990498620822      8.9858293043492665      18.257573415650363
   202   2      15.190512812020915      9.5843520408524903      16.477002779151555
   203   2      14.307517308340898      11.708373829809068      16.536414392335161
   204   2      14.909091420396285      12.742449173159793      14.529745776032613
   205   2      20.619071354617535      8.7502140308575225      16.825512370478066
   206   1      17.462276285183577      11.359235011510863       16.00569445997321
   207   2      17.197817336137483      10.002589974134459      15.330391612629697
   208   1      19.491366141642189       10.94798263625686      16.758984370678739
   209   2      21.099970555532938      10.829179891087279      16.001561458642772
   210   2      18.801576935940783      12.351400534564226      17.351849458604441
   211   1      3.0505968416734466      14.417478702518242      18.116905261903177
   212   1     0.35265291685644717      15.099819268586165      17.622992043653483
   213   2      2.2586557649049044       15.68202743044232      15.633165292821122
   214   2     0.36084284905817243      14.395496747151698      16.307153008824713
   215   1      2.0529904389895424      16.808300107457484      16.605305462215309
   216   1       3.659127101127881      17.024965164187957      18.252461842543745
   217   2      4.6620625881774531      15.433690325987808      15.789279980899149
   218   2       7.838169387145733      13.408804950167767      14.790849544805639
   219   2      7.2305001544027085      15.314599429368462      15.845178279868449
   220   2      4.8040095283876934      13.149425783139883      16.051078271444219
   221   2      8.2478964602387794      15.713957930948959      17.855324790653853
   222   1      7.6151138515582018      16.554755627552623      15.103082388955546
   223   2      4.9990744834250656      16.808215211106383      17.654802527862671
   224   2      12.007423836325698      14.901085972194963      14.833948169856528
   225   2      10.423053162485248       15.09590549184041      18.271264830547416
   226   2      12.193785640605814      15.739177362107521      16.973978572527983
   227   2      14.325269249349144      14.995893074075044      14.275852430786873
   228   2      14.346279880658898      15.302989903401606      17.658539871180011
   229   2      15.446170342151827      13.247326843705061      17.879119717913639
   230   2      15.385088953586033      16.318570059696821      15.834931695918106
   231   1      16.148198050273553      17.100345847418652      18.319071784590086
   232   1      20.357296112059966      16.706305901921237      16.357854436294623
   233   2      17.547050673201507      14.316219627032231      17.755542006177553
   234   2      19.778489008199426      13.266328194504801      15.353086944181658
   235   2      17.518943232115529       15.43505172763151      15.779922245500829
   236   2      21.273733860357265      14.438910083436575      16.692751267263446
   237   1      20.836989060638697      16.926767369351392      18.466277318087851
   238   2         1.4954993262406      19.377840982219873      15.914206444263602
   239   2     0.68880607351562595      18.610007163170309      17.940027497407783
   240   1      3.3785886056666521      19.198609583668869      18.500786934739867
   241   2      2.9549961107100255      21.077197788363808      16.377989333932405
   242   1     0.33295896160629901      20.215173382670233      15.474095909643189
   243   1      8.2518939600784673      21.157884207334099      16.512995650240057
   244   2       6.040449026077745      19.373409324987829       15.20602190840215
   245   2      4.7258019611577105      20.790516144128524      17.865366159210623
   246   2      8.4170680681018784      17.985858760627334      17.527962384133737
   247   2      6.1807933576835072      18.909382417975102      17.466301705838134
   248   2      7.6849151718301378      21.061321962268465      17.903297801423818
   249   1      5.9778927932713009      20.857305076245051      15.054778826215301
   250   2      12.661414225442677      17.952857192446334      16.385409859956397
   251   2      9.4097957650322215      18.153759478073884      15.383685110651092
   252   2      10.153123038486088      20.372212953593976      15.218582887097387
   253   2      11.305297940228014      19.635805686993447      17.264606546569929
   254   2      15.962353851678586      18.376968803956213      14.901265363564512
   255   2      14.890284920067398      20.333810978166319      15.509531087996466
   256   2      12.997038587148479      20.741123458339128      18.480570820286474
   257   2      14.330523799812532      19.204330201999014      17.442135133792267
   258   2      16.433744130465325      18.560606402457129      18.348163941477807
   259   2      19.546823817713765      21.170883117434176       18.01376956219449
   260   2      19.039638190081412      17.122352478142421      15.837102734763103
   261   2      20.691095036856147       19.14622186477386      18.247904656474738
   262   2      18.574924283131487      20.923183003624519      15.952922576769328
   263   2      20.529284727654417      20.745973176499888      14.684980839099847
   264   2      17.708089157706244      18.856396353995603      16.373140642464286
   265   2     0.50430769231428618      4.2463945497716313      19.528408266468404
   266   1      2.6486200243039044      0.6279667341693157      21.484169407953729
   267   2      2.2583267341974715      1.8884330369984157      20.779804508690724
   268   2      4.0004368871088731      2.1501500677029948      19.256639708136696
   269   2      0.5833506749342221      1.9641540684881857      19.237234662931773
   270   2      2.3370743358448509      3.5063551686071586      22.434278208785173
   271   2       5.467697446846647      2.0616782076061648      21.037244435513905
   272   2      4.6478671029895953      3.6123908178393727       22.51549279617868
   273   2      7.2521744588655528      2.7323474457742867       19.80295243488268
   274   1      7.5839251770119978      4.0316667042014656       22.72882755771095
   275   1      7.7398685205616591    0.085653387198704869      19.462963257059506
   276   2      8.8858889615814238      2.3635414460599597      21.346994944669316
   277   2      10.964454941660513      3.3952167681997221      21.147376701786193
   278   2      11.827188916298333      1.3750894398715843        21.9074833805319
   279   2      11.112682339510977       3.299439284909734      18.853501421172197
   280   1      9.8893605976947807     0.59090821538790606       19.72935731016759
   281   2      9.8557973941761325      0.2371789625210656      21.344074281150117
   282   2      14.739933180713306      1.9513436549831755      19.270672952464544
   283   1      13.500100653562079      1.6148786943944786      21.940591465861878
   284   1      13.173602593850015      1.9013142302609205      19.579834444499944
   285   2       16.44016144743366     0.97945959827343032      22.338009366957422
   286   2      14.887123979571097       2.467476812826479      21.590835993550577
   287   2      21.028511006045299       2.698282990117634      19.693476727302798
   288   2      17.202547628383392      2.1050320628512735      19.169971922269681
   289   1       19.72874562763684      3.7511903264649775      19.238481198974476
   290   2      18.280714199151316      1.3023167762860417       21.06244401827324
   291   2      19.679891910879306      2.9688187171917377      21.622553467017777
   292   2      1.2168041811460832      7.3993153802761888      18.883553663119685
   293   2      0.8586039019368078      5.2498460427645748      21.595406158011876
   294   1      3.4080860499934831      4.8460540891618429      19.039561728253823
   295   2       2.709175498960577      8.2154998218995132      20.430308830162076
   296   2       2.772567821128519      6.6175238439366222      22.043052009967653
   297   2      4.5394843555745918      7.5523353968852041      19.202754932673336
   298   1      7.5751524599600888      6.5580143257375925      22.790992224421501
   299   2      6.2535448379562997      6.5440412952896407      20.409078628185902
   300   2      4.9906128988456313      5.8878380538484363      22.267877674685721
   301   2      7.2533381334198692      4.8715180357510821      19.062331510027313
   302   2      7.7968813120916396      8.1953375128159305      19.794891168471157
   303   1      10.513875973330556      7.3870371739855996      20.251070098053574
   304   2      11.325590182805106      5.5405014806949477      22.008203358902286
   305   2      12.619482377021935      6.5527504351394432      20.338738885537879
   306   2      9.7642517518810887      8.4180691031271007       21.05806772859362
   307   2      15.835884878483384      7.2116628513813312      22.313733879984241
   308   2      13.822788619551227      8.1508391325660057      21.506806453205357
   309   2      15.107257818298077      4.7961338332689838      22.282870209851204
   310   2      14.634327213579132       5.459690614488351      20.026625658006701
   311   2      17.907853914289134      5.8520726665931626       19.64547575526387
   312   2      20.001846635478024      7.7824254346760817       20.56767974179688
   313   2       21.22741446451327      5.7963027772400544      21.370025971858013
   314   2      18.970034534338129      5.1282577056361855      21.592499024958506
   315   2       17.76708489341587        8.23770439185828      21.456157756830599
   316   2      3.2306370340515054      11.265148054399214       18.88873946389846
   317   1     0.44756160976309894      9.3449481124750555      19.754697098114434
   318   2      2.6182706306267933      10.437010847683727      20.979430715295813
   319   2      0.8627306185560768      11.766177138442462      21.660576469876602
   320   1      5.0844531398469828      8.9580052357028688      19.033511078007564
   321   2      4.3230376998760569      11.047009302989794      22.378191400859286
   322   2      6.7942914998900461      10.262716130914066      19.900706316481077
   323   2         5.6162589279435      9.2184560474903652      21.599937457303021
   324   2      7.7871821564113572      12.183799245675203      20.631622607339168
   325   2      11.143581841071819      10.345543357065807      20.636910107282105
   326   2      9.9889761993964665      12.306091476344823       19.93035590771062
   327   1      13.923273319819312      9.9838753093455317      18.899376242032748
   328   2      16.966367218600254      10.288440102228366      22.297612781018515
   329   2       13.51494572279328      10.066865915234052      20.332574448886476
   330   1      13.140552385719198      12.635552536802514      19.215450405534895
   331   2      15.095856996636485      11.326065674330398      21.402013492460654
   332   2      16.399895386711965      12.164759525754334      19.703540423415703
   333   2      18.074578174841246      10.717895760581031      18.907332975104637
   334   1      17.173712188831708      8.5837041645022669      20.002622033004744
   335   2      18.443002869169149      12.055979728397643      22.437002849356794
   336   2      20.337897357830318      10.775087801623357       22.01523589836831
   337   2       20.23117165059195        10.0766099836385      19.831897931288502
   338   2      20.256622397731103      12.436824041582121      19.262387835236687
   339   2      3.4563214076294972      13.534552043767091      19.254196934036798
   340   1     0.62579434286591407      13.402895719680453      18.909487049682625
   341   1     0.97750343581986121      14.918695276638756      21.055699117498175
   342   1      1.5101518354769343      16.051217007590758      19.073970668162147
   343   2      3.6980287464904591       16.66406484546474      21.743131484780555
   344   2       2.040128643152074      13.685981187552741      21.067485938415714
   345   2     0.62166522797281021      16.278418140596237      20.250665412137383
   346   2      3.3107815852485074       14.61239866497832      22.732714482949916
   347   2      5.8076188494053964      13.609240330243701      19.889957401314284
   348   1      6.5760514635246379      16.691336848106896      20.246839531135571
   349   2      5.0424835834094779       13.21382898562233      22.116043809042242
   350   2      6.3627425184127588      15.703273416819421      19.155139731474154
   351   2      5.9313085951728679      17.076260791061092      22.329732130039584
   352   1      7.7796856598695285      14.861336020426643      21.152373414898776
   353   2      7.7628683029247387      15.583746907418014      22.466031568005171
   354   2      10.983241219211799      14.088070375506112      21.010231359366124
   355   2       10.72924543922573      16.480685209845195      20.307346026141609
   356   2      9.5729794512776483      17.026803516506519      22.329718360064671
   357   1       12.86187623327424         16.148506656397      22.402580107103031
   358   2      16.523049991681496      15.716112953191235      20.899545000687322