 vasp.6.5.0 16Dec24 (build Jan 20 2025 08:32:48) complex                         
 executed on        HPECrayEX_GCC date 2025.07.29  10:20:09
 running  128 mpi-ranks, with    1 threads/rank, on    1 nodes
 distrk:  each k-point on  128 cores,    1 groups
 distr:  one band on NCORE=  16 cores,    8 groups


--------------------------------------------------------------------------------------------------------


 INCAR:
   SYSTEM = a-Si SPC
   NCORE = 16
   ISTART = 1
   ICHARG = 1
   ISPIN = 1
   ISYM = 1
   EDIFF = 1E-6
   NELM = 150
   EDIFFG = -0.01
   NSW = 0
   ISIF = 2
   IBRION = -1
   PREC = Accurate
   ENCUT = 1200
   KSPACING = 0.23
   KGAMMA = .TRUE.
   METAGGA = SCAN
   LASPH = .TRUE.
   LDIAG = .FALSE.
   LMIXTAU = .TRUE.
   ADDGRID = .TRUE.
   ALGO = Normal
   ISMEAR = 0
   SIGMA = 0.1
   LORBIT = 11
   NEDOS = 2000
   LWAVE = .FALSE.
   LCHARG = .FALSE.

 POTCAR:    PAW_PBE H 15Jun2001                   
 POTCAR:    PAW_PBE Si 05Jan2001                  
 POTCAR:    PAW_PBE H 15Jun2001                   
   SHA256 =  030f79b5d3ab3cf0e668861823c8fb652ff669f3e15e46930bd03bfd63a607b6 H/POTCAR              
   COPYR  = (c) Copyright 15Jun2001 Georg Kresse                                                    
   COPYR  = This file is part of the software VASP. Any use, copying, and all other rights are regul
   COPYR  = If you do not have a valid VASP license, you may not use, copy or distribute this file. 
   VRHFIN =H: ultrasoft test                                                                        
   LEXCH  = PE                                                                                      
   EATOM  =    12.4884 eV,    0.9179 Ry                                                             
                                                                                                    
   TITEL  = PAW_PBE H 15Jun2001                                                                     
   LULTRA =        F    use ultrasoft PP ?                                                          
   IUNSCR =        0    unscreen: 0-lin 1-nonlin 2-no                                               
   RPACOR =    0.000    partial core radius                                                         
   POMASS =    1.000; ZVAL   =    1.000    mass and valenz                                          
   RCORE  =    1.100    outmost cutoff radius                                                       
   RWIGS  =    0.700; RWIGS  =    0.370    wigner-seitz radius (au A)                               
   ENMAX  =  250.000; ENMIN  =  200.000 eV                                                          
   RCLOC  =    0.701    cutoff for local pot                                                        
   LCOR   =        T    correct aug charges                                                         
   LPAW   =        T    paw PP                                                                      
   EAUG   =  400.000                                                                                
   RMAX   =    1.123    core radius for proj-oper                                                   
   RAUG   =    1.200    factor for augmentation sphere                                              
   RDEP   =    1.112    radius for radial grids                                                     
   RDEPT  =    0.926    core radius for aug-charge                                                  
                                                                                                    
   Atomic configuration                                                                             
    2 entries                                                                                       
     n  l   j            E        occ.                                                              
     1  0  0.50        -6.4927   1.0000                                                             
     2  1  0.50        -3.4015   0.0000                                                             
   Description                                                                                      
     l       E           TYP  RCUT    TYP  RCUT                                                     
     0     -6.4927494     23  1.100                                                                 
     0      6.8029130     23  1.100                                                                 
     1     -4.0817478     23  1.100                                                                 
  local pseudopotential read in
  atomic valenz-charges read in
  non local Contribution for L=           0  read in
    real space projection operators read in
  non local Contribution for L=           0  read in
    real space projection operators read in
  non local Contribution for L=           1  read in
    real space projection operators read in
    PAW grid and wavefunctions read in

   number of l-projection  operators is LMAX  =           3
   number of lm-projection operators is LMMAX =           5

 POTCAR:    PAW_PBE Si 05Jan2001                  
   SHA256 =  79d9987ad8750f624c4d6acb2a16d13abf6a777132adc04dc6c8399be72b42bb Si/POTCAR             
   COPYR  = (c) Copyright 05Jan2001 Georg Kresse                                                    
   COPYR  = This file is part of the software VASP. Any use, copying, and all other rights are regul
   COPYR  = If you do not have a valid VASP license, you may not use, copy or distribute this file. 
   VRHFIN =Si: s2p2                                                                                 
   LEXCH  = PE                                                                                      
   EATOM  =   103.0669 eV,    7.5752 Ry                                                             
                                                                                                    
   TITEL  = PAW_PBE Si 05Jan2001                                                                    
   LULTRA =        F    use ultrasoft PP ?                                                          
   IUNSCR =        1    unscreen: 0-lin 1-nonlin 2-no                                               
   RPACOR =    1.500    partial core radius                                                         
   POMASS =   28.085; ZVAL   =    4.000    mass and valenz                                          
   RCORE  =    1.900    outmost cutoff radius                                                       
   RWIGS  =    2.480; RWIGS  =    1.312    wigner-seitz radius (au A)                               
   ENMAX  =  245.345; ENMIN  =  184.009 eV                                                          
   ICORE  =        2    local potential                                                             
   LCOR   =        T    correct aug charges                                                         
   LPAW   =        T    paw PP                                                                      
   EAUG   =  322.069                                                                                
   DEXC   =    0.000                                                                                
   RMAX   =    1.950    core radius for proj-oper                                                   
   RAUG   =    1.300    factor for augmentation sphere                                              
   RDEP   =    1.993    radius for radial grids                                                     
   RDEPT  =    1.837    core radius for aug-charge                                                  
                                                                                                    
   Atomic configuration                                                                             
    6 entries                                                                                       
     n  l   j            E        occ.                                                              
     1  0  0.50     -1785.8828   2.0000                                                             
     2  0  0.50      -139.4969   2.0000                                                             
     2  1  1.50       -95.5546   6.0000                                                             
     3  0  0.50       -10.8127   2.0000                                                             
     3  1  0.50        -4.0811   2.0000                                                             
     3  2  1.50        -4.0817   0.0000                                                             
   Description                                                                                      
     l       E           TYP  RCUT    TYP  RCUT                                                     
     0    -10.8127223     23  1.900                                                                 
     0     -7.6451159     23  1.900                                                                 
     1     -4.0811372     23  1.900                                                                 
     1      2.4879257     23  1.900                                                                 
     2     -4.0817478      7  1.900                                                                 
  local pseudopotential read in
  partial core-charges read in
  partial kinetic energy density read in
  atomic valenz-charges read in
  non local Contribution for L=           0  read in
    real space projection operators read in
  non local Contribution for L=           0  read in
    real space projection operators read in
  non local Contribution for L=           1  read in
    real space projection operators read in
  non local Contribution for L=           1  read in
    real space projection operators read in
    PAW grid and wavefunctions read in

   number of l-projection  operators is LMAX  =           4
   number of lm-projection operators is LMMAX =           8

 -----------------------------------------------------------------------------
|                                                                             |
|               ----> ADVICE to this user running VASP <----                  |
|                                                                             |
|     You have a (more or less) 'large supercell' and for larger cells it     |
|     might be more efficient to use real-space projection operators.         |
|     Therefore, try LREAL= Auto in the INCAR file.                           |
|     Mind: For very accurate calculation, you might also keep the            |
|     reciprocal projection scheme (i.e. LREAL=.FALSE.).                      |
|                                                                             |
 -----------------------------------------------------------------------------

 -----------------------------------------------------------------------------
|                                                                             |
|               ----> ADVICE to this user running VASP <----                  |
|                                                                             |
|     You enforced a specific xc type in the INCAR file but a different       |
|     type was found in the POTCAR file.                                      |
|     I HOPE YOU KNOW WHAT YOU ARE DOING!                                     |
|                                                                             |
 -----------------------------------------------------------------------------

  PAW_PBE H 15Jun2001                   :
 energy of atom  1       EATOM=  -12.4884
 kinetic energy error for atom=    0.0000 (will be added to EATOM!!)
  PAW_PBE Si 05Jan2001                  :
 energy of atom  2       EATOM= -103.0669
 kinetic energy error for atom=    0.0001 (will be added to EATOM!!)


 POSCAR:  H Si
  positions in cartesian coordinates
  No initial velocities read in


 exchange-correlation table for SCAN
   RHO(1)=    0.500       N(1)  =     2000
   RHO(2)=  100.500       N(2)  =     4000



--------------------------------------------------------------------------------------------------------


 ion  position               nearest neighbor table
   1  0.334  0.637  0.585-  27 1.51
   2  0.690  0.560  0.349-  24 1.49
   3  0.356  0.862  0.409-  13 1.49
   4  0.811  0.578  0.529-  59 1.50
   5  0.831  0.760  0.578-  49 1.49
   6  0.140  0.682  0.613-  39 1.49
   7  0.264  0.063  0.595-  31 1.49
   8  0.148  0.277  0.433-  67 2.24  64 2.28  56 2.33
   9  0.969  0.080  0.418-  38 2.30  64 2.32  40 2.33
  10  0.403  0.865  0.530-  50 2.33  63 2.34  13 2.40  58 2.41
  11  0.537  0.455  0.484-  17 2.30  57 2.32  25 2.34  70 2.36
  12  0.650  0.173  0.449-  61 2.33  66 2.35  32 2.39  21 2.48  41 3.12
  13  0.383  0.790  0.447-   3 1.49  47 2.29  44 2.32  10 2.40
  14  0.668  0.307  0.583-  21 2.34  25 2.40  26 2.41  41 3.08
  15  0.015  0.977  0.555-  18 2.35  40 2.38  60 2.40  37 2.43
  16  0.024  0.476  0.483-  65 2.27  43 2.34  56 2.35  46 2.36
  17  0.397  0.394  0.460-  11 2.30  19 2.31  68 2.34  20 2.42
  18  0.073  0.127  0.564-  35 2.30  15 2.35  31 2.36
  19  0.388  0.239  0.442-  67 2.29  61 2.30  17 2.31  30 2.41  62 3.05
  20  0.375  0.366  0.552-  30 2.36  52 2.38  17 2.42  25 2.48
  21  0.644  0.162  0.545-  14 2.34  29 2.36  42 2.44  12 2.48  41 2.84
  22  0.127  0.695  0.435-  44 2.28  51 2.31  43 2.36
  23  0.918  0.725  0.468-  51 2.32  43 2.35  49 2.36  28 2.39
  24  0.714  0.585  0.403-   2 1.49  45 2.29  28 2.30  57 2.38
  25  0.538  0.406  0.571-  11 2.34  14 2.40  55 2.40  20 2.48
  26  0.818  0.369  0.565-  59 2.33  14 2.41  46 2.46  41 2.46
  27  0.320  0.600  0.531-   1 1.51  44 2.38  70 2.41  52 2.42  68 3.06
  28  0.870  0.616  0.404-  65 2.28  24 2.30  23 2.39
  29  0.489  0.122  0.561-  50 2.31  30 2.32  21 2.36
  30  0.365  0.208  0.533-  29 2.32  20 2.36  19 2.41  31 2.43
  31  0.231  0.111  0.547-   7 1.49  18 2.36  48 2.40  30 2.43
  32  0.753  0.300  0.442-  69 2.33  12 2.39  41 2.39  57 2.42
  33  0.662  0.786  0.502-  45 2.32  49 2.36  54 2.37  34 2.40
  34  0.569  0.685  0.553-  63 2.32  70 2.37  55 2.37  33 2.40
  35  0.987  0.240  0.525-  18 2.30  46 2.33  64 2.35  41 2.42
  36  0.290  0.035  0.405-  67 2.30  62 2.30  48 2.31
  37  0.121  0.875  0.600-  58 2.40  15 2.43
  38  0.839  0.069  0.469-   9 2.30  66 2.32  60 2.37  41 2.56
  39  0.070  0.618  0.591-   6 1.49  43 2.32  53 2.34
  40  0.057  0.976  0.465-   9 2.33  51 2.35  48 2.35  15 2.38
  41  0.822  0.224  0.515-  32 2.39  35 2.42  26 2.46  38 2.56  21 2.84  14 3.08  12 3.12
  42  0.708  0.016  0.573-  54 2.34  60 2.40  21 2.44
  43  0.036  0.633  0.503-  39 2.32  16 2.34  23 2.35  22 2.36
  44  0.253  0.726  0.485-  22 2.28  13 2.32  58 2.37  27 2.38
  45  0.627  0.710  0.425-  47 2.29  24 2.29  33 2.32
  46  0.985  0.389  0.558-  35 2.33  16 2.36  53 2.41  26 2.46
  47  0.475  0.676  0.414-  13 2.29  45 2.29  70 2.32
  48  0.215  0.996  0.481-  36 2.31  40 2.35  58 2.38  31 2.40
  49  0.818  0.803  0.525-   5 1.49  33 2.36  23 2.36  60 2.42
  50  0.481  0.998  0.505-  29 2.31  62 2.33  10 2.33  54 2.33
  51  0.033  0.823  0.438-  22 2.31  23 2.32  40 2.35
  52  0.241  0.458  0.549-  56 2.37  20 2.38  53 2.40  27 2.42
  53  0.108  0.463  0.605-  39 2.34  52 2.40  46 2.41
  54  0.633  0.947  0.502-  50 2.33  42 2.34  33 2.37  66 2.43
  55  0.621  0.545  0.590-  59 2.36  34 2.37  25 2.40
  56  0.174  0.423  0.467-   8 2.33  68 2.33  16 2.35  52 2.37
  57  0.688  0.451  0.454-  11 2.32  59 2.36  24 2.38  32 2.42
  58  0.237  0.863  0.534-  44 2.37  48 2.38  37 2.40  10 2.41
  59  0.744  0.501  0.536-   4 1.50  26 2.33  55 2.36  57 2.36
  60  0.853  0.963  0.539-  38 2.37  15 2.40  42 2.40  49 2.42
  61  0.514  0.178  0.401-  62 2.29  19 2.30  12 2.33
  62  0.445  0.041  0.420-  61 2.29  36 2.30  50 2.33  19 3.05
  63  0.508  0.815  0.593-  34 2.32  10 2.34
  64  0.997  0.234  0.434-   8 2.28   9 2.32  35 2.35  69 2.37
  65  0.924  0.470  0.416-  16 2.27  28 2.28  69 2.29
  66  0.704  0.025  0.429-  38 2.32  12 2.35  54 2.43
  67  0.259  0.190  0.399-   8 2.24  19 2.29  36 2.30
  68  0.294  0.502  0.426-  56 2.33  17 2.34  27 3.06
  69  0.884  0.324  0.391-  65 2.29  32 2.33  64 2.37
  70  0.473  0.603  0.495-  47 2.32  11 2.36  34 2.37  27 2.41

  LATTYP: Found a simple tetragonal cell.
 ALAT       =    14.5457540415
 C/A-ratio  =     1.7637012098
  
  Lattice vectors:
  
 A1 = (  14.5457540415,   0.0000000000,   0.0000000000)
 A2 = (   0.0000000000,  14.5457540415,   0.0000000000)
 A3 = (   0.0000000000,   0.0000000000,  25.6543640000)


Analysis of symmetry for initial positions (statically):
=====================================================================
 Subroutine PRICEL returns:
 Original cell was already a primitive cell.
 

 Routine SETGRP: Setting up the symmetry group for a 
 simple tetragonal supercell.


 Subroutine GETGRP returns: Found  1 space group operations
 (whereof  1 operations were pure point group operations)
 out of a pool of 16 trial point group operations.


The static configuration has the point symmetry C_1 .


Analysis of symmetry for dynamics (positions and initial velocities):
=====================================================================
 Subroutine PRICEL returns:
 Original cell was already a primitive cell.
 

 Routine SETGRP: Setting up the symmetry group for a 
 simple tetragonal supercell.


 Subroutine GETGRP returns: Found  1 space group operations
 (whereof  1 operations were pure point group operations)
 out of a pool of 16 trial point group operations.


The dynamic configuration has the point symmetry C_1 .


 Subroutine INISYM returns: Found  1 space group operations
 (whereof  1 operations are pure point group operations),
 and found     1 'primitive' translations


----------------------------------------------------------------------------------------

                                     Primitive cell                                     

  volume of cell :    5427.9237

  direct lattice vectors                    reciprocal lattice vectors
    14.545754041  0.000000000  0.000000000     0.068748584  0.000000000  0.000000000
     0.000000000 14.545754041  0.000000000     0.000000000  0.068748584  0.000000000
     0.000000000  0.000000000 25.654364000     0.000000000  0.000000000  0.038979723

  length of vectors
    14.545754041 14.545754041 25.654364000     0.068748584  0.068748584  0.038979723

  position of ions in fractional coordinates (direct lattice)
     0.333519151  0.637187124  0.585026880
     0.689532539  0.560101355  0.348530543
     0.356340347  0.862214240  0.409054488
     0.811200096  0.578197094  0.529136293
     0.831328343  0.759956966  0.577513952
     0.139676172  0.682043062  0.612603313
     0.263875643  0.062858214  0.595465002
     0.147690661  0.277055245  0.432594340
     0.968645157  0.079751683  0.417798490
     0.403068954  0.864954142  0.529771070
     0.536969933  0.454883098  0.484340190
     0.649893700  0.172867291  0.448607833
     0.383390538  0.789534847  0.447183909
     0.667563362  0.306540898  0.583046510
     0.015473695  0.977180227  0.554721198
     0.024385106  0.475670200  0.483486282
     0.397385549  0.394174484  0.460216074
     0.072845933  0.127469861  0.564199671
     0.388159007  0.239113530  0.441623567
     0.375476184  0.365852459  0.552424176
     0.643981934  0.162329789  0.544940868
     0.127246093  0.694658688  0.435352517
     0.918453148  0.725266771  0.467923446
     0.714365033  0.584701747  0.403143794
     0.537670774  0.406042067  0.571236922
     0.817549782  0.368798793  0.564988296
     0.320405613  0.600407001  0.530665108
     0.869670364  0.615775939  0.403986296
     0.489493772  0.121662317  0.561479910
     0.364746753  0.207579821  0.532719479
     0.231423324  0.110806768  0.547340411
     0.753326362  0.299592341  0.441937252
     0.661959638  0.786459969  0.501930344
     0.568674057  0.684626155  0.553093750
     0.986553749  0.240335805  0.524859326
     0.289766302  0.034887651  0.404814323
     0.121081111  0.875261896  0.599776540
     0.839410649  0.069337373  0.469332742
     0.069794363  0.618059539  0.590862942
     0.057064202  0.975541553  0.464836807
     0.821892777  0.224392790  0.515265889
     0.708484728  0.015614244  0.572507359
     0.035835314  0.632767346  0.502930761
     0.253408689  0.726086875  0.485288322
     0.626700935  0.709817352  0.425179261
     0.984758303  0.389071720  0.558201233
     0.474573074  0.675666973  0.414080994
     0.215025724  0.995685121  0.481027577
     0.817982963  0.802629783  0.525240199
     0.481384091  0.997976834  0.505213251
     0.033430910  0.822821109  0.438318552
     0.240589282  0.458036745  0.549109230
     0.107800088  0.463489928  0.604783889
     0.633220226  0.946716137  0.501855871
     0.620982506  0.544654458  0.590224097
     0.174416580  0.422650704  0.467021987
     0.687587262  0.450619286  0.454397301
     0.237363179  0.863473890  0.533979451
     0.743872951  0.501074371  0.535672690
     0.853447642  0.963119136  0.538890277
     0.514385648  0.177769642  0.400600049
     0.445396750  0.040802379  0.420271282
     0.508107437  0.814779091  0.592642273
     0.997097347  0.234251258  0.433645623
     0.923548787  0.470219687  0.416057270
     0.704376820  0.024886673  0.428691152
     0.259391665  0.189541484  0.398617806
     0.293826708  0.502258984  0.426351342
     0.884032662  0.324208946  0.391365785
     0.473021718  0.602657021  0.494621001

  ion indices of the primitive-cell ions
   primitive index   ion index
                 1           1
                 2           2
                 3           3
                 4           4
                 5           5
                 6           6
                 7           7
                 8           8
                 9           9
                10          10
                11          11
                12          12
                13          13
                14          14
                15          15
                16          16
                17          17
                18          18
                19          19
                20          20
                21          21
                22          22
                23          23
                24          24
                25          25
                26          26
                27          27
                28          28
                29          29
                30          30
                31          31
                32          32
                33          33
                34          34
                35          35
                36          36
                37          37
                38          38
                39          39
                40          40
                41          41
                42          42
                43          43
                44          44
                45          45
                46          46
                47          47
                48          48
                49          49
                50          50
                51          51
                52          52
                53          53
                54          54
                55          55
                56          56
                57          57
                58          58
                59          59
                60          60
                61          61
                62          62
                63          63
                64          64
                65          65
                66          66
                67          67
                68          68
                69          69
                70          70

----------------------------------------------------------------------------------------


 -----------------------------------------------------------------------------
|                                                                             |
|           W    W    AA    RRRRR   N    N  II  N    N   GGGG   !!!           |
|           W    W   A  A   R    R  NN   N  II  NN   N  G    G  !!!           |
|           W    W  A    A  R    R  N N  N  II  N N  N  G       !!!           |
|           W WW W  AAAAAA  RRRRR   N  N N  II  N  N N  G  GGG   !            |
|           WW  WW  A    A  R   R   N   NN  II  N   NN  G    G                |
|           W    W  A    A  R    R  N    N  II  N    N   GGGG   !!!           |
|                                                                             |
|     The requested file  could not be found or opened for reading            |
|     k-point information. Automatic k-point generation is used as a          |
|     fallback, which may lead to unwanted results.                           |
|                                                                             |
 -----------------------------------------------------------------------------



Automatic generation of k-mesh.
 Grid dimensions derived from KSPACING:
 generate k-points for:    2    2    2

 Generating k-lattice:

  Cartesian coordinates                     Fractional coordinates (reciprocal lattice)
     0.034374292  0.000000000  0.000000000     0.500000000  0.000000000  0.000000000
     0.000000000  0.034374292  0.000000000     0.000000000  0.500000000  0.000000000
     0.000000000  0.000000000  0.019489861     0.000000000  0.000000000  0.500000000

  Length of vectors
     0.034374292  0.034374292  0.019489861

  Shift w.r.t. Gamma in fractional coordinates (k-lattice)
     0.000000000  0.000000000  0.000000000

 
 Subroutine IBZKPT returns following result:
 ===========================================
 
 Found      8 irreducible k-points:
 
 Following reciprocal coordinates:
            Coordinates               Weight
  0.000000  0.000000  0.000000      1.000000
  0.500000  0.000000  0.000000      1.000000
  0.000000  0.500000  0.000000      1.000000
  0.500000  0.500000  0.000000      1.000000
  0.000000  0.000000  0.500000      1.000000
  0.500000  0.000000  0.500000      1.000000
  0.000000  0.500000  0.500000      1.000000
  0.500000  0.500000  0.500000      1.000000
 
 Following cartesian coordinates:
            Coordinates               Weight
  0.000000  0.000000  0.000000      1.000000
  0.034374  0.000000  0.000000      1.000000
  0.000000  0.034374  0.000000      1.000000
  0.034374  0.034374  0.000000      1.000000
  0.000000  0.000000  0.019490      1.000000
  0.034374  0.000000  0.019490      1.000000
  0.000000  0.034374  0.019490      1.000000
  0.034374  0.034374  0.019490      1.000000
 


--------------------------------------------------------------------------------------------------------




 Dimension of arrays:
   k-points           NKPTS =      8   k-points in BZ     NKDIM =      8   number of bands    NBANDS=    168
   number of dos      NEDOS =   2000   number of ions     NIONS =     70
   non local maximal  LDIM  =      4   non local SUM 2l+1 LMDIM =      8
   total plane-waves  NPLWV = ******
   max r-space proj   IRMAX =      1   max aug-charges    IRDMAX= 409057
   dimension x,y,z NGX =   168 NGY =  168 NGZ =  294
   dimension x,y,z NGXF=   336 NGYF=  336 NGZF=  588
   support grid    NGXF=   672 NGYF=  672 NGZF= 1176
   ions per type =               7  63
   NGX,Y,Z   is equivalent  to a cutoff of  19.20, 19.20, 19.05 a.u.
   NGXF,Y,Z  is equivalent  to a cutoff of  38.40, 38.40, 38.10 a.u.

 SYSTEM =  a-Si SPC                                
 POSCAR =   H Si                                   

 Startparameter for this run:
   NWRITE =      2    write-flag & timer
   PREC   = accura    normal or accurate (medium, high low for compatibility)
   ISTART =      1    job   : 0-new  1-cont  2-samecut
   ICHARG =      1    charge: 1-file 2-atom 10-const
   ISPIN  =      1    spin polarized calculation?
   LNONCOLLINEAR =      F non collinear calculations
   LSORBIT =      F    spin-orbit coupling
   INIWAV =      1    electr: 0-lowe 1-rand  2-diag
   LASPH  =      T    aspherical Exc in radial PAW
 Electronic Relaxation 1
   ENCUT  = 1200.0 eV  88.20 Ry    9.39 a.u.  41.09 41.09 72.46*2*pi/ulx,y,z
   ENINI  = 1200.0     initial cutoff
   ENAUG  =  400.0 eV  augmentation charge cutoff
   NELM   =    150;   NELMIN=  2; NELMDL=  0     # of ELM steps 
   EDIFF  = 0.1E-05   stopping-criterion for ELM
   LREAL  =      F    real-space projection
   NLSPLINE    = F    spline interpolate recip. space projectors
   LCOMPAT=      F    compatible to vasp.4.4
   GGA_COMPAT  = T    GGA compatible to vasp.4.4-vasp.4.6
   LMAXPAW     = -100 max onsite density
   LMAXMIX     =    2 max onsite mixed and CHGCAR
   VOSKOWN=      0    Vosko Wilk Nusair interpolation
   ROPT   =    0.00000   0.00000
 Ionic relaxation
   EDIFFG = -.1E-01   stopping-criterion for IOM
   NSW    =      0    number of steps for IOM
   NBLOCK =      1;   KBLOCK =      1    inner block; outer block 
   IBRION =     -1    ionic relax: 0-MD 1-quasi-New 2-CG
   NFREE  =      0    steps in history (QN), initial steepest desc. (CG)
   ISIF   =      2    stress and relaxation
   IWAVPR =     10    prediction:  0-non 1-charg 2-wave 3-comb
   ISYM   =      1    0-nonsym 1-usesym 2-fastsym
   LCORR  =      T    Harris-Foulkes like correction to forces

   POTIM  = 0.5000    time-step for ionic-motion
   TEIN   =    0.0    initial temperature
   TEBEG  =    0.0;   TEEND  =   0.0 temperature during run
   SMASS  =  -3.00    Nose mass-parameter (am)
   estimated Nose-frequenzy (Omega)   =  0.10E-29 period in steps = 0.13E+47 mass=  -0.484E-26a.u.
   SCALEE = 1.0000    scale energy and forces
   NPACO  =    256;   APACO  = 10.0  distance and # of slots for P.C.
   PSTRESS=    0.0 pullay stress

  Mass of Ions in am
   POMASS =   1.00 28.09
  Ionic Valenz
   ZVAL   =   1.00  4.00
  Atomic Wigner-Seitz radii
   RWIGS  =  -1.00 -1.00
  virtual crystal weights 
   VCA    =   1.00  1.00
   NELECT =     259.0000    total number of electrons
   NUPDOWN=      -1.0000    fix difference up-down

 DOS related values:
   EMIN   =  10.00;   EMAX   =-10.00  energy-range for DOS
   EFERMI =   0.00;   METHOD = LEGACY      
   ISMEAR =     0;   SIGMA  =   0.10  broadening in eV -4-tet -1-fermi 0-gaus
   EFERMI_NEDOS =   21; number of points for ismear=-14 and -15

 Electronic relaxation 2 (details)
   IALGO  =     38    algorithm
   LDIAG  =      F    sub-space diagonalisation (order eigenvalues)
   LSUBROT=      F    optimize rotation matrix (better conditioning)
   TURBO    =      0    0=normal 1=particle mesh
   IRESTART =      0    0=no restart 2=restart with 2 vectors
   NREBOOT  =      0    no. of reboots
   NMIN     =      0    reboot dimension
   EREF     =   0.00    reference energy to select bands
   IMIX   =      4    mixing-type and parameters
     AMIX     =   0.40;   BMIX     =  1.00
     AMIX_MAG =   1.60;   BMIX_MAG =  1.00
     AMIN     =   0.10
     WC   =   100.;   INIMIX=   1;  MIXPRE=   1;  MAXMIX= -45

 Intra band minimization:
   WEIMIN = 0.0000     energy-eigenvalue tresh-hold
   EBREAK =  0.15E-08  absolut break condition
   DEPER  =   0.30     relativ break condition  

   TIME   =   0.40     timestep for ELM

  volume/ion in A,a.u.               =      77.54       523.28
  Fermi-wavevector in a.u.,A,eV,Ry     =   0.593786  1.122093  4.797172  0.352582
  Thomas-Fermi vector in A             =   1.643119

 Write flags
   LWAVE        =      F    write WAVECAR
   LDOWNSAMPLE  =      F    k-point downsampling of WAVECAR
   LCHARG       =      F    write CHGCAR
   LVTOT        =      F    write LOCPOT, total local potential
   LVHAR        =      F    write LOCPOT, Hartree potential only
   WRT_POTENTIAL= false  ! write potential to hdf5 file
   LELF         =      F    write electronic localiz. function (ELF)
   LORBIT       =     11    0 simple, 1 ext, 2 COOP (PROOUT), +10 PAW based schemes


 Python interface
   PLUGINS active      =      F    recompile with -DPLUGINS to activate

 Dipole corrections
   LMONO      =      F    monopole corrections only (constant potential shift)
   LDIPOL     =      F    correct potential (dipole corrections)
   IDIPOL     =      0    1-x, 2-y, 3-z, 4-all directions 
   EPSILON    =  1.0000000 bulk dielectric constant
   LVACPOTAV  =      F  vacuum potentials using an averaging scheme for the charge density
   VACPOTFLAT =  0.1000000 required flatness to determine vacuum potential

Coulomb truncation method
  LTRUNCATE          =      F  Coulomb kernel truncation to be used
  IDIMENSIONALITY    =      3  Dimensionality of cutoff (0 molecules / 2 surfaces)
  ISURFACE           =     -1  Direction of surface normal
  LCOARSEN           =      F  Coarsen the charge grid before padding, preferred


 Exchange correlation treatment:
   METAGGA = SCAN    functional components
   XC_C    = 1    coefficients multiplying the functional components
   LIBXC   =     F    Libxc                    
   VOSKOWN =     0    Vosko Wilk Nusair interpolation
   LHFCALC =     F    Hartree Fock is set to
   LHFONE  =     F    Hartree Fock one center treatment
   AEXX    =    0.0000 exact exchange contribution

 Parameters of functionals:
   SCAN:
     P1 =  0.000000E+00
     P2 =  0.000000E+00
     P3 =  0.000000E+00

 Accuracy and mixing parameters for tau-dependent meta-GGA functionals:
   LMAXTAU = 6
   LMIXTAU = T

 Van der Waals corrections
   IVDW    =     0    specifies the selected vdW correction

 Linear response parameters
   LEPSILON=     F    determine dielectric tensor
   LRPA    =     F    only Hartree local field effects (RPA)
   LNABLA  =     F    use nabla operator in PAW spheres
   LVEL    =     F    velocity operator in full k-point grid
   CSHIFT  =0.1000    complex shift for real part using Kramers Kronig
   OMEGAMAX=  -1.0    maximum frequency
   DEG_THRESHOLD= 0.2000000E-02 threshold for treating states as degnerate
   RTIME   =   -0.100 relaxation time in fs
  (WPLASMAI=    0.000 imaginary part of plasma frequency in eV, 0.658/RTIME)
   DFIELD  = 0.0000000 0.0000000 0.0000000 field for delta impulse in time

  Optional k-point grid parameters
   LKPOINTS_OPT  =     F    use optional k-point grid
   KPOINTS_OPT_MODE=     1    mode for optional k-point grid

 Orbital magnetization related:
   ORBITALMAG=     F  switch on orbital magnetization
   LCHIMAG   =     F  perturbation theory with respect to B field
   DQ        =  0.001000  dq finite difference perturbation B field
   LLRAUG    =     F  two centre corrections for induced B field
   LBONE     =     F  B-component reconstruction in AE one-centre
   LVGVCALC  =     T  calculate vGv susceptibility
   LVGVAPPL  =     F  apply vGv susceptibility instead of pGv for G=0

 Random number generation:
   RANDOM_GENERATOR = DEFAULT
   PCG_SEED         = not used


--------------------------------------------------------------------------------------------------------


 Static calculation
 charge density and potential will be updated during run
 non-spin polarized calculation
 Variant of blocked Davidson
 perform Loewdin sub-space diagonalisation
    ordering is kept fixed
    before iterative eigenvector-optimisation
 modified Broyden-mixing scheme, WC =      100.0
 initial mixing is a Kerker type mixing with AMIX =  0.4000 and BMIX =      1.0000
 Hartree-type preconditioning will be used
 using additional bands           38
 reciprocal scheme for non local part
 use partial core corrections
 calculate Harris-corrections to forces   (improved forces if not selfconsistent)
 use gradient corrections 
 use of overlap-Matrix (Vanderbilt PP)
 Gauss-broadening in eV      SIGMA  =   0.10


--------------------------------------------------------------------------------------------------------


  energy-cutoff  :     1200.00
  volume of cell :     5427.92
      direct lattice vectors                 reciprocal lattice vectors
    14.545754041  0.000000000  0.000000000     0.068748584  0.000000000  0.000000000
     0.000000000 14.545754041  0.000000000     0.000000000  0.068748584  0.000000000
     0.000000000  0.000000000 25.654364000     0.000000000  0.000000000  0.038979723

  length of vectors
    14.545754041 14.545754041 25.654364000     0.068748584  0.068748584  0.038979723



 old parameters found on file WAVECAR:
  energy-cutoff  :     1200.00
  volume of cell :     5427.92
      direct lattice vectors                 reciprocal lattice vectors
    14.545754041  0.000000000  0.000000000     0.068748584  0.000000000  0.000000000
     0.000000000 14.545754041  0.000000000     0.000000000  0.068748584  0.000000000
     0.000000000  0.000000000 25.654364000     0.000000000  0.000000000  0.038979723

  length of vectors


 k-points in units of 2pi/SCALE and weight: read from INCAR                         
   0.00000000  0.00000000  0.00000000       0.125
   0.03437429  0.00000000  0.00000000       0.125
   0.00000000  0.03437429  0.00000000       0.125
   0.03437429  0.03437429  0.00000000       0.125
   0.00000000  0.00000000  0.01948986       0.125
   0.03437429  0.00000000  0.01948986       0.125
   0.00000000  0.03437429  0.01948986       0.125
   0.03437429  0.03437429  0.01948986       0.125

 k-points in reciprocal lattice and weights: read from INCAR                         
   0.00000000  0.00000000  0.00000000       0.125
   0.50000000  0.00000000  0.00000000       0.125
   0.00000000  0.50000000  0.00000000       0.125
   0.50000000  0.50000000  0.00000000       0.125
   0.00000000  0.00000000  0.50000000       0.125
   0.50000000  0.00000000  0.50000000       0.125
   0.00000000  0.50000000  0.50000000       0.125
   0.50000000  0.50000000  0.50000000       0.125

 position of ions in fractional coordinates (direct lattice) 
   0.33351915  0.63718712  0.58502688
   0.68953254  0.56010136  0.34853054
   0.35634035  0.86221424  0.40905449
   0.81120010  0.57819709  0.52913629
   0.83132834  0.75995697  0.57751395
   0.13967617  0.68204306  0.61260331
   0.26387564  0.06285821  0.59546500
   0.14769066  0.27705525  0.43259434
   0.96864516  0.07975168  0.41779849
   0.40306895  0.86495414  0.52977107
   0.53696993  0.45488310  0.48434019
   0.64989370  0.17286729  0.44860783
   0.38339054  0.78953485  0.44718391
   0.66756336  0.30654090  0.58304651
   0.01547369  0.97718023  0.55472120
   0.02438511  0.47567020  0.48348628
   0.39738555  0.39417448  0.46021607
   0.07284593  0.12746986  0.56419967
   0.38815901  0.23911353  0.44162357
   0.37547618  0.36585246  0.55242418
   0.64398193  0.16232979  0.54494087
   0.12724609  0.69465869  0.43535252
   0.91845315  0.72526677  0.46792345
   0.71436503  0.58470175  0.40314379
   0.53767077  0.40604207  0.57123692
   0.81754978  0.36879879  0.56498830
   0.32040561  0.60040700  0.53066511
   0.86967036  0.61577594  0.40398630
   0.48949377  0.12166232  0.56147991
   0.36474675  0.20757982  0.53271948
   0.23142332  0.11080677  0.54734041
   0.75332636  0.29959234  0.44193725
   0.66195964  0.78645997  0.50193034
   0.56867406  0.68462615  0.55309375
   0.98655375  0.24033581  0.52485933
   0.28976630  0.03488765  0.40481432
   0.12108111  0.87526190  0.59977654
   0.83941065  0.06933737  0.46933274
   0.06979436  0.61805954  0.59086294
   0.05706420  0.97554155  0.46483681
   0.82189278  0.22439279  0.51526589
   0.70848473  0.01561424  0.57250736
   0.03583531  0.63276735  0.50293076
   0.25340869  0.72608688  0.48528832
   0.62670094  0.70981735  0.42517926
   0.98475830  0.38907172  0.55820123
   0.47457307  0.67566697  0.41408099
   0.21502572  0.99568512  0.48102758
   0.81798296  0.80262978  0.52524020
   0.48138409  0.99797683  0.50521325
   0.03343091  0.82282111  0.43831855
   0.24058928  0.45803675  0.54910923
   0.10780009  0.46348993  0.60478389
   0.63322023  0.94671614  0.50185587
   0.62098251  0.54465446  0.59022410
   0.17441658  0.42265070  0.46702199
   0.68758726  0.45061929  0.45439730
   0.23736318  0.86347389  0.53397945
   0.74387295  0.50107437  0.53567269
   0.85344764  0.96311914  0.53889028
   0.51438565  0.17776964  0.40060005
   0.44539675  0.04080238  0.42027128
   0.50810744  0.81477909  0.59264227
   0.99709735  0.23425126  0.43364562
   0.92354879  0.47021969  0.41605727
   0.70437682  0.02488667  0.42869115
   0.25939167  0.18954148  0.39861781
   0.29382671  0.50225898  0.42635134
   0.88403266  0.32420895  0.39136578
   0.47302172  0.60265702  0.49462100

 position of ions in cartesian coordinates  (Angst):
   4.85128754  9.26836718 15.00849253
  10.02977072  8.14709655  8.94132942
   5.18323904 12.54155627 10.49403274
  11.79951708  8.41031272 13.57465507
  12.09229760 11.05414711 14.81575315
   2.03169524  9.92083062 15.71594837
   3.83827020  0.91432012 15.27627591
   2.14827203  4.02997745 11.09793266
  14.08967420  1.16004837 10.71835455
   5.86294187 12.58141020 13.59093986
   7.81063258  6.61661766 12.42543954
   9.45319392  2.51448510 11.50874865
   5.57670447 11.48437969 11.47221877
   9.71021247  4.45886850 14.95768740
   0.22507656 14.21382324 14.23101954
   0.35469976  6.91898174 12.40353306
   5.78027246  5.73356510 11.80655068
   1.05959902  1.85414524 14.47418374
   5.64606544  3.47808659 11.32957175
   5.46158422  5.32159988 14.17209089
   9.36720282  2.36120919 13.98011138
   1.85089037 10.10433442 11.16869194
  13.35959359 10.54955206 12.00427842
  10.39097806  8.50492780 10.34239764
   7.82082683  5.90618804 14.65471992
  11.89187805  5.36445654 14.49441541
   4.66054124  8.73337256 13.61387585
  12.65001121  8.95692536 10.36401150
   7.12005601  1.76967014 14.40441000
   5.30551655  3.01940502 13.66657942
   3.36622675  1.61176799 14.04167013
  10.95769997  4.35779650 11.33761913
   9.62870208 11.43965327 12.87670375
   8.27179296  9.95840366 14.18926838
  14.35016818  3.49586551 13.46493221
   4.21486936  0.50746719 10.38525400
   1.76121606 12.73134426 15.38688567
  12.20986084  1.00856438 12.04043299
   1.01521164  8.99014204 15.15821300
   0.83004185 14.18998749 11.92509266
  11.95505018  3.26396233 13.21881867
  10.30544459  0.22712096 14.68731219
   0.52125167  9.20407818 12.90236880
   3.68602046 10.56148110 12.44976325
   9.11583766 10.32482862 10.90770352
  14.32405206  5.65934155 14.32029761
   6.90302321  9.82808560 10.62298455
   3.12771129 14.48299087 12.34045655
  11.89817899 11.67485541 13.47470325
   7.00209458 14.51632557 12.96092465
   0.48627779 11.96855347 11.24478368
   3.49955252  6.66248984 14.08704805
   1.56803357  6.74181050 15.51534603
   9.21066566 13.77070008 12.87479319
   9.03265879  7.92240978 15.14182382
   2.53702067  6.14777318 11.98115206
  10.00147519  6.55459730 11.65727377
   3.45262642 12.55987883 13.69890321
  10.82019299  7.28850456 13.74234217
  12.41403949 14.00929407 13.82488731
   7.48212712  2.58579349 10.27713948
   6.47863158  0.59350137 10.78179246
   7.39080580 11.85157626 15.20386060
  14.50353277  3.40736118 11.12490266
  13.43371350  6.83969991 10.67368466
  10.24569198  0.36199542 10.99779886
   3.77304736  2.75702380 10.22628630
   4.27393102  7.30573564 10.93777251
  12.85892167  4.71586358 10.04024030
   6.88045757  8.76610080 12.68918720



--------------------------------------------------------------------------------------------------------


 k-point     1 :   0.0000 0.0000 0.0000  plane waves:  512121
 k-point     2 :   0.5000 0.0000 0.0000  plane waves:  512438
 k-point     3 :   0.0000 0.5000 0.0000  plane waves:  512438
 k-point     4 :   0.5000 0.5000 0.0000  plane waves:  512436
 k-point     5 :   0.0000 0.0000 0.5000  plane waves:  512392
 k-point     6 :   0.5000 0.0000 0.5000  plane waves:  512316
 k-point     7 :   0.0000 0.5000 0.5000  plane waves:  512316
 k-point     8 :   0.5000 0.5000 0.5000  plane waves:  512120

 maximum and minimum number of plane-waves per node :     32102    31940

 maximum number of plane-waves:    512438
 maximum index in each direction: 
   IXMAX=   41   IYMAX=   41   IZMAX=   72
   IXMIN=  -41   IYMIN=  -41   IZMIN=  -72


 parallel 3D FFT for wavefunctions:
    minimum data exchange during FFTs selected (reduces bandwidth)
 parallel 3D FFT for charge:
    minimum data exchange during FFTs selected (reduces bandwidth)


 total amount of memory used by VASP MPI-rank0   362216. kBytes
=======================================================================

   base                                    :      30000. kBytes
   nonl-proj                               :      68728. kBytes
   fftplans                                :     100022. kBytes
   grid                                    :      77177. kBytes
   one-center                              :         15. kBytes
   wavefun                                 :      86274. kBytes

     INWAV:  cpu time     26.1430: real time     26.1587
 Broyden mixing: mesh for mixing (old mesh)
   NGX = 83   NGY = 83   NGZ =145
  (NGX  =336   NGY  =336   NGZ  =588)
  gives a total of 998905 points

 initial charge density was supplied:
 number of electron     258.9999999 magnetization 
 keeping initial charge density in first step


--------------------------------------------------------------------------------------------------------


 Maximum index for augmentation-charges        11259 (set IRDMAX)


--------------------------------------------------------------------------------------------------------


 First call to EWALD:  gamma=   0.101
 Maximum number of real-space cells   3x   3x   2
 Maximum number of reciprocal cells   2x   2x   4

    FEWALD:  cpu time      0.0113: real time      0.0116


--------------------------------------- Ionic step        1  -------------------------------------------




--------------------------------------- Iteration      1(   1)  ---------------------------------------


    POTLOK:  cpu time      1.9682: real time      1.9702
    SETDIJ:  cpu time      1.3946: real time      1.3954
    EDDIAG:  cpu time     50.9169: real time     50.9435
     EDDAV:  cpu time    223.3322: real time    223.4518
       DOS:  cpu time      0.0106: real time      0.0107
    CHARGE:  cpu time     28.8473: real time     28.8731
    MIXING:  cpu time      0.0470: real time      0.0476
    --------------------------------------------
      LOOP:  cpu time    306.5170: real time    306.6925

 eigenvalue-minimisations  :  2688
 total energy-change (2. order) :-0.6543872E+03  (-0.7394761E+00)
 number of electron     258.9999999 magnetization 
 augmentation part      -14.2590778 magnetization 

 Broyden mixing:
  rms(total) = 0.96240E+00    rms(broyden)= 0.24272E+02
  rms(prec ) = 0.99414E+00
  weight for this iteration     100.00
  WARNING: grid for Broyden might be to small

 Free energy of the ion-electron system (eV)
  ---------------------------------------------------
  alpha Z        PSCENC =        26.11258127
  Ewald energy   TEWEN  =     30505.35119174
  -Hartree energ DENC   =    -36158.28320564
  -exchange      EXHF   =         0.00000000
  -V(xc)+E(xc)   XCENC  =      -292.85559168
  PAW double counting   =     23107.02337879   -22478.88959396
  entropy T*S    EENTRO =        -0.15421791
  eigenvalues    EBANDS =     -1943.32096972
  atomic energy  EATOM  =      6580.62918853
  Solvation  Ediel_sol  =         0.00000000
  ---------------------------------------------------
  free energy    TOTEN  =      -654.38723858 eV

  energy without entropy =     -654.23302068  energy(sigma->0) =     -654.31012963


--------------------------------------------------------------------------------------------------------




--------------------------------------- Iteration      1(   2)  ---------------------------------------


    POTLOK:  cpu time      1.9611: real time      1.9626
    SETDIJ:  cpu time      1.3896: real time      1.3902
    EDDIAG:  cpu time     50.8902: real time     50.9167
     EDDAV:  cpu time    226.3049: real time    226.4314
       DOS:  cpu time      0.0025: real time      0.0029
    CHARGE:  cpu time     28.7435: real time     28.7682
    MIXING:  cpu time      0.0398: real time      0.0402
    --------------------------------------------
      LOOP:  cpu time    309.3316: real time    309.5121

 eigenvalue-minimisations  :  2752
 total energy-change (2. order) : 0.4567897E+02  (-0.6971739E+00)
 number of electron     258.9999999 magnetization 
 augmentation part      -14.2144278 magnetization 

 Broyden mixing:
  rms(total) = 0.65872E+00    rms(broyden)= 0.13955E+02
  rms(prec ) = 0.67488E+00
  weight for this iteration     100.00
  WARNING: grid for Broyden might be to small

 eigenvalues of (default mixing * dielectric matrix)
  average eigenvalue GAMMA=   0.6350
  0.6350

 Free energy of the ion-electron system (eV)
  ---------------------------------------------------
  alpha Z        PSCENC =        26.11258127
  Ewald energy   TEWEN  =     30505.35119174
  -Hartree energ DENC   =    -36148.05441318
  -exchange      EXHF   =         0.00000000
  -V(xc)+E(xc)   XCENC  =      -286.62692955
  PAW double counting   =     27565.86343329   -26937.56827565
  entropy T*S    EENTRO =        -0.14478942
  eigenvalues    EBANDS =     -1914.27025413
  atomic energy  EATOM  =      6580.62918853
  Solvation  Ediel_sol  =         0.00000000
  ---------------------------------------------------
  free energy    TOTEN  =      -608.70826710 eV

  energy without entropy =     -608.56347769  energy(sigma->0) =     -608.63587240


--------------------------------------------------------------------------------------------------------




--------------------------------------- Iteration      1(   3)  ---------------------------------------


    POTLOK:  cpu time      1.9317: real time      1.9535
    SETDIJ:  cpu time      1.3854: real time      1.3871
    EDDIAG:  cpu time     50.8556: real time     50.8816
     EDDAV:  cpu time    223.1411: real time    223.2664
       DOS:  cpu time      0.0028: real time      0.0028
    CHARGE:  cpu time     28.7075: real time     28.7352
    MIXING:  cpu time      0.0403: real time      0.0403
    --------------------------------------------
      LOOP:  cpu time    306.0644: real time    306.2670

 eigenvalue-minimisations  :  2688
 total energy-change (2. order) :-0.2263851E+01  (-0.5835668E+00)
 number of electron     258.9999999 magnetization 
 augmentation part      -14.1676542 magnetization 

 Broyden mixing:
  rms(total) = 0.28609E+00    rms(broyden)= 0.19275E+02
  rms(prec ) = 0.34832E+00
  weight for this iteration     100.00
  WARNING: grid for Broyden might be to small

 eigenvalues of (default mixing * dielectric matrix)
  average eigenvalue GAMMA=   0.7582
  0.8875  0.6290

 Free energy of the ion-electron system (eV)
  ---------------------------------------------------
  alpha Z        PSCENC =        26.11258127
  Ewald energy   TEWEN  =     30505.35119174
  -Hartree energ DENC   =    -36149.50288932
  -exchange      EXHF   =         0.00000000
  -V(xc)+E(xc)   XCENC  =      -288.70542903
  PAW double counting   =     32683.61009630   -32055.42064703
  entropy T*S    EENTRO =        -0.15462623
  eigenvalues    EBANDS =     -1912.89158421
  atomic energy  EATOM  =      6580.62918853
  Solvation  Ediel_sol  =         0.00000000
  ---------------------------------------------------
  free energy    TOTEN  =      -610.97211799 eV

  energy without entropy =     -610.81749176  energy(sigma->0) =     -610.89480488


--------------------------------------------------------------------------------------------------------




--------------------------------------- Iteration      1(   4)  ---------------------------------------


    POTLOK:  cpu time      1.9305: real time      1.9603
    SETDIJ:  cpu time      1.3847: real time      1.3852
    EDDIAG:  cpu time     50.8669: real time     50.8930
     EDDAV:  cpu time    226.0054: real time    226.1261
       DOS:  cpu time      0.0047: real time      0.0047
    CHARGE:  cpu time     28.7196: real time     28.7481
    MIXING:  cpu time      0.0386: real time      0.0386
    --------------------------------------------
      LOOP:  cpu time    308.9504: real time    309.1560

 eigenvalue-minimisations  :  2752
 total energy-change (2. order) : 0.2607911E+00  (-0.6304520E-01)
 number of electron     258.9999999 magnetization 
 augmentation part      -14.1614647 magnetization 

 Broyden mixing:
  rms(total) = 0.49673E-01    rms(broyden)= 0.15386E+01
  rms(prec ) = 0.59404E-01
  weight for this iteration     100.00
  WARNING: grid for Broyden might be to small

 eigenvalues of (default mixing * dielectric matrix)
  average eigenvalue GAMMA=   1.0972
  1.9738  0.6938  0.6240

 Free energy of the ion-electron system (eV)
  ---------------------------------------------------
  alpha Z        PSCENC =        26.11258127
  Ewald energy   TEWEN  =     30505.35119174
  -Hartree energ DENC   =    -36150.65409961
  -exchange      EXHF   =         0.00000000
  -V(xc)+E(xc)   XCENC  =      -289.08446415
  PAW double counting   =     36997.58694276   -36369.44005749
  entropy T*S    EENTRO =        -0.14647681
  eigenvalues    EBANDS =     -1911.06613309
  atomic energy  EATOM  =      6580.62918853
  Solvation  Ediel_sol  =         0.00000000
  ---------------------------------------------------
  free energy    TOTEN  =      -610.71132685 eV

  energy without entropy =     -610.56485003  energy(sigma->0) =     -610.63808844


--------------------------------------------------------------------------------------------------------




--------------------------------------- Iteration      1(   5)  ---------------------------------------


    POTLOK:  cpu time      1.9456: real time      1.9622
    SETDIJ:  cpu time      1.3853: real time      1.3860
    EDDIAG:  cpu time     50.8652: real time     50.8919
     EDDAV:  cpu time    249.9343: real time    250.0763
       DOS:  cpu time      0.0036: real time      0.0036
    CHARGE:  cpu time     28.7273: real time     28.7540
    MIXING:  cpu time      0.0392: real time      0.0392
    --------------------------------------------
      LOOP:  cpu time    332.9005: real time    333.1131

 eigenvalue-minimisations  :  3272
 total energy-change (2. order) :-0.2541097E-01  (-0.7458566E-02)
 number of electron     258.9999999 magnetization 
 augmentation part      -14.1634033 magnetization 

 Broyden mixing:
  rms(total) = 0.34953E-01    rms(broyden)= 0.31520E+00
  rms(prec ) = 0.42565E-01
  weight for this iteration     100.00
  WARNING: grid for Broyden might be to small

 eigenvalues of (default mixing * dielectric matrix)
  average eigenvalue GAMMA=   1.1516
  2.4934  0.8493  0.6318  0.6318

 Free energy of the ion-electron system (eV)
  ---------------------------------------------------
  alpha Z        PSCENC =        26.11258127
  Ewald energy   TEWEN  =     30505.35119174
  -Hartree energ DENC   =    -36150.74069001
  -exchange      EXHF   =         0.00000000
  -V(xc)+E(xc)   XCENC  =      -289.86529817
  PAW double counting   =     36606.54208136   -35978.37219092
  entropy T*S    EENTRO =        -0.15300799
  eigenvalues    EBANDS =     -1910.24059361
  atomic energy  EATOM  =      6580.62918853
  Solvation  Ediel_sol  =         0.00000000
  ---------------------------------------------------
  free energy    TOTEN  =      -610.73673781 eV

  energy without entropy =     -610.58372982  energy(sigma->0) =     -610.66023382


--------------------------------------------------------------------------------------------------------




--------------------------------------- Iteration      1(   6)  ---------------------------------------


    POTLOK:  cpu time      1.9457: real time      1.9558
    SETDIJ:  cpu time      1.4215: real time      1.4222
    EDDIAG:  cpu time     50.8972: real time     50.9233
     EDDAV:  cpu time    237.9537: real time    238.0911
       DOS:  cpu time      0.0035: real time      0.0034
    CHARGE:  cpu time     28.7217: real time     28.7490
    MIXING:  cpu time      0.0389: real time      0.0389
    --------------------------------------------
      LOOP:  cpu time    320.9823: real time    321.1837

 eigenvalue-minimisations  :  3008
 total energy-change (2. order) :-0.1454645E-02  (-0.1949342E-02)
 number of electron     258.9999999 magnetization 
 augmentation part      -14.1630747 magnetization 

 Broyden mixing:
  rms(total) = 0.21674E-01    rms(broyden)= 0.20490E+00
  rms(prec ) = 0.23273E-01
  weight for this iteration     100.00
  WARNING: grid for Broyden might be to small

 eigenvalues of (default mixing * dielectric matrix)
  average eigenvalue GAMMA=   1.0655
  2.5706  0.9234  0.6512  0.5912  0.5912

 Free energy of the ion-electron system (eV)
  ---------------------------------------------------
  alpha Z        PSCENC =        26.11258127
  Ewald energy   TEWEN  =     30505.35119174
  -Hartree energ DENC   =    -36150.74100377
  -exchange      EXHF   =         0.00000000
  -V(xc)+E(xc)   XCENC  =      -290.02395366
  PAW double counting   =     36505.28496735   -35877.10529640
  entropy T*S    EENTRO =        -0.14948429
  eigenvalues    EBANDS =     -1910.09638323
  atomic energy  EATOM  =      6580.62918853
  Solvation  Ediel_sol  =         0.00000000
  ---------------------------------------------------
  free energy    TOTEN  =      -610.73819246 eV

  energy without entropy =     -610.58870817  energy(sigma->0) =     -610.66345032


--------------------------------------------------------------------------------------------------------




--------------------------------------- Iteration      1(   7)  ---------------------------------------


    POTLOK:  cpu time      1.9363: real time      1.9591
    SETDIJ:  cpu time      1.3888: real time      1.3897
    EDDIAG:  cpu time     50.8896: real time     50.9165
     EDDAV:  cpu time    229.8150: real time    229.9486
       DOS:  cpu time      0.0029: real time      0.0029
    CHARGE:  cpu time     28.7404: real time     28.7642
    MIXING:  cpu time      0.0399: real time      0.0399
    --------------------------------------------
      LOOP:  cpu time    312.8130: real time    313.0209

 eigenvalue-minimisations  :  2832
 total energy-change (2. order) :-0.1050835E-02  (-0.7387824E-03)
 number of electron     258.9999999 magnetization 
 augmentation part      -14.1612341 magnetization 

 Broyden mixing:
  rms(total) = 0.91690E-02    rms(broyden)= 0.93667E-01
  rms(prec ) = 0.97200E-02
  weight for this iteration     100.00
  WARNING: grid for Broyden might be to small

 eigenvalues of (default mixing * dielectric matrix)
  average eigenvalue GAMMA=   1.0590
  2.5688  1.2356  0.8087  0.6357  0.6357  0.4695

 Free energy of the ion-electron system (eV)
  ---------------------------------------------------
  alpha Z        PSCENC =        26.11258127
  Ewald energy   TEWEN  =     30505.35119174
  -Hartree energ DENC   =    -36150.75665498
  -exchange      EXHF   =         0.00000000
  -V(xc)+E(xc)   XCENC  =      -289.89743146
  PAW double counting   =     36495.59172532   -35867.40112189
  entropy T*S    EENTRO =        -0.15010990
  eigenvalues    EBANDS =     -1910.21861193
  atomic energy  EATOM  =      6580.62918853
  Solvation  Ediel_sol  =         0.00000000
  ---------------------------------------------------
  free energy    TOTEN  =      -610.73924329 eV

  energy without entropy =     -610.58913339  energy(sigma->0) =     -610.66418834


--------------------------------------------------------------------------------------------------------




--------------------------------------- Iteration      1(   8)  ---------------------------------------


    POTLOK:  cpu time      1.9283: real time      1.9565
    SETDIJ:  cpu time      1.3972: real time      1.3979
    EDDIAG:  cpu time     50.9123: real time     50.9392
     EDDAV:  cpu time    232.1066: real time    232.2422
       DOS:  cpu time      0.0026: real time      0.0026
    CHARGE:  cpu time     28.7426: real time     28.7657
    MIXING:  cpu time      0.0412: real time      0.0412
    --------------------------------------------
      LOOP:  cpu time    315.1308: real time    315.3453

 eigenvalue-minimisations  :  2880
 total energy-change (2. order) :-0.5801825E-03  (-0.1865749E-03)
 number of electron     258.9999999 magnetization 
 augmentation part      -14.1605623 magnetization 

 Broyden mixing:
  rms(total) = 0.26174E-02    rms(broyden)= 0.82393E-01
  rms(prec ) = 0.32408E-02
  weight for this iteration     100.00
  WARNING: grid for Broyden might be to small

 eigenvalues of (default mixing * dielectric matrix)
  average eigenvalue GAMMA=   1.1463
  2.5672  1.9551  0.9760  0.7780  0.4710  0.6493  0.6278

 Free energy of the ion-electron system (eV)
  ---------------------------------------------------
  alpha Z        PSCENC =        26.11258127
  Ewald energy   TEWEN  =     30505.35119174
  -Hartree energ DENC   =    -36150.56729108
  -exchange      EXHF   =         0.00000000
  -V(xc)+E(xc)   XCENC  =      -289.82898730
  PAW double counting   =     36531.86041181   -35903.66169568
  entropy T*S    EENTRO =        -0.15042291
  eigenvalues    EBANDS =     -1910.48479986
  atomic energy  EATOM  =      6580.62918853
  Solvation  Ediel_sol  =         0.00000000
  ---------------------------------------------------
  free energy    TOTEN  =      -610.73982348 eV

  energy without entropy =     -610.58940056  energy(sigma->0) =     -610.66461202


--------------------------------------------------------------------------------------------------------




--------------------------------------- Iteration      1(   9)  ---------------------------------------


    POTLOK:  cpu time      1.9361: real time      1.9631
    SETDIJ:  cpu time      1.3864: real time      1.3876
    EDDIAG:  cpu time     50.8979: real time     50.9247
     EDDAV:  cpu time    235.3431: real time    235.4758
       DOS:  cpu time      0.0033: real time      0.0033
    CHARGE:  cpu time     28.7317: real time     28.7572
    MIXING:  cpu time      0.0414: real time      0.0414
    --------------------------------------------
      LOOP:  cpu time    318.3401: real time    318.5533

 eigenvalue-minimisations  :  2952
 total energy-change (2. order) : 0.1501057E-04  (-0.3830493E-04)
 number of electron     258.9999999 magnetization 
 augmentation part      -14.1607729 magnetization 

 Broyden mixing:
  rms(total) = 0.17002E-02    rms(broyden)= 0.23976E-01
  rms(prec ) = 0.20165E-02
  weight for this iteration     100.00
  WARNING: grid for Broyden might be to small

 eigenvalues of (default mixing * dielectric matrix)
  average eigenvalue GAMMA=   1.2658
  3.1049  2.6001  1.0785  0.8462  0.7655  0.4718  0.6405  0.6191

 Free energy of the ion-electron system (eV)
  ---------------------------------------------------
  alpha Z        PSCENC =        26.11258127
  Ewald energy   TEWEN  =     30505.35119174
  -Hartree energ DENC   =    -36150.40296316
  -exchange      EXHF   =         0.00000000
  -V(xc)+E(xc)   XCENC  =      -289.85569232
  PAW double counting   =     36535.04170641   -35906.84184753
  entropy T*S    EENTRO =        -0.15020506
  eigenvalues    EBANDS =     -1910.62376834
  atomic energy  EATOM  =      6580.62918853
  Solvation  Ediel_sol  =         0.00000000
  ---------------------------------------------------
  free energy    TOTEN  =      -610.73980847 eV

  energy without entropy =     -610.58960340  energy(sigma->0) =     -610.66470593


--------------------------------------------------------------------------------------------------------




--------------------------------------- Iteration      1(  10)  ---------------------------------------


    POTLOK:  cpu time      1.9312: real time      1.9559
    SETDIJ:  cpu time      1.3926: real time      1.3932
    EDDIAG:  cpu time     50.8955: real time     50.9239
     EDDAV:  cpu time    232.6770: real time    232.8135
       DOS:  cpu time      0.0026: real time      0.0027
    CHARGE:  cpu time     28.7340: real time     28.7610
    MIXING:  cpu time      0.0424: real time      0.0424
    --------------------------------------------
      LOOP:  cpu time    315.6751: real time    315.8924

 eigenvalue-minimisations  :  2888
 total energy-change (2. order) :-0.2825847E-04  (-0.2309203E-04)
 number of electron     258.9999999 magnetization 
 augmentation part      -14.1608547 magnetization 

 Broyden mixing:
  rms(total) = 0.94969E-03    rms(broyden)= 0.19289E-01
  rms(prec ) = 0.12099E-02
  weight for this iteration     100.00
  WARNING: grid for Broyden might be to small

 eigenvalues of (default mixing * dielectric matrix)
  average eigenvalue GAMMA=   1.2819
  3.6100  2.5872  1.2453  0.9058  0.4678  0.7414  0.7414  0.6189  0.6189

 Free energy of the ion-electron system (eV)
  ---------------------------------------------------
  alpha Z        PSCENC =        26.11258127
  Ewald energy   TEWEN  =     30505.35119174
  -Hartree energ DENC   =    -36150.19293176
  -exchange      EXHF   =         0.00000000
  -V(xc)+E(xc)   XCENC  =      -289.86623668
  PAW double counting   =     36531.96809794   -35903.76711511
  entropy T*S    EENTRO =        -0.15027164
  eigenvalues    EBANDS =     -1910.82434101
  atomic energy  EATOM  =      6580.62918853
  Solvation  Ediel_sol  =         0.00000000
  ---------------------------------------------------
  free energy    TOTEN  =      -610.73983672 eV

  energy without entropy =     -610.58956508  energy(sigma->0) =     -610.66470090


--------------------------------------------------------------------------------------------------------




--------------------------------------- Iteration      1(  11)  ---------------------------------------


    POTLOK:  cpu time      1.9530: real time      1.9542
    SETDIJ:  cpu time      1.3963: real time      1.3971
    EDDIAG:  cpu time     50.8847: real time     50.9110
     EDDAV:  cpu time    229.6148: real time    229.7469
       DOS:  cpu time      0.0041: real time      0.0041
    CHARGE:  cpu time     28.7405: real time     28.7647
    MIXING:  cpu time      0.0426: real time      0.0426
    --------------------------------------------
      LOOP:  cpu time    312.6359: real time    312.8206

 eigenvalue-minimisations  :  2824
 total energy-change (2. order) :-0.7063653E-04  (-0.1556047E-04)
 number of electron     258.9999999 magnetization 
 augmentation part      -14.1609320 magnetization 

 Broyden mixing:
  rms(total) = 0.48316E-03    rms(broyden)= 0.14859E-01
  rms(prec ) = 0.71184E-03
  weight for this iteration     100.00
  WARNING: grid for Broyden might be to small

 eigenvalues of (default mixing * dielectric matrix)
  average eigenvalue GAMMA=   1.4961
  5.3417  2.5901  2.1116  1.0766  0.8554  0.7147  0.4659  0.6467  0.6101  0.5481

 Free energy of the ion-electron system (eV)
  ---------------------------------------------------
  alpha Z        PSCENC =        26.11258127
  Ewald energy   TEWEN  =     30505.35119174
  -Hartree energ DENC   =    -36149.98786440
  -exchange      EXHF   =         0.00000000
  -V(xc)+E(xc)   XCENC  =      -289.87355373
  PAW double counting   =     36529.20480250   -35901.00318263
  entropy T*S    EENTRO =        -0.15025795
  eigenvalues    EBANDS =     -1911.02281269
  atomic energy  EATOM  =      6580.62918853
  Solvation  Ediel_sol  =         0.00000000
  ---------------------------------------------------
  free energy    TOTEN  =      -610.73990736 eV

  energy without entropy =     -610.58964941  energy(sigma->0) =     -610.66477839


--------------------------------------------------------------------------------------------------------




--------------------------------------- Iteration      1(  12)  ---------------------------------------


    POTLOK:  cpu time      1.9381: real time      1.9568
    SETDIJ:  cpu time      1.3918: real time      1.3924
    EDDIAG:  cpu time     50.8724: real time     50.8990
     EDDAV:  cpu time    229.1804: real time    229.3109
       DOS:  cpu time      0.0122: real time      0.0125
    CHARGE:  cpu time     28.7640: real time     28.7880
    MIXING:  cpu time      0.0591: real time      0.0597
    --------------------------------------------
      LOOP:  cpu time    312.2183: real time    312.4198

 eigenvalue-minimisations  :  2816
 total energy-change (2. order) :-0.1079310E-03  (-0.1870250E-04)
 number of electron     258.9999999 magnetization 
 augmentation part      -14.1609760 magnetization 

 Broyden mixing:
  rms(total) = 0.27877E-03    rms(broyden)= 0.12072E-01
  rms(prec ) = 0.47061E-03
  weight for this iteration     100.00
  WARNING: grid for Broyden might be to small

 eigenvalues of (default mixing * dielectric matrix)
  average eigenvalue GAMMA=   1.7412
  7.9249  2.6096  2.6096  1.0961  1.0961  0.8536  0.4682  0.7031  0.6246  0.6246
  0.5431

 Free energy of the ion-electron system (eV)
  ---------------------------------------------------
  alpha Z        PSCENC =        26.11258127
  Ewald energy   TEWEN  =     30505.35119174
  -Hartree energ DENC   =    -36149.80046097
  -exchange      EXHF   =         0.00000000
  -V(xc)+E(xc)   XCENC  =      -289.87850631
  PAW double counting   =     36529.71215765   -35901.51055298
  entropy T*S    EENTRO =        -0.15027010
  eigenvalues    EBANDS =     -1911.20534411
  atomic energy  EATOM  =      6580.62918853
  Solvation  Ediel_sol  =         0.00000000
  ---------------------------------------------------
  free energy    TOTEN  =      -610.74001529 eV

  energy without entropy =     -610.58974519  energy(sigma->0) =     -610.66488024


--------------------------------------------------------------------------------------------------------




--------------------------------------- Iteration      1(  13)  ---------------------------------------


    POTLOK:  cpu time      1.9411: real time      1.9585
    SETDIJ:  cpu time      1.3940: real time      1.3948
    EDDIAG:  cpu time     50.8907: real time     50.9166
     EDDAV:  cpu time    229.4033: real time    229.5313
       DOS:  cpu time      0.0129: real time      0.0132
    CHARGE:  cpu time     28.7417: real time     28.7685
    MIXING:  cpu time      0.0586: real time      0.0588
    --------------------------------------------
      LOOP:  cpu time    312.4423: real time    312.6417

 eigenvalue-minimisations  :  2816
 total energy-change (2. order) :-0.1260244E-03  (-0.2014282E-04)
 number of electron     258.9999999 magnetization 
 augmentation part      -14.1610193 magnetization 

 Broyden mixing:
  rms(total) = 0.17972E-03    rms(broyden)= 0.10151E-01
  rms(prec ) = 0.33467E-03
  weight for this iteration     100.00
  WARNING: grid for Broyden might be to small

 eigenvalues of (default mixing * dielectric matrix)
  average eigenvalue GAMMA=   1.7892
  9.0729  2.6979  2.6979  1.3000  0.9769  0.8800  0.8800  0.4679  0.6800  0.6298
  0.6298  0.5571

 Free energy of the ion-electron system (eV)
  ---------------------------------------------------
  alpha Z        PSCENC =        26.11258127
  Ewald energy   TEWEN  =     30505.35119174
  -Hartree energ DENC   =    -36149.63897789
  -exchange      EXHF   =         0.00000000
  -V(xc)+E(xc)   XCENC  =      -289.88356200
  PAW double counting   =     36529.70798411   -35901.50668708
  entropy T*S    EENTRO =        -0.15027242
  eigenvalues    EBANDS =     -1911.36158757
  atomic energy  EATOM  =      6580.62918853
  Solvation  Ediel_sol  =         0.00000000
  ---------------------------------------------------
  free energy    TOTEN  =      -610.74014132 eV

  energy without entropy =     -610.58986890  energy(sigma->0) =     -610.66500511


--------------------------------------------------------------------------------------------------------




--------------------------------------- Iteration      1(  14)  ---------------------------------------


    POTLOK:  cpu time      1.9270: real time      1.9604
    SETDIJ:  cpu time      1.4042: real time      1.4055
    EDDIAG:  cpu time     50.9033: real time     50.9317
     EDDAV:  cpu time    230.0578: real time    230.1867
       DOS:  cpu time      0.0029: real time      0.0029
    CHARGE:  cpu time     28.7557: real time     28.7807
    MIXING:  cpu time      0.0456: real time      0.0456
    --------------------------------------------
      LOOP:  cpu time    313.0959: real time    313.3131

 eigenvalue-minimisations  :  2832
 total energy-change (2. order) :-0.1149215E-03  (-0.2084326E-04)
 number of electron     258.9999999 magnetization 
 augmentation part      -14.1610500 magnetization 

 Broyden mixing:
  rms(total) = 0.12693E-03    rms(broyden)= 0.72206E-02
  rms(prec ) = 0.23039E-03
  weight for this iteration     100.00
  WARNING: grid for Broyden might be to small

 eigenvalues of (default mixing * dielectric matrix)
  average eigenvalue GAMMA=   1.8153
  9.7123  2.7797  2.7797  1.7127  1.1490  0.9006  0.9006  0.4676  0.7280  0.6381
  0.6381  0.6209  0.5720

 Free energy of the ion-electron system (eV)
  ---------------------------------------------------
  alpha Z        PSCENC =        26.11258127
  Ewald energy   TEWEN  =     30505.35119174
  -Hartree energ DENC   =    -36149.48319332
  -exchange      EXHF   =         0.00000000
  -V(xc)+E(xc)   XCENC  =      -289.88650559
  PAW double counting   =     36529.71426690   -35901.51325701
  entropy T*S    EENTRO =        -0.15026830
  eigenvalues    EBANDS =     -1911.51426047
  atomic energy  EATOM  =      6580.62918853
  Solvation  Ediel_sol  =         0.00000000
  ---------------------------------------------------
  free energy    TOTEN  =      -610.74025624 eV

  energy without entropy =     -610.58998794  energy(sigma->0) =     -610.66512209


--------------------------------------------------------------------------------------------------------




--------------------------------------- Iteration      1(  15)  ---------------------------------------


    POTLOK:  cpu time      1.9303: real time      1.9547
    SETDIJ:  cpu time      1.3911: real time      1.3915
    EDDIAG:  cpu time     50.9151: real time     50.9420
     EDDAV:  cpu time    229.2704: real time    229.4011
       DOS:  cpu time      0.0067: real time      0.0067
    CHARGE:  cpu time     28.7313: real time     28.7564
    MIXING:  cpu time      0.0444: real time      0.0453
    --------------------------------------------
      LOOP:  cpu time    312.2894: real time    312.4977

 eigenvalue-minimisations  :  2816
 total energy-change (2. order) :-0.7563539E-04  (-0.1415364E-04)
 number of electron     258.9999999 magnetization 
 augmentation part      -14.1610717 magnetization 

 Broyden mixing:
  rms(total) = 0.91676E-04    rms(broyden)= 0.48190E-02
  rms(prec ) = 0.15344E-03
  weight for this iteration     100.00
  WARNING: grid for Broyden might be to small

 eigenvalues of (default mixing * dielectric matrix)
  average eigenvalue GAMMA=   1.7860
  9.8858  2.9240  2.7408  1.8870  1.2062  1.0961  0.7865  0.7865  0.7830  0.4675
  0.6227  0.6227  0.6206  0.5747

 Free energy of the ion-electron system (eV)
  ---------------------------------------------------
  alpha Z        PSCENC =        26.11258127
  Ewald energy   TEWEN  =     30505.35119174
  -Hartree energ DENC   =    -36149.36235043
  -exchange      EXHF   =         0.00000000
  -V(xc)+E(xc)   XCENC  =      -289.88795875
  PAW double counting   =     36529.86394645   -35901.66308846
  entropy T*S    EENTRO =        -0.15027503
  eigenvalues    EBANDS =     -1911.63356719
  atomic energy  EATOM  =      6580.62918853
  Solvation  Ediel_sol  =         0.00000000
  ---------------------------------------------------
  free energy    TOTEN  =      -610.74033187 eV

  energy without entropy =     -610.59005684  energy(sigma->0) =     -610.66519436


--------------------------------------------------------------------------------------------------------




--------------------------------------- Iteration      1(  16)  ---------------------------------------


    POTLOK:  cpu time      1.9543: real time      1.9557
    SETDIJ:  cpu time      1.3928: real time      1.3936
    EDDIAG:  cpu time     50.9088: real time     50.9353
     EDDAV:  cpu time    229.9991: real time    230.1245
       DOS:  cpu time      0.0036: real time      0.0036
    CHARGE:  cpu time     28.7446: real time     28.7699
    MIXING:  cpu time      0.0466: real time      0.0466
    --------------------------------------------
      LOOP:  cpu time    313.0498: real time    313.2292

 eigenvalue-minimisations  :  2832
 total energy-change (2. order) :-0.4779302E-04  (-0.5815976E-05)
 number of electron     258.9999999 magnetization 
 augmentation part      -14.1610842 magnetization 

 Broyden mixing:
  rms(total) = 0.63547E-04    rms(broyden)= 0.32002E-02
  rms(prec ) = 0.98848E-04
  weight for this iteration     100.00
  WARNING: grid for Broyden might be to small

 eigenvalues of (default mixing * dielectric matrix)
  average eigenvalue GAMMA=   1.7868
 10.0016  3.1652  2.7034  2.3086  1.4694  1.0084  1.0084  0.9024  0.4675  0.6970
  0.6970  0.6249  0.6249  0.5618  0.5618

 Free energy of the ion-electron system (eV)
  ---------------------------------------------------
  alpha Z        PSCENC =        26.11258127
  Ewald energy   TEWEN  =     30505.35119174
  -Hartree energ DENC   =    -36149.28297449
  -exchange      EXHF   =         0.00000000
  -V(xc)+E(xc)   XCENC  =      -289.88847947
  PAW double counting   =     36530.00077351   -35901.79996358
  entropy T*S    EENTRO =        -0.15027929
  eigenvalues    EBANDS =     -1911.71241789
  atomic energy  EATOM  =      6580.62918853
  Solvation  Ediel_sol  =         0.00000000
  ---------------------------------------------------
  free energy    TOTEN  =      -610.74037967 eV

  energy without entropy =     -610.59010037  energy(sigma->0) =     -610.66524002


--------------------------------------------------------------------------------------------------------




--------------------------------------- Iteration      1(  17)  ---------------------------------------


    POTLOK:  cpu time      1.9481: real time      1.9793
    SETDIJ:  cpu time      1.3904: real time      1.3911
    EDDIAG:  cpu time     50.8953: real time     50.9232
     EDDAV:  cpu time    228.5679: real time    228.6966
       DOS:  cpu time      0.0045: real time      0.0045
    CHARGE:  cpu time     28.7590: real time     28.7865
    MIXING:  cpu time      0.0469: real time      0.0469
    --------------------------------------------
      LOOP:  cpu time    311.6122: real time    311.8281

 eigenvalue-minimisations  :  2800
 total energy-change (2. order) :-0.2670837E-04  (-0.3129552E-05)
 number of electron     258.9999999 magnetization 
 augmentation part      -14.1610962 magnetization 

 Broyden mixing:
  rms(total) = 0.38687E-04    rms(broyden)= 0.20688E-02
  rms(prec ) = 0.59513E-04
  weight for this iteration     100.00
  WARNING: grid for Broyden might be to small

 eigenvalues of (default mixing * dielectric matrix)
  average eigenvalue GAMMA=   1.7769
 10.0267  3.3113  2.6772  2.4796  1.5672  1.2713  1.0289  0.9087  0.9087  0.7505
  0.4675  0.6528  0.6302  0.6082  0.5706  0.5706

 Free energy of the ion-electron system (eV)
  ---------------------------------------------------
  alpha Z        PSCENC =        26.11258127
  Ewald energy   TEWEN  =     30505.35119174
  -Hartree energ DENC   =    -36149.23300656
  -exchange      EXHF   =         0.00000000
  -V(xc)+E(xc)   XCENC  =      -289.88908548
  PAW double counting   =     36529.81945590   -35901.61863622
  entropy T*S    EENTRO =        -0.15027855
  eigenvalues    EBANDS =     -1911.76181700
  atomic energy  EATOM  =      6580.62918853
  Solvation  Ediel_sol  =         0.00000000
  ---------------------------------------------------
  free energy    TOTEN  =      -610.74040637 eV

  energy without entropy =     -610.59012782  energy(sigma->0) =     -610.66526710


[...]
   -.783E+01 0.769E+01 -.788E+02   0.875E+01 -.925E+01 0.814E+02   -.997E+00 0.138E+01 -.253E+01   -.661E-06 -.894E-06 0.465E-05
   -.394E+01 -.479E+01 0.160E+03   0.389E+01 0.294E+01 -.159E+03   0.297E+00 0.158E+01 -.319E+00   0.272E-05 -.242E-05 -.160E-04
   -.455E+01 0.328E+02 0.235E+03   0.200E+01 -.327E+02 -.234E+03   0.217E+01 -.777E-01 -.110E+01   0.184E-05 -.714E-05 -.429E-05
   0.507E+01 -.225E+01 -.113E+03   -.363E+01 0.211E+01 0.112E+03   -.158E+01 0.544E-01 0.752E+00   -.133E-05 0.124E-04 0.165E-04
   -.552E+01 0.677E+01 0.609E+02   0.438E+01 -.651E+01 -.606E+02   0.106E+01 -.234E+00 -.691E+00   0.950E-05 -.659E-06 0.355E-05
   0.578E+01 -.780E+01 0.137E+03   -.720E+01 0.602E+01 -.138E+03   0.955E+00 0.168E+01 0.491E+00   0.269E-04 0.205E-05 0.257E-04
   -.540E+01 -.668E+01 0.150E+03   0.410E+01 0.643E+01 -.150E+03   0.132E+01 0.516E+00 0.334E+00   0.579E-05 0.226E-04 0.308E-05
   0.355E+01 0.902E+01 -.244E+03   -.337E+01 -.109E+02 0.246E+03   0.103E+00 0.159E+01 -.785E+00   0.432E-05 -.138E-04 0.223E-04
   0.200E+02 0.191E+02 -.178E+03   -.182E+02 -.194E+02 0.176E+03   -.169E+01 -.757E-01 0.159E+01   0.176E-04 0.322E-05 0.272E-04
   -.157E+00 -.104E+02 0.341E+02   -.359E+00 0.120E+02 -.353E+02   0.598E+00 -.127E+01 0.113E+01   -.729E-05 -.247E-05 -.145E-05
   -.365E+01 -.521E+01 0.127E+03   0.390E+01 0.489E+01 -.126E+03   -.177E+00 0.676E+00 -.714E+00   0.304E-05 -.391E-05 -.848E-05
   -.768E+00 -.138E+02 -.208E+03   0.659E+00 0.138E+02 0.208E+03   0.172E+00 -.651E-01 -.508E+00   0.169E-04 -.950E-05 0.263E-04
   -.496E+01 -.140E+02 0.140E+03   0.447E+01 0.138E+02 -.141E+03   0.455E+00 -.124E+00 0.482E+00   -.248E-04 -.618E-05 -.536E-05
   0.111E+02 0.764E+01 -.193E+03   -.129E+02 -.848E+01 0.190E+03   0.180E+01 0.680E+00 0.323E+01   -.868E-05 -.119E-04 0.452E-04
   -.139E+00 0.472E+01 -.149E+03   -.213E+01 -.446E+01 0.149E+03   0.236E+01 -.266E+00 0.405E+00   -.409E-05 -.654E-06 0.307E-04
   -.117E+02 0.644E+01 0.201E+03   0.110E+02 -.697E+01 -.199E+03   0.551E+00 0.390E+00 -.206E+01   -.141E-04 0.782E-05 -.237E-05
   0.247E+02 -.207E+02 0.688E+02   -.225E+02 0.204E+02 -.677E+02   -.247E+01 0.369E-01 -.126E+01   0.213E-05 0.246E-05 -.570E-05
   0.399E+01 -.145E+02 0.213E+03   -.382E+01 0.150E+02 -.215E+03   0.402E-03 -.926E+00 0.157E+01   0.789E-05 -.239E-05 -.190E-04
   0.219E+02 0.123E+02 -.223E+03   -.197E+02 -.121E+02 0.220E+03   -.215E+01 -.176E+00 0.310E+01   0.131E-04 -.225E-04 0.278E-04
   -.216E+02 -.965E+01 -.211E+03   0.199E+02 0.109E+02 0.209E+03   0.149E+01 -.132E+01 0.229E+01   -.213E-04 -.127E-04 0.277E-04
   0.921E+01 -.505E+01 -.102E+03   -.857E+01 0.752E+01 0.104E+03   -.746E+00 -.221E+01 -.197E+01   -.687E-05 0.105E-04 0.301E-04
   -.172E+02 -.420E+02 0.230E+03   0.154E+02 0.403E+02 -.231E+03   0.176E+01 0.154E+01 0.915E+00   0.891E-05 0.319E-05 -.631E-05
   0.116E+02 0.421E+01 -.214E+03   -.118E+02 -.537E+01 0.214E+03   0.132E+00 0.110E+01 0.143E+00   0.492E-05 -.110E-04 0.368E-04
   0.200E+02 0.389E+01 -.128E+03   -.174E+02 -.409E+01 0.127E+03   -.271E+01 0.153E+00 0.112E+01   0.808E-05 -.266E-04 0.375E-04
   0.254E-01 -.219E+02 -.146E+03   0.626E+00 0.187E+02 0.148E+03   -.380E+00 0.320E+01 -.197E+01   -.579E-05 -.163E-04 0.265E-04
   0.211E+02 -.473E+01 0.160E+03   -.195E+02 0.340E+01 -.159E+03   -.161E+01 0.149E+01 -.781E+00   0.589E-05 -.684E-05 0.504E-05
   -.187E+02 -.397E+01 -.156E+02   0.198E+02 0.464E+01 0.142E+02   -.830E+00 -.282E+00 0.129E+01   -.305E-05 0.174E-04 0.207E-05
   -.178E+02 -.930E+01 -.168E+03   0.145E+02 0.101E+02 0.168E+03   0.302E+01 -.946E+00 0.444E+00   -.168E-04 0.178E-04 0.137E-04
   -.185E+02 0.107E+02 -.108E+03   0.182E+02 -.104E+02 0.107E+03   0.103E+00 -.407E+00 0.109E+01   0.204E-05 -.983E-05 0.272E-04
   0.224E+02 0.396E+02 0.246E+03   -.218E+02 -.390E+02 -.243E+03   -.682E+00 -.636E+00 -.269E+01   0.555E-05 -.540E-05 -.344E-05
   0.974E+01 0.153E+02 -.257E+03   -.945E+01 -.172E+02 0.263E+03   -.350E+00 0.179E+01 -.549E+01   -.217E-05 -.371E-05 0.401E-04
   -.653E+01 0.231E+02 0.767E+02   0.637E+01 -.252E+02 -.795E+02   -.573E-01 0.172E+01 0.273E+01   -.170E-04 0.124E-04 0.289E-04
   0.337E+02 -.294E+02 -.238E+03   -.312E+02 0.279E+02 0.236E+03   -.206E+01 0.100E+01 0.130E+01   0.176E-04 -.981E-05 0.356E-04
   0.608E+01 0.182E+02 0.103E+03   -.533E+01 -.166E+02 -.103E+03   -.451E+00 -.119E+01 -.925E+00   0.193E-04 -.152E-04 0.206E-04
   -.514E+01 0.211E+02 -.814E+02   0.650E+01 -.208E+02 0.798E+02   -.115E+01 -.240E+00 0.147E+01   -.224E-04 -.824E-05 0.224E-04
   -.972E+01 0.154E+02 -.244E+03   0.868E+01 -.164E+02 0.244E+03   0.995E+00 0.113E+01 0.626E+00   -.178E-04 0.108E-04 0.174E-04
   0.991E+01 -.202E+02 -.352E+02   -.921E+01 0.188E+02 0.340E+02   -.782E+00 0.120E+01 0.989E+00   -.803E-05 0.232E-05 0.904E-05
   0.190E+02 0.499E+01 0.316E+02   -.177E+02 -.374E+01 -.334E+02   -.108E+01 -.114E+01 0.162E+01   -.399E-05 0.160E-04 0.240E-04
   -.176E+02 -.411E+02 0.195E+03   0.168E+02 0.403E+02 -.195E+03   0.707E+00 0.944E+00 0.216E+00   -.554E-05 -.106E-06 -.347E-05
   0.359E+01 -.344E+01 -.192E+03   -.149E+01 0.265E+01 0.189E+03   -.191E+01 0.880E+00 0.264E+01   0.228E-04 0.662E-05 0.417E-04
   0.140E+02 0.338E+01 0.248E+03   -.142E+02 -.378E+01 -.247E+03   -.182E+00 0.532E-01 -.141E+01   0.619E-05 0.211E-05 -.114E-04
   0.421E+00 0.818E+01 0.451E+02   -.847E+00 -.915E+01 -.450E+02   0.310E+00 0.522E+00 -.143E+00   0.890E-05 0.611E-05 0.210E-04
   -.979E+01 0.549E+01 -.805E+02   0.964E+01 -.699E+01 0.822E+02   0.152E+00 0.149E+01 -.166E+01   0.100E-04 0.452E-05 0.122E-04
   0.922E+01 0.125E+02 -.345E+02   -.811E+01 -.127E+02 0.351E+02   -.105E+01 -.373E+00 -.560E+00   -.605E-05 0.654E-05 0.254E-04
   0.105E+02 -.191E+02 0.176E+03   -.964E+01 0.166E+02 -.174E+03   -.511E+00 0.227E+01 -.197E+01   -.842E-05 0.285E-06 -.112E-04
   0.130E+01 0.733E+01 -.165E+03   -.164E+01 -.745E+01 0.163E+03   0.543E+00 0.322E+00 0.175E+01   -.267E-04 -.893E-05 0.559E-04
   -.331E+01 0.194E+02 -.277E+03   0.519E+01 -.194E+02 0.278E+03   -.192E+01 0.119E+00 -.117E+01   0.172E-04 -.264E-04 0.743E-04
   -.396E+01 0.293E+02 -.402E+01   0.393E+01 -.272E+02 0.508E+01   -.113E+00 -.211E+01 -.849E+00   -.115E-04 0.804E-05 0.201E-04
   -.108E+02 -.260E+02 -.265E+03   0.119E+02 0.264E+02 0.265E+03   -.101E+01 -.211E+00 0.372E-01   0.443E-05 -.180E-04 0.172E-04
   0.386E+01 -.940E+00 0.890E+02   -.341E+01 0.243E+01 -.897E+02   -.725E+00 -.175E+01 0.568E+00   -.203E-04 -.113E-04 0.418E-05
   0.610E+01 0.498E+01 0.130E+03   -.687E+01 -.330E+01 -.128E+03   0.736E+00 -.149E+01 -.188E+01   0.966E-05 -.559E-05 -.937E-06
   0.696E+01 0.669E+01 -.123E+03   -.761E+01 -.701E+01 0.122E+03   0.898E+00 0.558E+00 0.112E+01   -.247E-05 0.138E-04 0.228E-04
   -.232E+02 -.336E+02 -.118E+03   0.238E+02 0.339E+02 0.118E+03   -.597E+00 -.127E+00 0.776E+00   0.153E-04 -.133E-04 0.147E-04
   -.108E+02 0.232E+02 -.137E+03   0.100E+02 -.218E+02 0.134E+03   0.908E+00 -.127E+01 0.263E+01   -.610E-06 0.689E-05 0.191E-04
   -.218E+02 -.191E+02 0.261E+03   0.216E+02 0.192E+02 -.260E+03   0.605E+00 -.344E-01 -.145E+01   -.304E-05 -.274E-05 -.121E-04
   -.181E+02 0.449E+02 0.209E+03   0.175E+02 -.410E+02 -.206E+03   0.296E+00 -.318E+01 -.232E+01   -.232E-04 -.349E-04 -.190E-08
   -.406E+01 -.144E+02 -.264E+03   0.391E+01 0.150E+02 0.267E+03   0.346E+00 -.532E+00 -.302E+01   -.362E-05 0.284E-04 0.353E-04
   -.114E+02 0.615E+01 0.172E+03   0.120E+02 -.682E+01 -.171E+03   -.618E+00 0.593E+00 -.142E+01   0.638E-05 0.254E-04 -.763E-05
   -.147E+02 -.131E+02 0.209E+03   0.137E+02 0.136E+02 -.205E+03   0.711E+00 -.134E+00 -.354E+01   0.120E-04 -.328E-05 -.181E-04
   -.617E+01 0.493E+02 0.220E+03   0.635E+01 -.487E+02 -.221E+03   -.268E+00 -.601E+00 0.276E+00   -.755E-06 0.246E-06 0.122E-04
   0.199E+02 -.427E+01 0.256E+03   -.188E+02 0.518E+01 -.253E+03   -.109E+01 -.606E+00 -.264E+01   -.750E-05 -.767E-05 -.166E-04
   0.551E+01 -.300E+02 0.221E+03   -.521E+01 0.314E+02 -.223E+03   -.300E+00 -.772E+00 0.179E+01   -.142E-05 0.487E-06 -.200E-04
   0.216E+01 0.807E+01 0.278E+03   -.211E+01 -.860E+01 -.277E+03   0.155E+00 0.327E+00 -.661E+00   0.155E-05 0.141E-04 -.117E-04
   0.663E+01 -.611E+01 0.102E+01   -.622E+01 0.603E+01 -.237E+01   -.371E+00 -.210E+00 0.130E+01   0.214E-05 0.825E-05 0.331E-05
 -----------------------------------------------------------------------------------------------
   0.102E+02 -.771E+00 0.775E+01   0.719E-13 0.533E-14 -.184E-12   -.102E+02 0.767E+00 -.776E+01   -.415E-05 -.581E-04 0.853E-03


 POSITION                                       TOTAL-FORCE (eV/Angst)
 -----------------------------------------------------------------------------------
      4.85129      9.26837     15.00849         0.061308     -0.061653     -0.032814
     10.02977      8.14710      8.94133        -0.146678      0.079867     -0.037396
      5.18324     12.54156     10.49403         0.009168     -0.049081     -0.066350
     11.79952      8.41031     13.57466        -0.039384      0.006406      0.048611
     12.09230     11.05415     14.81575         0.043449     -0.014781      0.021003
      2.03170      9.92083     15.71595         0.106416      0.038430      0.062572
      3.83827      0.91432     15.27628        -0.076297     -0.182202      0.003637
      2.14827      4.02998     11.09793         0.239493     -0.185127      0.151152
     14.08967      1.16005     10.71835        -0.258900      0.087889     -0.089596
      5.86294     12.58141     13.59094        -0.208025     -0.065993     -0.227220
      7.81063      6.61662     12.42544        -0.061705      0.013837     -0.383054
      9.45319      2.51449     11.50875        -0.402744     -0.026413     -0.434267
      5.57670     11.48438     11.47222         0.025460      0.307867      0.221432
      9.71021      4.45887     14.95769         0.271021     -0.218581      0.406880
      0.22508     14.21382     14.23102         0.082660     -0.355783      0.043006
      0.35470      6.91898     12.40353         0.110864      0.213634      0.028497
      5.78027      5.73357     11.80655         0.073960      0.390667      0.139257
      1.05960      1.85415     14.47418         0.071114     -0.097578     -0.014964
      5.64607      3.47809     11.32957        -0.018943     -0.307800     -0.255305
      5.46158      5.32160     14.17209         0.165079     -0.128104     -0.110464
      9.36720      2.36121     13.98011         0.261807      0.004062      0.149802
      1.85089     10.10433     11.16869        -0.211047      0.057466      0.187650
     13.35959     10.54955     12.00428        -0.313337     -0.209642     -0.181483
     10.39098      8.50493     10.34240         0.175627     -0.453913     -0.525950
      7.82083      5.90619     14.65472        -0.040999      0.138370      0.202767
     11.89188      5.36446     14.49442        -0.180194     -0.142876      0.131202
      4.66054      8.73337     13.61388        -0.128002      0.155949      0.123659
     12.65001      8.95693     10.36401         0.008422     -0.203072      0.148158
      7.12006      1.76967     14.40441        -0.063558      0.010887      0.117627
      5.30552      3.01941     13.66658        -0.313981     -0.023044      0.139784
      3.36623      1.61177     14.04167         0.267951      0.114834      0.019801
     10.95770      4.35780     11.33762        -0.049207      0.244837     -0.136383
      9.62870     11.43965     12.87670         0.278895      0.368695      0.028250
      8.27179      9.95840     14.18927        -0.133836     -0.155269      0.188478
     14.35017      3.49587     13.46493        -0.154464     -0.105315      0.040618
      4.21487      0.50747     10.38525        -0.031472      0.067136      0.121512
      1.76122     12.73134     15.38689        -0.073792      0.124160      0.107936
     12.20986      1.00856     12.04043        -0.222919     -0.327770      0.130057
      1.01521      8.99014     15.15821         0.458329     -0.494058     -0.468456
      0.83004     14.18999     11.92509         0.265062      0.306617     -0.046002
     11.95505      3.26396     13.21882         0.120978      0.159323     -0.130929
     10.30544      0.22712     14.68731         0.004581      0.170037     -0.370272
      0.52125      9.20408     12.90237        -0.147780     -0.084809     -0.128847
      3.68602     10.56148     12.44976         0.124912      0.093611     -0.117884
      9.11584     10.32483     10.90770        -0.027478      0.071809      0.296474
     14.32405      5.65934     14.32030         0.060187      0.115661      0.077246
      6.90302      9.82809     10.62298        -0.317626     -0.230736     -0.206607
      3.12771     14.48299     12.34046        -0.125968     -0.414959     -0.029481
     11.89818     11.67486     13.47470         0.013305      0.062583      0.015107
      7.00209     14.51633     12.96092         0.032131     -0.572048     -0.018262
      0.48628     11.96855     11.24478         0.290933     -0.297087      0.333070
      3.49955      6.66249     14.08705         0.233940      0.234251      0.025993
      1.56803      6.74181     15.51535        -0.209576      0.239668      0.215953
      9.21067     13.77070     12.87479        -0.156627     -0.125002      0.199369
      9.03266      7.92241     15.14182        -0.003047      0.122319     -0.274895
      2.53702      6.14777     11.98115        -0.320264     -0.366096     -0.099489
     10.00148      6.55460     11.65727        -0.022489      0.139527      0.123437
      3.45263     12.55988     13.69890         0.346392      0.298004     -0.007357
     10.82019      7.28850     13.74234         0.079027      0.206934     -0.042099
     12.41404     14.00929     13.82489         0.176441      0.014974      0.124810
      7.48213      2.58579     10.27714         0.318398     -0.054508     -0.112758
      6.47863      0.59350     10.78179        -0.329766      0.689825      0.271913
      7.39081     11.85158     15.20386         0.176560     -0.071770     -0.035233
     14.50353      3.40736     11.12490        -0.050908     -0.054751     -0.555143
     13.43371      6.83970     10.67368        -0.248765      0.435658      0.122123
     10.24569      0.36200     10.99780        -0.061721      0.159742      0.090578
      3.77305      2.75702     10.22629        -0.043903      0.241710      0.195641
      4.27393      7.30574     10.93777        -0.035118      0.283233      0.097092
     12.85892      4.71586     10.04024         0.229619     -0.100299     -0.032935
      6.88046      8.76610     12.68919         0.047033     -0.290362      0.019742
 -----------------------------------------------------------------------------------
    total drift:                               -0.006506     -0.004569     -0.002060


--------------------------------------------------------------------------------------------------------



  FREE ENERGIE OF THE ION-ELECTRON SYSTEM (eV)
  ---------------------------------------------------
  free  energy   TOTEN  =      -610.74041402 eV

  energy  without entropy=     -610.59013361  energy(sigma->0) =     -610.66527382



--------------------------------------------------------------------------------------------------------


    POTLOK:  cpu time      3.2888: real time      3.3334


--------------------------------------------------------------------------------------------------------


     LOOP+:  cpu time   6742.9076: real time   6747.4988
    4ORBIT:  cpu time      0.0000: real time      0.0000



 total charge

# of ion       s       p       d       tot
------------------------------------------
    1        0.558   0.015   0.000   0.573
    2        0.566   0.015   0.000   0.581
    3        0.566   0.016   0.000   0.582
    4        0.562   0.015   0.000   0.577
    5        0.564   0.015   0.000   0.580
    6        0.563   0.017   0.000   0.580
    7        0.566   0.015   0.000   0.581
    8        0.775   0.904   0.000   1.679
    9        0.798   0.886   0.000   1.684
   10        0.762   0.920   0.000   1.681
   11        0.766   0.945   0.000   1.710
   12        0.772   0.884   0.000   1.656
   13        0.752   0.978   0.000   1.730
   14        0.813   0.797   0.000   1.611
   15        0.761   0.907   0.000   1.668
   16        0.761   0.946   0.000   1.707
   17        0.773   0.948   0.000   1.722
   18        0.787   0.864   0.000   1.652
   19        0.771   0.929   0.000   1.700
   20        0.768   0.879   0.000   1.647
   21        0.759   0.880   0.000   1.639
   22        0.808   0.868   0.000   1.676
   23        0.753   0.929   0.000   1.683
   24        0.743   0.979   0.000   1.722
   25        0.769   0.889   0.000   1.658
   26        0.769   0.863   0.000   1.632
   27        0.736   0.938   0.000   1.674
   28        0.781   0.891   0.000   1.671
   29        0.806   0.863   0.000   1.669
   30        0.761   0.908   0.000   1.669
   31        0.745   0.929   0.000   1.674
   32        0.760   0.894   0.000   1.654
   33        0.750   0.934   0.000   1.685
   34        0.763   0.911   0.000   1.675
   35        0.768   0.924   0.000   1.692
   36        0.787   0.890   0.000   1.676
   37        0.883   0.696   0.000   1.579
   38        0.782   0.884   0.000   1.666
   39        0.780   0.887   0.000   1.667
   40        0.762   0.923   0.000   1.685
   41        0.783   0.847   0.000   1.630
   42        0.814   0.810   0.000   1.623
   43        0.757   0.929   0.000   1.687
   44        0.759   0.940   0.000   1.699
   45        0.796   0.877   0.000   1.673
   46        0.766   0.893   0.000   1.659
   47        0.806   0.891   0.000   1.696
   48        0.757   0.920   0.000   1.677
   49        0.742   0.956   0.000   1.698
   50        0.759   0.953   0.000   1.712
   51        0.795   0.860   0.000   1.655
   52        0.784   0.853   0.000   1.636
   53        0.806   0.828   0.000   1.634
   54        0.763   0.921   0.000   1.684
   55        0.806   0.826   0.000   1.632
   56        0.758   0.936   0.000   1.694
   57        0.756   0.926   0.000   1.683
   58        0.763   0.909   0.000   1.672
   59        0.748   0.968   0.000   1.717
   60        0.760   0.894   0.000   1.654
   61        0.800   0.884   0.000   1.684
   62        0.796   0.873   0.000   1.668
   63        0.871   0.730   0.000   1.602
   64        0.759   0.942   0.000   1.701
   65        0.777   0.916   0.000   1.693
   66        0.821   0.835   0.000   1.656
   67        0.779   0.916   0.000   1.695
   68        0.872   0.727   0.000   1.600
   69        0.796   0.867   0.000   1.663
   70        0.771   0.905   0.000   1.676
--------------------------------------------------
tot         52.990  56.310   0.000 109.300


 total amount of memory used by VASP MPI-rank0   362216. kBytes
=======================================================================

   base                                    :      30000. kBytes
   nonl-proj                               :      68728. kBytes
   fftplans                                :     100022. kBytes
   grid                                    :      77177. kBytes
   one-center                              :         15. kBytes
   wavefun                                 :      86274. kBytes

  
  
 General timing and accounting informations for this job:
 ========================================================
  
                  Total CPU time used (sec):     6885.512
                            User time (sec):     6075.688
                          System time (sec):      809.824
                         Elapsed time (sec):     6890.441
  
                   Maximum memory used (kb):      618208.
                   Average memory used (kb):          N/A
  
                          Minor page faults:     10917397
                          Major page faults:         1160
                 Voluntary context switches:         2549
