 vasp.6.5.0 16Dec24 (build Jan 20 2025 08:32:48) complex                         
 executed on        HPECrayEX_GCC date 2025.07.29  10:23:04
 running  128 mpi-ranks, with    1 threads/rank, on    1 nodes
 distrk:  each k-point on  128 cores,    1 groups
 distr:  one band on NCORE=  16 cores,    8 groups


--------------------------------------------------------------------------------------------------------


 INCAR:
   SYSTEM = a-Si SPC
   NCORE = 16
   ISTART = 1
   ICHARG = 1
   ISPIN = 1
   ISYM = 1
   EDIFF = 1E-6
   NELM = 150
   EDIFFG = -0.01
   NSW = 0
   ISIF = 2
   IBRION = -1
   PREC = Accurate
   ENCUT = 1200
   KSPACING = 0.23
   KGAMMA = .TRUE.
   METAGGA = SCAN
   LASPH = .TRUE.
   LDIAG = .FALSE.
   LMIXTAU = .TRUE.
   ADDGRID = .TRUE.
   ALGO = Normal
   ISMEAR = 0
   SIGMA = 0.1
   LORBIT = 11
   NEDOS = 2000
   LWAVE = .FALSE.
   LCHARG = .FALSE.

 POTCAR:    PAW_PBE H 15Jun2001                   
 POTCAR:    PAW_PBE Si 05Jan2001                  
 POTCAR:    PAW_PBE H 15Jun2001                   
   SHA256 =  030f79b5d3ab3cf0e668861823c8fb652ff669f3e15e46930bd03bfd63a607b6 H/POTCAR              
   COPYR  = (c) Copyright 15Jun2001 Georg Kresse                                                    
   COPYR  = This file is part of the software VASP. Any use, copying, and all other rights are regul
   COPYR  = If you do not have a valid VASP license, you may not use, copy or distribute this file. 
   VRHFIN =H: ultrasoft test                                                                        
   LEXCH  = PE                                                                                      
   EATOM  =    12.4884 eV,    0.9179 Ry                                                             
                                                                                                    
   TITEL  = PAW_PBE H 15Jun2001                                                                     
   LULTRA =        F    use ultrasoft PP ?                                                          
   IUNSCR =        0    unscreen: 0-lin 1-nonlin 2-no                                               
   RPACOR =    0.000    partial core radius                                                         
   POMASS =    1.000; ZVAL   =    1.000    mass and valenz                                          
   RCORE  =    1.100    outmost cutoff radius                                                       
   RWIGS  =    0.700; RWIGS  =    0.370    wigner-seitz radius (au A)                               
   ENMAX  =  250.000; ENMIN  =  200.000 eV                                                          
   RCLOC  =    0.701    cutoff for local pot                                                        
   LCOR   =        T    correct aug charges                                                         
   LPAW   =        T    paw PP                                                                      
   EAUG   =  400.000                                                                                
   RMAX   =    1.123    core radius for proj-oper                                                   
   RAUG   =    1.200    factor for augmentation sphere                                              
   RDEP   =    1.112    radius for radial grids                                                     
   RDEPT  =    0.926    core radius for aug-charge                                                  
                                                                                                    
   Atomic configuration                                                                             
    2 entries                                                                                       
     n  l   j            E        occ.                                                              
     1  0  0.50        -6.4927   1.0000                                                             
     2  1  0.50        -3.4015   0.0000                                                             
   Description                                                                                      
     l       E           TYP  RCUT    TYP  RCUT                                                     
     0     -6.4927494     23  1.100                                                                 
     0      6.8029130     23  1.100                                                                 
     1     -4.0817478     23  1.100                                                                 
  local pseudopotential read in
  atomic valenz-charges read in
  non local Contribution for L=           0  read in
    real space projection operators read in
  non local Contribution for L=           0  read in
    real space projection operators read in
  non local Contribution for L=           1  read in
    real space projection operators read in
    PAW grid and wavefunctions read in

   number of l-projection  operators is LMAX  =           3
   number of lm-projection operators is LMMAX =           5

 POTCAR:    PAW_PBE Si 05Jan2001                  
   SHA256 =  79d9987ad8750f624c4d6acb2a16d13abf6a777132adc04dc6c8399be72b42bb Si/POTCAR             
   COPYR  = (c) Copyright 05Jan2001 Georg Kresse                                                    
   COPYR  = This file is part of the software VASP. Any use, copying, and all other rights are regul
   COPYR  = If you do not have a valid VASP license, you may not use, copy or distribute this file. 
   VRHFIN =Si: s2p2                                                                                 
   LEXCH  = PE                                                                                      
   EATOM  =   103.0669 eV,    7.5752 Ry                                                             
                                                                                                    
   TITEL  = PAW_PBE Si 05Jan2001                                                                    
   LULTRA =        F    use ultrasoft PP ?                                                          
   IUNSCR =        1    unscreen: 0-lin 1-nonlin 2-no                                               
   RPACOR =    1.500    partial core radius                                                         
   POMASS =   28.085; ZVAL   =    4.000    mass and valenz                                          
   RCORE  =    1.900    outmost cutoff radius                                                       
   RWIGS  =    2.480; RWIGS  =    1.312    wigner-seitz radius (au A)                               
   ENMAX  =  245.345; ENMIN  =  184.009 eV                                                          
   ICORE  =        2    local potential                                                             
   LCOR   =        T    correct aug charges                                                         
   LPAW   =        T    paw PP                                                                      
   EAUG   =  322.069                                                                                
   DEXC   =    0.000                                                                                
   RMAX   =    1.950    core radius for proj-oper                                                   
   RAUG   =    1.300    factor for augmentation sphere                                              
   RDEP   =    1.993    radius for radial grids                                                     
   RDEPT  =    1.837    core radius for aug-charge                                                  
                                                                                                    
   Atomic configuration                                                                             
    6 entries                                                                                       
     n  l   j            E        occ.                                                              
     1  0  0.50     -1785.8828   2.0000                                                             
     2  0  0.50      -139.4969   2.0000                                                             
     2  1  1.50       -95.5546   6.0000                                                             
     3  0  0.50       -10.8127   2.0000                                                             
     3  1  0.50        -4.0811   2.0000                                                             
     3  2  1.50        -4.0817   0.0000                                                             
   Description                                                                                      
     l       E           TYP  RCUT    TYP  RCUT                                                     
     0    -10.8127223     23  1.900                                                                 
     0     -7.6451159     23  1.900                                                                 
     1     -4.0811372     23  1.900                                                                 
     1      2.4879257     23  1.900                                                                 
     2     -4.0817478      7  1.900                                                                 
  local pseudopotential read in
  partial core-charges read in
  partial kinetic energy density read in
  atomic valenz-charges read in
  non local Contribution for L=           0  read in
    real space projection operators read in
  non local Contribution for L=           0  read in
    real space projection operators read in
  non local Contribution for L=           1  read in
    real space projection operators read in
  non local Contribution for L=           1  read in
    real space projection operators read in
    PAW grid and wavefunctions read in

   number of l-projection  operators is LMAX  =           4
   number of lm-projection operators is LMMAX =           8

 -----------------------------------------------------------------------------
|                                                                             |
|               ----> ADVICE to this user running VASP <----                  |
|                                                                             |
|     You have a (more or less) 'large supercell' and for larger cells it     |
|     might be more efficient to use real-space projection operators.         |
|     Therefore, try LREAL= Auto in the INCAR file.                           |
|     Mind: For very accurate calculation, you might also keep the            |
|     reciprocal projection scheme (i.e. LREAL=.FALSE.).                      |
|                                                                             |
 -----------------------------------------------------------------------------

 -----------------------------------------------------------------------------
|                                                                             |
|               ----> ADVICE to this user running VASP <----                  |
|                                                                             |
|     You enforced a specific xc type in the INCAR file but a different       |
|     type was found in the POTCAR file.                                      |
|     I HOPE YOU KNOW WHAT YOU ARE DOING!                                     |
|                                                                             |
 -----------------------------------------------------------------------------

  PAW_PBE H 15Jun2001                   :
 energy of atom  1       EATOM=  -12.4884
 kinetic energy error for atom=    0.0000 (will be added to EATOM!!)
  PAW_PBE Si 05Jan2001                  :
 energy of atom  2       EATOM= -103.0669
 kinetic energy error for atom=    0.0001 (will be added to EATOM!!)


 POSCAR:  H Si
  positions in cartesian coordinates
  No initial velocities read in


 exchange-correlation table for SCAN
   RHO(1)=    0.500       N(1)  =     2000
   RHO(2)=  100.500       N(2)  =     4000



--------------------------------------------------------------------------------------------------------


 ion  position               nearest neighbor table
   1  0.274  0.357  0.621-   8 1.49
   2  0.708  0.117  0.362-  34 1.48
   3  0.477  0.946  0.501-   9 2.34  51 2.36  43 2.37  40 2.38
   4  0.821  0.626  0.565-  38 2.31  28 2.34  47 2.35  35 2.37
   5  0.030  0.470  0.558-  68 2.37  21 2.38  55 2.38  38 2.42
   6  0.026  0.779  0.527-  28 2.30   7 2.33  66 2.35  13 2.36
   7  0.896  0.774  0.475-  35 2.32  69 2.33   6 2.33  28 2.46
   8  0.285  0.336  0.566-   1 1.49  61 2.33  37 2.35  27 2.50
   9  0.328  0.004  0.511-  48 2.32   3 2.34  64 2.34  49 2.35
  10  0.401  0.714  0.494-  24 2.30  40 2.34  45 2.42  51 2.43
  11  0.403  0.043  0.633-  64 2.31  58 2.33  44 2.36
  12  0.599  0.781  0.425-  51 2.33  31 2.38  46 2.39  17 2.45
  13  0.133  0.661  0.511-  24 2.31  68 2.32   6 2.36  57 2.41
  14  0.961  0.994  0.422-  33 2.30  60 2.38  69 2.42
  15  0.876  0.296  0.542-  42 2.28  63 2.33  55 2.39  56 2.40
  16  0.404  0.234  0.465-  61 2.34  41 2.38  29 2.39  67 2.42
  17  0.607  0.619  0.401-  65 2.31  26 2.38  12 2.45
  18  0.456  0.777  0.632-  58 2.28  40 2.29
  19  0.551  0.523  0.565-  47 2.35  59 2.43  45 2.44
  20  0.049  0.074  0.547-  66 2.35  22 2.36  33 2.39  27 2.68
  21  0.976  0.509  0.476-  57 2.32  35 2.34  56 2.34   5 2.38
  22  0.899  0.049  0.578-  50 2.33  63 2.34  20 2.36
  23  0.547  0.256  0.601-  61 2.29  44 2.32  59 2.37
  24  0.251  0.763  0.494-  10 2.30  13 2.31  48 2.34  53 2.38
  25  0.748  0.400  0.433-  56 2.31  52 2.34  65 2.37
  26  0.491  0.511  0.424-  45 2.34  17 2.38  41 2.40
  27  0.178  0.206  0.547-  64 2.47   8 2.50  67 2.50  55 2.51  20 2.68
  28  0.886  0.773  0.569-   6 2.30  50 2.32   4 2.34   7 2.46
  29  0.519  0.186  0.406-  16 2.39  41 2.45  34 2.48
  30  0.022  0.274  0.453-  36 2.33  56 2.33  33 2.37  55 2.41
  31  0.635  0.775  0.513-  40 2.35  12 2.38  47 2.39  62 2.41
  32  0.683  0.149  0.482-  34 2.34  63 2.37  43 2.38  52 2.43
  33  0.970  0.123  0.472-  14 2.30  63 2.35  30 2.37  20 2.39
  34  0.651  0.078  0.404-   2 1.48  32 2.34  46 2.41  29 2.48
  35  0.859  0.619  0.478-   7 2.32  21 2.34  65 2.34   4 2.37  47 3.13
  36  0.159  0.309  0.411-  39 2.30  30 2.33  67 2.34
  37  0.277  0.477  0.522-  39 2.35   8 2.35  68 2.40  45 2.49
  38  0.889  0.501  0.604-  42 2.29   4 2.31   5 2.42
  39  0.190  0.449  0.448-  57 2.29  36 2.30  37 2.35
  40  0.490  0.806  0.548-  18 2.29  10 2.34  31 2.35   3 2.38  51 3.02  58 3.08
  41  0.507  0.347  0.433-  52 2.35  16 2.38  26 2.40  29 2.45
  42  0.784  0.386  0.591-  15 2.28  38 2.29  59 2.38
  43  0.609  0.029  0.528-  44 2.36   3 2.37  32 2.38  62 2.41
  44  0.546  0.096  0.602-  23 2.32  43 2.36  11 2.36  61 3.15
  45  0.428  0.550  0.503-  26 2.34  10 2.42  19 2.44  37 2.49
  46  0.686  0.916  0.405-  69 2.35  12 2.39  34 2.41
  47  0.669  0.619  0.534-  19 2.35   4 2.35  31 2.39  65 2.42  35 3.13
  48  0.251  0.885  0.552-   9 2.32  66 2.33  24 2.34  58 2.36
  49  0.242  0.040  0.438-   9 2.35  60 2.39  67 2.40  54 2.43
  50  0.824  0.911  0.597-  28 2.32  62 2.33  22 2.33
  51  0.450  0.836  0.437-  12 2.33   3 2.36  54 2.40  10 2.43  40 3.02
  52  0.642  0.310  0.478-  25 2.34  41 2.35  59 2.39  32 2.43
  53  0.201  0.820  0.414-  54 2.34  60 2.34  24 2.38
  54  0.326  0.917  0.396-  53 2.34  51 2.40  49 2.43
  55  0.040  0.309  0.542-   5 2.38  15 2.39  30 2.41  27 2.51  56 3.11
  56  0.896  0.372  0.462-  25 2.31  30 2.33  21 2.34  15 2.40  55 3.11
  57  0.100  0.576  0.434-  39 2.29  21 2.32  13 2.41
  58  0.351  0.892  0.623-  18 2.28  11 2.33  48 2.36  40 3.08
  59  0.630  0.376  0.561-  23 2.37  42 2.38  52 2.39  19 2.43
  60  0.111  0.943  0.444-  53 2.34  66 2.35  14 2.38  49 2.39
  61  0.415  0.244  0.554-  23 2.29   8 2.33  64 2.34  16 2.34  44 3.15
  62  0.727  0.912  0.526-  50 2.33  43 2.41  31 2.41  69 2.48
  63  0.833  0.147  0.518-  15 2.33  22 2.34  33 2.35  32 2.37
  64  0.318  0.120  0.572-  11 2.31   9 2.34  61 2.34  27 2.47
  65  0.717  0.556  0.453-  17 2.31  35 2.34  25 2.37  47 2.42
  66  0.100  0.923  0.532-  48 2.33  60 2.35   6 2.35  20 2.35
  67  0.241  0.201  0.458-  36 2.34  49 2.40  16 2.42  27 2.50
  68  0.167  0.555  0.574-  13 2.32   5 2.37  37 2.40
  69  0.826  0.910  0.449-   7 2.33  46 2.35  14 2.42  62 2.48

  LATTYP: Found a simple tetragonal cell.
 ALAT       =    14.5284224467
 C/A-ratio  =     1.8104015764
  
  Lattice vectors:
  
 A1 = (  14.5284224467,   0.0000000000,   0.0000000000)
 A2 = (   0.0000000000,  14.5284224467,   0.0000000000)
 A3 = (   0.0000000000,   0.0000000000,  26.3022789000)


Analysis of symmetry for initial positions (statically):
=====================================================================
 Subroutine PRICEL returns:
 Original cell was already a primitive cell.
 

 Routine SETGRP: Setting up the symmetry group for a 
 simple tetragonal supercell.


 Subroutine GETGRP returns: Found  1 space group operations
 (whereof  1 operations were pure point group operations)
 out of a pool of 16 trial point group operations.


The static configuration has the point symmetry C_1 .


Analysis of symmetry for dynamics (positions and initial velocities):
=====================================================================
 Subroutine PRICEL returns:
 Original cell was already a primitive cell.
 

 Routine SETGRP: Setting up the symmetry group for a 
 simple tetragonal supercell.


 Subroutine GETGRP returns: Found  1 space group operations
 (whereof  1 operations were pure point group operations)
 out of a pool of 16 trial point group operations.


The dynamic configuration has the point symmetry C_1 .


 Subroutine INISYM returns: Found  1 space group operations
 (whereof  1 operations are pure point group operations),
 and found     1 'primitive' translations


----------------------------------------------------------------------------------------

                                     Primitive cell                                     

  volume of cell :    5551.7551

  direct lattice vectors                    reciprocal lattice vectors
    14.528422447  0.000000000  0.000000000     0.068830598  0.000000000  0.000000000
     0.000000000 14.528422447  0.000000000     0.000000000  0.068830598  0.000000000
     0.000000000  0.000000000 26.302278900     0.000000000  0.000000000  0.038019519

  length of vectors
    14.528422447 14.528422447 26.302278900     0.068830598  0.068830598  0.038019519

  position of ions in fractional coordinates (direct lattice)
     0.273952732  0.356517322  0.620721335
     0.707699472  0.116828804  0.362429569
     0.476676662  0.945804432  0.501194048
     0.821140541  0.626447132  0.565442151
     0.029948903  0.470274227  0.558476956
     0.025847086  0.779106702  0.527188943
     0.895795370  0.773685722  0.475273273
     0.285349037  0.336217273  0.565731781
     0.327928291  0.004093482  0.510889693
     0.401495622  0.713977968  0.493645145
     0.403153365  0.042651876  0.632522525
     0.598823154  0.781136872  0.425282163
     0.133201845  0.660635055  0.510532069
     0.960994660  0.993647431  0.421677816
     0.876458212  0.295557919  0.541915781
     0.404347468  0.234158614  0.464995870
     0.606907323  0.618781096  0.400814483
     0.455802799  0.776676891  0.631511496
     0.550864257  0.523041987  0.564551622
     0.049104952  0.074475952  0.547136624
     0.976359903  0.508684457  0.475657970
     0.898570377  0.049077099  0.578147580
     0.546570056  0.255820914  0.600942282
     0.251098909  0.762974451  0.493585881
     0.747978084  0.400027769  0.432910875
     0.490997567  0.510520560  0.423954898
     0.178455255  0.206060361  0.547015854
     0.886429715  0.773287501  0.568775452
     0.518977868  0.186308795  0.405606068
     0.021905662  0.273640485  0.452978552
     0.635477871  0.775157965  0.513259739
     0.683224164  0.148666692  0.481976217
     0.970316509  0.122838508  0.472112380
     0.650579022  0.078123574  0.404016462
     0.859034348  0.618626810  0.477910498
     0.158569392  0.308882505  0.410871104
     0.277188847  0.476754598  0.521842654
     0.888617648  0.500874406  0.604008344
     0.190237961  0.448780397  0.448304226
     0.489564565  0.806245952  0.548048923
     0.507437536  0.346990413  0.432785817
     0.783783768  0.385772201  0.591212350
     0.608745798  0.028845812  0.528047199
     0.546306980  0.095909237  0.601911131
     0.428335305  0.550376047  0.502813480
     0.685692901  0.915727125  0.404879475
     0.669483524  0.618580641  0.534383386
     0.251366051  0.885044532  0.551637429
     0.242449301  0.040146231  0.437752245
     0.823557704  0.911211925  0.596820651
     0.449796050  0.835868492  0.436567290
     0.641720328  0.310188745  0.477938476
     0.200973712  0.820497891  0.413709768
     0.325916468  0.916585145  0.395952986
     0.040063495  0.309344014  0.541770981
     0.895593261  0.371646827  0.461663717
     0.100393589  0.575560693  0.433782113
     0.350809875  0.892459982  0.622644755
     0.629993319  0.375756216  0.561022788
     0.110940076  0.942556557  0.444086115
     0.414548145  0.244168713  0.553730472
     0.726640367  0.912015618  0.526191910
     0.833399054  0.147179294  0.517619047
     0.317503892  0.119963842  0.572255111
     0.717404211  0.555959943  0.453425766
     0.099688466  0.922936403  0.532428915
     0.241358444  0.201082857  0.458445127
     0.166544668  0.555206619  0.574218838
     0.825758522  0.910136282  0.449231606

  ion indices of the primitive-cell ions
   primitive index   ion index
                 1           1
                 2           2
                 3           3
                 4           4
                 5           5
                 6           6
                 7           7
                 8           8
                 9           9
                10          10
                11          11
                12          12
                13          13
                14          14
                15          15
                16          16
                17          17
                18          18
                19          19
                20          20
                21          21
                22          22
                23          23
                24          24
                25          25
                26          26
                27          27
                28          28
                29          29
                30          30
                31          31
                32          32
                33          33
                34          34
                35          35
                36          36
                37          37
                38          38
                39          39
                40          40
                41          41
                42          42
                43          43
                44          44
                45          45
                46          46
                47          47
                48          48
                49          49
                50          50
                51          51
                52          52
                53          53
                54          54
                55          55
                56          56
                57          57
                58          58
                59          59
                60          60
                61          61
                62          62
                63          63
                64          64
                65          65
                66          66
                67          67
                68          68
                69          69

----------------------------------------------------------------------------------------


 -----------------------------------------------------------------------------
|                                                                             |
|           W    W    AA    RRRRR   N    N  II  N    N   GGGG   !!!           |
|           W    W   A  A   R    R  NN   N  II  NN   N  G    G  !!!           |
|           W    W  A    A  R    R  N N  N  II  N N  N  G       !!!           |
|           W WW W  AAAAAA  RRRRR   N  N N  II  N  N N  G  GGG   !            |
|           WW  WW  A    A  R   R   N   NN  II  N   NN  G    G                |
|           W    W  A    A  R    R  N    N  II  N    N   GGGG   !!!           |
|                                                                             |
|     The requested file  could not be found or opened for reading            |
|     k-point information. Automatic k-point generation is used as a          |
|     fallback, which may lead to unwanted results.                           |
|                                                                             |
 -----------------------------------------------------------------------------



Automatic generation of k-mesh.
 Grid dimensions derived from KSPACING:
 generate k-points for:    2    2    2

 Generating k-lattice:

  Cartesian coordinates                     Fractional coordinates (reciprocal lattice)
     0.034415299  0.000000000  0.000000000     0.500000000  0.000000000  0.000000000
     0.000000000  0.034415299  0.000000000     0.000000000  0.500000000  0.000000000
     0.000000000  0.000000000  0.019009760     0.000000000  0.000000000  0.500000000

  Length of vectors
     0.034415299  0.034415299  0.019009760

  Shift w.r.t. Gamma in fractional coordinates (k-lattice)
     0.000000000  0.000000000  0.000000000

 
 Subroutine IBZKPT returns following result:
 ===========================================
 
 Found      8 irreducible k-points:
 
 Following reciprocal coordinates:
            Coordinates               Weight
  0.000000  0.000000  0.000000      1.000000
  0.500000  0.000000  0.000000      1.000000
  0.000000  0.500000  0.000000      1.000000
  0.500000  0.500000  0.000000      1.000000
  0.000000  0.000000  0.500000      1.000000
  0.500000  0.000000  0.500000      1.000000
  0.000000  0.500000  0.500000      1.000000
  0.500000  0.500000  0.500000      1.000000
 
 Following cartesian coordinates:
            Coordinates               Weight
  0.000000  0.000000  0.000000      1.000000
  0.034415  0.000000  0.000000      1.000000
  0.000000  0.034415  0.000000      1.000000
  0.034415  0.034415  0.000000      1.000000
  0.000000  0.000000  0.019010      1.000000
  0.034415  0.000000  0.019010      1.000000
  0.000000  0.034415  0.019010      1.000000
  0.034415  0.034415  0.019010      1.000000
 


--------------------------------------------------------------------------------------------------------




 Dimension of arrays:
   k-points           NKPTS =      8   k-points in BZ     NKDIM =      8   number of bands    NBANDS=    176
   number of dos      NEDOS =   2000   number of ions     NIONS =     69
   non local maximal  LDIM  =      4   non local SUM 2l+1 LMDIM =      8
   total plane-waves  NPLWV = ******
   max r-space proj   IRMAX =      1   max aug-charges    IRDMAX= 408095
   dimension x,y,z NGX =   168 NGY =  168 NGZ =  300
   dimension x,y,z NGXF=   336 NGYF=  336 NGZF=  600
   support grid    NGXF=   672 NGYF=  672 NGZF= 1200
   ions per type =               2  67
   NGX,Y,Z   is equivalent  to a cutoff of  19.22, 19.22, 18.96 a.u.
   NGXF,Y,Z  is equivalent  to a cutoff of  38.45, 38.45, 37.92 a.u.

 SYSTEM =  a-Si SPC                                
 POSCAR =   H Si                                   

 Startparameter for this run:
   NWRITE =      2    write-flag & timer
   PREC   = accura    normal or accurate (medium, high low for compatibility)
   ISTART =      1    job   : 0-new  1-cont  2-samecut
   ICHARG =      1    charge: 1-file 2-atom 10-const
   ISPIN  =      1    spin polarized calculation?
   LNONCOLLINEAR =      F non collinear calculations
   LSORBIT =      F    spin-orbit coupling
   INIWAV =      1    electr: 0-lowe 1-rand  2-diag
   LASPH  =      T    aspherical Exc in radial PAW
 Electronic Relaxation 1
   ENCUT  = 1200.0 eV  88.20 Ry    9.39 a.u.  41.04 41.04 74.29*2*pi/ulx,y,z
   ENINI  = 1200.0     initial cutoff
   ENAUG  =  400.0 eV  augmentation charge cutoff
   NELM   =    150;   NELMIN=  2; NELMDL=  0     # of ELM steps 
   EDIFF  = 0.1E-05   stopping-criterion for ELM
   LREAL  =      F    real-space projection
   NLSPLINE    = F    spline interpolate recip. space projectors
   LCOMPAT=      F    compatible to vasp.4.4
   GGA_COMPAT  = T    GGA compatible to vasp.4.4-vasp.4.6
   LMAXPAW     = -100 max onsite density
   LMAXMIX     =    2 max onsite mixed and CHGCAR
   VOSKOWN=      0    Vosko Wilk Nusair interpolation
   ROPT   =    0.00000   0.00000
 Ionic relaxation
   EDIFFG = -.1E-01   stopping-criterion for IOM
   NSW    =      0    number of steps for IOM
   NBLOCK =      1;   KBLOCK =      1    inner block; outer block 
   IBRION =     -1    ionic relax: 0-MD 1-quasi-New 2-CG
   NFREE  =      0    steps in history (QN), initial steepest desc. (CG)
   ISIF   =      2    stress and relaxation
   IWAVPR =     10    prediction:  0-non 1-charg 2-wave 3-comb
   ISYM   =      1    0-nonsym 1-usesym 2-fastsym
   LCORR  =      T    Harris-Foulkes like correction to forces

   POTIM  = 0.5000    time-step for ionic-motion
   TEIN   =    0.0    initial temperature
   TEBEG  =    0.0;   TEEND  =   0.0 temperature during run
   SMASS  =  -3.00    Nose mass-parameter (am)
   estimated Nose-frequenzy (Omega)   =  0.10E-29 period in steps = 0.13E+47 mass=  -0.482E-26a.u.
   SCALEE = 1.0000    scale energy and forces
   NPACO  =    256;   APACO  = 10.0  distance and # of slots for P.C.
   PSTRESS=    0.0 pullay stress

  Mass of Ions in am
   POMASS =   1.00 28.09
  Ionic Valenz
   ZVAL   =   1.00  4.00
  Atomic Wigner-Seitz radii
   RWIGS  =  -1.00 -1.00
  virtual crystal weights 
   VCA    =   1.00  1.00
   NELECT =     270.0000    total number of electrons
   NUPDOWN=      -1.0000    fix difference up-down

 DOS related values:
   EMIN   =  10.00;   EMAX   =-10.00  energy-range for DOS
   EFERMI =   0.00;   METHOD = LEGACY      
   ISMEAR =     0;   SIGMA  =   0.10  broadening in eV -4-tet -1-fermi 0-gaus
   EFERMI_NEDOS =   21; number of points for ismear=-14 and -15

 Electronic relaxation 2 (details)
   IALGO  =     38    algorithm
   LDIAG  =      F    sub-space diagonalisation (order eigenvalues)
   LSUBROT=      F    optimize rotation matrix (better conditioning)
   TURBO    =      0    0=normal 1=particle mesh
   IRESTART =      0    0=no restart 2=restart with 2 vectors
   NREBOOT  =      0    no. of reboots
   NMIN     =      0    reboot dimension
   EREF     =   0.00    reference energy to select bands
   IMIX   =      4    mixing-type and parameters
     AMIX     =   0.40;   BMIX     =  1.00
     AMIX_MAG =   1.60;   BMIX_MAG =  1.00
     AMIN     =   0.10
     WC   =   100.;   INIMIX=   1;  MIXPRE=   1;  MAXMIX= -45

 Intra band minimization:
   WEIMIN = 0.0000     energy-eigenvalue tresh-hold
   EBREAK =  0.14E-08  absolut break condition
   DEPER  =   0.30     relativ break condition  

   TIME   =   0.40     timestep for ELM

  volume/ion in A,a.u.               =      80.46       542.97
  Fermi-wavevector in a.u.,A,eV,Ry     =   0.597566  1.129236  4.858440  0.357085
  Thomas-Fermi vector in A             =   1.648340

 Write flags
   LWAVE        =      F    write WAVECAR
   LDOWNSAMPLE  =      F    k-point downsampling of WAVECAR
   LCHARG       =      F    write CHGCAR
   LVTOT        =      F    write LOCPOT, total local potential
   LVHAR        =      F    write LOCPOT, Hartree potential only
   WRT_POTENTIAL= false  ! write potential to hdf5 file
   LELF         =      F    write electronic localiz. function (ELF)
   LORBIT       =     11    0 simple, 1 ext, 2 COOP (PROOUT), +10 PAW based schemes


 Python interface
   PLUGINS active      =      F    recompile with -DPLUGINS to activate

 Dipole corrections
   LMONO      =      F    monopole corrections only (constant potential shift)
   LDIPOL     =      F    correct potential (dipole corrections)
   IDIPOL     =      0    1-x, 2-y, 3-z, 4-all directions 
   EPSILON    =  1.0000000 bulk dielectric constant
   LVACPOTAV  =      F  vacuum potentials using an averaging scheme for the charge density
   VACPOTFLAT =  0.1000000 required flatness to determine vacuum potential

Coulomb truncation method
  LTRUNCATE          =      F  Coulomb kernel truncation to be used
  IDIMENSIONALITY    =      3  Dimensionality of cutoff (0 molecules / 2 surfaces)
  ISURFACE           =     -1  Direction of surface normal
  LCOARSEN           =      F  Coarsen the charge grid before padding, preferred


 Exchange correlation treatment:
   METAGGA = SCAN    functional components
   XC_C    = 1    coefficients multiplying the functional components
   LIBXC   =     F    Libxc                    
   VOSKOWN =     0    Vosko Wilk Nusair interpolation
   LHFCALC =     F    Hartree Fock is set to
   LHFONE  =     F    Hartree Fock one center treatment
   AEXX    =    0.0000 exact exchange contribution

 Parameters of functionals:
   SCAN:
     P1 =  0.000000E+00
     P2 =  0.000000E+00
     P3 =  0.000000E+00

 Accuracy and mixing parameters for tau-dependent meta-GGA functionals:
   LMAXTAU = 6
   LMIXTAU = T

 Van der Waals corrections
   IVDW    =     0    specifies the selected vdW correction

 Linear response parameters
   LEPSILON=     F    determine dielectric tensor
   LRPA    =     F    only Hartree local field effects (RPA)
   LNABLA  =     F    use nabla operator in PAW spheres
   LVEL    =     F    velocity operator in full k-point grid
   CSHIFT  =0.1000    complex shift for real part using Kramers Kronig
   OMEGAMAX=  -1.0    maximum frequency
   DEG_THRESHOLD= 0.2000000E-02 threshold for treating states as degnerate
   RTIME   =   -0.100 relaxation time in fs
  (WPLASMAI=    0.000 imaginary part of plasma frequency in eV, 0.658/RTIME)
   DFIELD  = 0.0000000 0.0000000 0.0000000 field for delta impulse in time

  Optional k-point grid parameters
   LKPOINTS_OPT  =     F    use optional k-point grid
   KPOINTS_OPT_MODE=     1    mode for optional k-point grid

 Orbital magnetization related:
   ORBITALMAG=     F  switch on orbital magnetization
   LCHIMAG   =     F  perturbation theory with respect to B field
   DQ        =  0.001000  dq finite difference perturbation B field
   LLRAUG    =     F  two centre corrections for induced B field
   LBONE     =     F  B-component reconstruction in AE one-centre
   LVGVCALC  =     T  calculate vGv susceptibility
   LVGVAPPL  =     F  apply vGv susceptibility instead of pGv for G=0

 Random number generation:
   RANDOM_GENERATOR = DEFAULT
   PCG_SEED         = not used


--------------------------------------------------------------------------------------------------------


 Static calculation
 charge density and potential will be updated during run
 non-spin polarized calculation
 Variant of blocked Davidson
 perform Loewdin sub-space diagonalisation
    ordering is kept fixed
    before iterative eigenvector-optimisation
 modified Broyden-mixing scheme, WC =      100.0
 initial mixing is a Kerker type mixing with AMIX =  0.4000 and BMIX =      1.0000
 Hartree-type preconditioning will be used
 using additional bands           41
 reciprocal scheme for non local part
 use partial core corrections
 calculate Harris-corrections to forces   (improved forces if not selfconsistent)
 use gradient corrections 
 use of overlap-Matrix (Vanderbilt PP)
 Gauss-broadening in eV      SIGMA  =   0.10


--------------------------------------------------------------------------------------------------------


  energy-cutoff  :     1200.00
  volume of cell :     5551.76
      direct lattice vectors                 reciprocal lattice vectors
    14.528422447  0.000000000  0.000000000     0.068830598  0.000000000  0.000000000
     0.000000000 14.528422447  0.000000000     0.000000000  0.068830598  0.000000000
     0.000000000  0.000000000 26.302278900     0.000000000  0.000000000  0.038019519

  length of vectors
    14.528422447 14.528422447 26.302278900     0.068830598  0.068830598  0.038019519



 old parameters found on file WAVECAR:
  energy-cutoff  :     1200.00
  volume of cell :     5551.76
      direct lattice vectors                 reciprocal lattice vectors
    14.528422447  0.000000000  0.000000000     0.068830598  0.000000000  0.000000000
     0.000000000 14.528422447  0.000000000     0.000000000  0.068830598  0.000000000
     0.000000000  0.000000000 26.302278900     0.000000000  0.000000000  0.038019519

  length of vectors


 k-points in units of 2pi/SCALE and weight: read from INCAR                         
   0.00000000  0.00000000  0.00000000       0.125
   0.03441530  0.00000000  0.00000000       0.125
   0.00000000  0.03441530  0.00000000       0.125
   0.03441530  0.03441530  0.00000000       0.125
   0.00000000  0.00000000  0.01900976       0.125
   0.03441530  0.00000000  0.01900976       0.125
   0.00000000  0.03441530  0.01900976       0.125
   0.03441530  0.03441530  0.01900976       0.125

 k-points in reciprocal lattice and weights: read from INCAR                         
   0.00000000  0.00000000  0.00000000       0.125
   0.50000000  0.00000000  0.00000000       0.125
   0.00000000  0.50000000  0.00000000       0.125
   0.50000000  0.50000000  0.00000000       0.125
   0.00000000  0.00000000  0.50000000       0.125
   0.50000000  0.00000000  0.50000000       0.125
   0.00000000  0.50000000  0.50000000       0.125
   0.50000000  0.50000000  0.50000000       0.125

 position of ions in fractional coordinates (direct lattice) 
   0.27395273  0.35651732  0.62072133
   0.70769947  0.11682880  0.36242957
   0.47667666  0.94580443  0.50119405
   0.82114054  0.62644713  0.56544215
   0.02994890  0.47027423  0.55847696
   0.02584709  0.77910670  0.52718894
   0.89579537  0.77368572  0.47527327
   0.28534904  0.33621727  0.56573178
   0.32792829  0.00409348  0.51088969
   0.40149562  0.71397797  0.49364515
   0.40315337  0.04265188  0.63252252
   0.59882315  0.78113687  0.42528216
   0.13320184  0.66063505  0.51053207
   0.96099466  0.99364743  0.42167782
   0.87645821  0.29555792  0.54191578
   0.40434747  0.23415861  0.46499587
   0.60690732  0.61878110  0.40081448
   0.45580280  0.77667689  0.63151150
   0.55086426  0.52304199  0.56455162
   0.04910495  0.07447595  0.54713662
   0.97635990  0.50868446  0.47565797
   0.89857038  0.04907710  0.57814758
   0.54657006  0.25582091  0.60094228
   0.25109891  0.76297445  0.49358588
   0.74797808  0.40002777  0.43291088
   0.49099757  0.51052056  0.42395490
   0.17845525  0.20606036  0.54701585
   0.88642972  0.77328750  0.56877545
   0.51897787  0.18630880  0.40560607
   0.02190566  0.27364049  0.45297855
   0.63547787  0.77515797  0.51325974
   0.68322416  0.14866669  0.48197622
   0.97031651  0.12283851  0.47211238
   0.65057902  0.07812357  0.40401646
   0.85903435  0.61862681  0.47791050
   0.15856939  0.30888251  0.41087110
   0.27718885  0.47675460  0.52184265
   0.88861765  0.50087441  0.60400834
   0.19023796  0.44878040  0.44830423
   0.48956457  0.80624595  0.54804892
   0.50743754  0.34699041  0.43278582
   0.78378377  0.38577220  0.59121235
   0.60874580  0.02884581  0.52804720
   0.54630698  0.09590924  0.60191113
   0.42833531  0.55037605  0.50281348
   0.68569290  0.91572713  0.40487947
   0.66948352  0.61858064  0.53438339
   0.25136605  0.88504453  0.55163743
   0.24244930  0.04014623  0.43775225
   0.82355770  0.91121192  0.59682065
   0.44979605  0.83586849  0.43656729
   0.64172033  0.31018875  0.47793848
   0.20097371  0.82049789  0.41370977
   0.32591647  0.91658514  0.39595299
   0.04006349  0.30934401  0.54177098
   0.89559326  0.37164683  0.46166372
   0.10039359  0.57556069  0.43378211
   0.35080987  0.89245998  0.62264476
   0.62999332  0.37575622  0.56102279
   0.11094008  0.94255656  0.44408611
   0.41454815  0.24416871  0.55373047
   0.72664037  0.91201562  0.52619191
   0.83339905  0.14717929  0.51761905
   0.31750389  0.11996384  0.57225511
   0.71740421  0.55595994  0.45342577
   0.09968847  0.92293640  0.53242891
   0.24135844  0.20108286  0.45844513
   0.16654467  0.55520662  0.57421884
   0.82575852  0.91013628  0.44923161

 position of ions in cartesian coordinates  (Angst):
   3.98010102  5.17963426 16.32638566
  10.28175690  1.69733822  9.53272361
   6.92535992 13.74104634 13.18254564
  11.92987667  9.10128857 14.87241715
   0.43511032  6.83234264 14.68921666
   0.37551739 11.31919130 13.86627061
  13.01449356 11.24043301 12.50077018
   4.14567136  4.88470657 14.88003508
   4.76428075  0.05947183 13.43756318
   5.83309801 10.37297354 12.98399229
   5.85718240  0.61966447 16.63678386
   8.69995575 11.34868647 11.18589005
   1.93521267  9.59798516 13.42815687
  13.96173639 14.43612964 11.09108753
  12.73355516  4.29399030 14.25362000
   5.87453083  3.40195527 12.23045107
   8.81740597  8.98991317 10.54233431
   6.62209562 11.28388998 16.61019150
   8.00318863  7.59897495 14.84899422
   0.71341748  1.08201809 14.39094007
  14.18496913  7.39038268 12.51088860
  13.05481003  0.71301282 15.20659889
   7.94080067  3.71667431 15.80615150
   3.64807102 11.08481514 12.98243350
  10.86694159  5.81177242 11.38654258
   7.13342008  7.41705837 11.15097997
   2.59267333  2.99373198 14.38776355
  12.87842537 11.23464749 14.96009057
   7.53992971  2.70677288 10.66836392
   0.31825471  3.97556457 11.91436822
   9.23249096 11.26182238 13.49990081
   9.92616928  2.15989251 12.67707288
  14.09716815  1.78464974 12.41763149
   9.45188686  1.13501229 10.62655366
  12.48041391  8.98767163 12.57013522
   2.30376311  4.48757552 10.80684638
   4.02711666  6.92649221 13.72565104
  12.91021258  7.27691497 15.88679593
   2.76385746  6.52007120 11.79142278
   7.11260082 11.71348179 14.41493563
   7.37226689  5.04122330 11.38325327
  11.38714169  5.60466151 15.55023213
   8.84411611  0.41908414 13.88884470
   7.93697859  1.39340991 15.83163445
   6.22303626  7.99609572 13.22514039
   9.96203613 13.30407052 10.64925286
   9.72653946  8.98700087 14.05550087
   3.65195218 12.85830085 14.50932151
   3.52240587  0.58326141 11.51388165
  11.96499423 13.23847178 15.69774322
   6.53482703 12.14385056 11.48271462
   9.32318402  4.50655313 12.57087110
   2.91983099 11.92053998 10.88150971
   4.73505213 13.31653619 10.41446587
   0.58205938  4.49428051 14.24981143
  13.01155724  5.39944211 12.14280785
   1.45856047  8.36198889 11.40945811
   5.09671406 12.96603563 16.37697601
   9.15280908  5.45914505 14.75617783
   1.61178429 13.69385984 11.68047685
   6.02273058  3.54738621 14.56437330
  10.55693822 13.25014817 13.84004638
  12.10797352  2.13828296 13.61456055
   4.61283067  1.74288538 15.05161354
  10.42275144  8.07722091 11.92613096
   1.44831615 13.40880996 14.00409381
   3.50655743  2.92141669 12.05815160
   2.41963130  8.06627631 15.10326402
  11.99696865 13.22284439 11.81581498



--------------------------------------------------------------------------------------------------------


 k-point     1 :   0.0000 0.0000 0.0000  plane waves:  523853
 k-point     2 :   0.5000 0.0000 0.0000  plane waves:  523962
 k-point     3 :   0.0000 0.5000 0.0000  plane waves:  523962
 k-point     4 :   0.5000 0.5000 0.0000  plane waves:  524204
 k-point     5 :   0.0000 0.0000 0.5000  plane waves:  523844
 k-point     6 :   0.5000 0.0000 0.5000  plane waves:  524076
 k-point     7 :   0.0000 0.5000 0.5000  plane waves:  524076
 k-point     8 :   0.5000 0.5000 0.5000  plane waves:  523912

 maximum and minimum number of plane-waves per node :     32820    32672

 maximum number of plane-waves:    524204
 maximum index in each direction: 
   IXMAX=   41   IYMAX=   41   IZMAX=   74
   IXMIN=  -41   IYMIN=  -41   IZMIN=  -74


 parallel 3D FFT for wavefunctions:
    minimum data exchange during FFTs selected (reduces bandwidth)
 parallel 3D FFT for charge:
    minimum data exchange during FFTs selected (reduces bandwidth)


 total amount of memory used by VASP MPI-rank0   372989. kBytes
=======================================================================

   base                                    :      30000. kBytes
   nonl-proj                               :      69747. kBytes
   fftplans                                :     102068. kBytes
   grid                                    :      78750. kBytes
   one-center                              :         15. kBytes
   wavefun                                 :      92409. kBytes

     INWAV:  cpu time     27.8291: real time     27.8471
 Broyden mixing: mesh for mixing (old mesh)
   NGX = 83   NGY = 83   NGZ =149
  (NGX  =336   NGY  =336   NGZ  =600)
  gives a total of ****** points

 initial charge density was supplied:
 number of electron     269.9999999 magnetization 
 keeping initial charge density in first step


--------------------------------------------------------------------------------------------------------


 Maximum index for augmentation-charges        11387 (set IRDMAX)


--------------------------------------------------------------------------------------------------------


 First call to EWALD:  gamma=   0.100
 Maximum number of real-space cells   3x   3x   2
 Maximum number of reciprocal cells   2x   2x   4

    FEWALD:  cpu time      0.0144: real time      0.0144


--------------------------------------- Ionic step        1  -------------------------------------------




--------------------------------------- Iteration      1(   1)  ---------------------------------------


    POTLOK:  cpu time      2.0066: real time      2.0077
    SETDIJ:  cpu time      1.3866: real time      1.3872
    EDDIAG:  cpu time     54.2521: real time     54.2811
     EDDAV:  cpu time    239.8115: real time    239.9543
       DOS:  cpu time      0.0081: real time      0.0085
    CHARGE:  cpu time     30.4599: real time     30.4872
    MIXING:  cpu time      0.0495: real time      0.0504
    --------------------------------------------
      LOOP:  cpu time    327.9744: real time    328.1765

 eigenvalue-minimisations  :  2816
 total energy-change (2. order) :-0.6786943E+03  (-0.7637083E+00)
 number of electron     269.9999999 magnetization 
 augmentation part      -15.2050378 magnetization 

 Broyden mixing:
  rms(total) = 0.98983E+00    rms(broyden)= 0.23532E+02
  rms(prec ) = 0.10188E+01
  weight for this iteration     100.00
  WARNING: grid for Broyden might be to small

 Free energy of the ion-electron system (eV)
  ---------------------------------------------------
  alpha Z        PSCENC =        27.65918844
  Ewald energy   TEWEN  =     33779.01757817
  -Hartree energ DENC   =    -39760.43391665
  -exchange      EXHF   =         0.00000000
  -V(xc)+E(xc)   XCENC  =      -328.78276790
  PAW double counting   =     23956.01187487   -23287.68238058
  entropy T*S    EENTRO =        -0.12355882
  eigenvalues    EBANDS =     -1994.81508222
  atomic energy  EATOM  =      6930.45472119
  Solvation  Ediel_sol  =         0.00000000
  ---------------------------------------------------
  free energy    TOTEN  =      -678.69434352 eV

  energy without entropy =     -678.57078470  energy(sigma->0) =     -678.63256411


--------------------------------------------------------------------------------------------------------




--------------------------------------- Iteration      1(   2)  ---------------------------------------


    POTLOK:  cpu time      1.9741: real time      1.9969
    SETDIJ:  cpu time      1.3802: real time      1.3809
    EDDIAG:  cpu time     54.1934: real time     54.2243
     EDDAV:  cpu time    242.6555: real time    242.8120
       DOS:  cpu time      0.0038: real time      0.0038
    CHARGE:  cpu time     30.3664: real time     30.3949
    MIXING:  cpu time      0.0440: real time      0.0442
    --------------------------------------------
      LOOP:  cpu time    330.6174: real time    330.8569

 eigenvalue-minimisations  :  2880
 total energy-change (2. order) : 0.4729264E+02  (-0.7070229E+00)
 number of electron     269.9999999 magnetization 
 augmentation part      -15.1450616 magnetization 

 Broyden mixing:
  rms(total) = 0.67512E+00    rms(broyden)= 0.13612E+02
  rms(prec ) = 0.68970E+00
  weight for this iteration     100.00
  WARNING: grid for Broyden might be to small

 eigenvalues of (default mixing * dielectric matrix)
  average eigenvalue GAMMA=   0.6336
  0.6336

 Free energy of the ion-electron system (eV)
  ---------------------------------------------------
  alpha Z        PSCENC =        27.65918844
  Ewald energy   TEWEN  =     33779.01757817
  -Hartree energ DENC   =    -39750.21277926
  -exchange      EXHF   =         0.00000000
  -V(xc)+E(xc)   XCENC  =      -321.80217378
  PAW double counting   =     28648.48470485   -27979.99417269
  entropy T*S    EENTRO =        -0.11936620
  eigenvalues    EBANDS =     -1964.88940164
  atomic energy  EATOM  =      6930.45472119
  Solvation  Ediel_sol  =         0.00000000
  ---------------------------------------------------
  free energy    TOTEN  =      -631.40170094 eV

  energy without entropy =     -631.28233473  energy(sigma->0) =     -631.34201784


--------------------------------------------------------------------------------------------------------




--------------------------------------- Iteration      1(   3)  ---------------------------------------


    POTLOK:  cpu time      1.9586: real time      1.9887
    SETDIJ:  cpu time      1.3802: real time      1.3808
    EDDIAG:  cpu time     54.2550: real time     54.2819
     EDDAV:  cpu time    239.7204: real time    239.8638
       DOS:  cpu time      0.0045: real time      0.0045
    CHARGE:  cpu time     30.4199: real time     30.4469
    MIXING:  cpu time      0.0401: real time      0.0401
    --------------------------------------------
      LOOP:  cpu time    327.7786: real time    328.0067

 eigenvalue-minimisations  :  2816
 total energy-change (2. order) :-0.2496460E+01  (-0.5748822E+00)
 number of electron     269.9999999 magnetization 
 augmentation part      -15.0936199 magnetization 

 Broyden mixing:
  rms(total) = 0.27104E+00    rms(broyden)= 0.20646E+02
  rms(prec ) = 0.34223E+00
  weight for this iteration     100.00
  WARNING: grid for Broyden might be to small

 eigenvalues of (default mixing * dielectric matrix)
  average eigenvalue GAMMA=   0.7986
  0.9706  0.6266

 Free energy of the ion-electron system (eV)
  ---------------------------------------------------
  alpha Z        PSCENC =        27.65918844
  Ewald energy   TEWEN  =     33779.01757817
  -Hartree energ DENC   =    -39752.42595493
  -exchange      EXHF   =         0.00000000
  -V(xc)+E(xc)   XCENC  =      -324.29773713
  PAW double counting   =     34311.24843356   -33642.86256568
  entropy T*S    EENTRO =        -0.11840233
  eigenvalues    EBANDS =     -1962.57342177
  atomic energy  EATOM  =      6930.45472119
  Solvation  Ediel_sol  =         0.00000000
  ---------------------------------------------------
  free energy    TOTEN  =      -633.89816049 eV

  energy without entropy =     -633.77975816  energy(sigma->0) =     -633.83895932


--------------------------------------------------------------------------------------------------------




--------------------------------------- Iteration      1(   4)  ---------------------------------------


    POTLOK:  cpu time      1.9665: real time      1.9966
    SETDIJ:  cpu time      1.3801: real time      1.3807
    EDDIAG:  cpu time     54.2523: real time     54.2809
     EDDAV:  cpu time    244.8137: real time    244.9642
       DOS:  cpu time      0.0034: real time      0.0034
    CHARGE:  cpu time     30.3715: real time     30.3969
    MIXING:  cpu time      0.0403: real time      0.0403
    --------------------------------------------
      LOOP:  cpu time    332.8277: real time    333.0631

 eigenvalue-minimisations  :  2928
 total energy-change (2. order) : 0.3602624E+00  (-0.6218034E-01)
 number of electron     269.9999999 magnetization 
 augmentation part      -15.0867408 magnetization 

 Broyden mixing:
  rms(total) = 0.49115E-01    rms(broyden)= 0.20187E+01
  rms(prec ) = 0.56771E-01
  weight for this iteration     100.00
  WARNING: grid for Broyden might be to small

 eigenvalues of (default mixing * dielectric matrix)
  average eigenvalue GAMMA=   1.1831
  2.1981  0.7311  0.6201

 Free energy of the ion-electron system (eV)
  ---------------------------------------------------
  alpha Z        PSCENC =        27.65918844
  Ewald energy   TEWEN  =     33779.01757817
  -Hartree energ DENC   =    -39753.78647812
  -exchange      EXHF   =         0.00000000
  -V(xc)+E(xc)   XCENC  =      -324.95355555
  PAW double counting   =     38584.78505691   -37916.43275309
  entropy T*S    EENTRO =        -0.11979717
  eigenvalues    EBANDS =     -1960.16185885
  atomic energy  EATOM  =      6930.45472119
  Solvation  Ediel_sol  =         0.00000000
  ---------------------------------------------------
  free energy    TOTEN  =      -633.53789809 eV

  energy without entropy =     -633.41810092  energy(sigma->0) =     -633.47799950


--------------------------------------------------------------------------------------------------------




--------------------------------------- Iteration      1(   5)  ---------------------------------------


    POTLOK:  cpu time      1.9655: real time      1.9897
    SETDIJ:  cpu time      1.3785: real time      1.3791
    EDDIAG:  cpu time     54.2541: real time     54.2804
     EDDAV:  cpu time    272.8833: real time    273.0503
       DOS:  cpu time      0.0029: real time      0.0029
    CHARGE:  cpu time     30.3699: real time     30.3981
    MIXING:  cpu time      0.0408: real time      0.0408
    --------------------------------------------
      LOOP:  cpu time    360.8950: real time    361.1413

 eigenvalue-minimisations  :  3520
 total energy-change (2. order) :-0.2965316E-01  (-0.6342114E-02)
 number of electron     269.9999999 magnetization 
 augmentation part      -15.0887331 magnetization 

 Broyden mixing:
  rms(total) = 0.32108E-01    rms(broyden)= 0.23476E+00
  rms(prec ) = 0.36272E-01
  weight for this iteration     100.00
  WARNING: grid for Broyden might be to small

 eigenvalues of (default mixing * dielectric matrix)
  average eigenvalue GAMMA=   1.1612
  2.5761  0.8327  0.6219  0.6141

 Free energy of the ion-electron system (eV)
  ---------------------------------------------------
  alpha Z        PSCENC =        27.65918844
  Ewald energy   TEWEN  =     33779.01757817
  -Hartree energ DENC   =    -39753.63512757
  -exchange      EXHF   =         0.00000000
  -V(xc)+E(xc)   XCENC  =      -325.77138829
  PAW double counting   =     38083.96435786   -37415.58517054
  entropy T*S    EENTRO =        -0.11814753
  eigenvalues    EBANDS =     -1959.55356296
  atomic energy  EATOM  =      6930.45472119
  Solvation  Ediel_sol  =         0.00000000
  ---------------------------------------------------
  free energy    TOTEN  =      -633.56755125 eV

  energy without entropy =     -633.44940372  energy(sigma->0) =     -633.50847748


--------------------------------------------------------------------------------------------------------




--------------------------------------- Iteration      1(   6)  ---------------------------------------


    POTLOK:  cpu time      1.9857: real time      1.9920
    SETDIJ:  cpu time      1.3817: real time      1.3825
    EDDIAG:  cpu time     54.2334: real time     54.2631
     EDDAV:  cpu time    257.4458: real time    257.6017
       DOS:  cpu time      0.0042: real time      0.0043
    CHARGE:  cpu time     30.3760: real time     30.4026
    MIXING:  cpu time      0.0415: real time      0.0419
    --------------------------------------------
      LOOP:  cpu time    345.4683: real time    345.6881

 eigenvalue-minimisations  :  3192
 total energy-change (2. order) :-0.3297844E-02  (-0.1335475E-02)
 number of electron     269.9999999 magnetization 
 augmentation part      -15.0881991 magnetization 

 Broyden mixing:
  rms(total) = 0.21974E-01    rms(broyden)= 0.15228E+00
  rms(prec ) = 0.23761E-01
  weight for this iteration     100.00
  WARNING: grid for Broyden might be to small

 eigenvalues of (default mixing * dielectric matrix)
  average eigenvalue GAMMA=   1.1142
  2.5618  1.0625  0.7399  0.6288  0.5777

 Free energy of the ion-electron system (eV)
  ---------------------------------------------------
  alpha Z        PSCENC =        27.65918844
  Ewald energy   TEWEN  =     33779.01757817
  -Hartree energ DENC   =    -39753.73507649
  -exchange      EXHF   =         0.00000000
  -V(xc)+E(xc)   XCENC  =      -325.90386175
  PAW double counting   =     38007.41456480   -37339.02348497
  entropy T*S    EENTRO =        -0.11909322
  eigenvalues    EBANDS =     -1959.33538527
  atomic energy  EATOM  =      6930.45472119
  Solvation  Ediel_sol  =         0.00000000
  ---------------------------------------------------
  free energy    TOTEN  =      -633.57084909 eV

  energy without entropy =     -633.45175587  energy(sigma->0) =     -633.51130248


--------------------------------------------------------------------------------------------------------




--------------------------------------- Iteration      1(   7)  ---------------------------------------


    POTLOK:  cpu time      1.9677: real time      1.9947
    SETDIJ:  cpu time      1.3886: real time      1.3892
    EDDIAG:  cpu time     54.2426: real time     54.2725
     EDDAV:  cpu time    246.7200: real time    246.8726
       DOS:  cpu time      0.0040: real time      0.0040
    CHARGE:  cpu time     30.4310: real time     30.4561
    MIXING:  cpu time      0.0411: real time      0.0411
    --------------------------------------------
      LOOP:  cpu time    334.7949: real time    335.0302

 eigenvalue-minimisations  :  2960
 total energy-change (2. order) :-0.1305204E-02  (-0.8281940E-03)
 number of electron     269.9999999 magnetization 
 augmentation part      -15.0861484 magnetization 

 Broyden mixing:
  rms(total) = 0.70051E-02    rms(broyden)= 0.79629E-01
  rms(prec ) = 0.77553E-02
  weight for this iteration     100.00
  WARNING: grid for Broyden might be to small

 eigenvalues of (default mixing * dielectric matrix)
  average eigenvalue GAMMA=   1.0798
  2.5468  1.3498  0.8164  0.6263  0.6263  0.5131

 Free energy of the ion-electron system (eV)
  ---------------------------------------------------
  alpha Z        PSCENC =        27.65918844
  Ewald energy   TEWEN  =     33779.01757817
  -Hartree energ DENC   =    -39753.88749090
  -exchange      EXHF   =         0.00000000
  -V(xc)+E(xc)   XCENC  =      -325.74961922
  PAW double counting   =     38007.44919819   -37339.04294877
  entropy T*S    EENTRO =        -0.11901968
  eigenvalues    EBANDS =     -1959.35376172
  atomic energy  EATOM  =      6930.45472119
  Solvation  Ediel_sol  =         0.00000000
  ---------------------------------------------------
  free energy    TOTEN  =      -633.57215430 eV

  energy without entropy =     -633.45313462  energy(sigma->0) =     -633.51264446


--------------------------------------------------------------------------------------------------------




--------------------------------------- Iteration      1(   8)  ---------------------------------------


    POTLOK:  cpu time      1.9628: real time      1.9903
    SETDIJ:  cpu time      1.3829: real time      1.3835
    EDDIAG:  cpu time     54.2745: real time     54.3021
     EDDAV:  cpu time    252.7544: real time    252.9117
       DOS:  cpu time      0.0067: real time      0.0067
    CHARGE:  cpu time     30.3621: real time     30.3897
    MIXING:  cpu time      0.0427: real time      0.0427
    --------------------------------------------
      LOOP:  cpu time    340.7859: real time    341.0266

 eigenvalue-minimisations  :  3088
 total energy-change (2. order) :-0.3251345E-03  (-0.1367950E-03)
 number of electron     269.9999999 magnetization 
 augmentation part      -15.0860572 magnetization 

 Broyden mixing:
  rms(total) = 0.25064E-02    rms(broyden)= 0.38119E-01
  rms(prec ) = 0.30190E-02
  weight for this iteration     100.00
  WARNING: grid for Broyden might be to small

 eigenvalues of (default mixing * dielectric matrix)
  average eigenvalue GAMMA=   1.1809
  2.5079  2.1690  1.0128  0.8190  0.4924  0.6399  0.6252

 Free energy of the ion-electron system (eV)
  ---------------------------------------------------
  alpha Z        PSCENC =        27.65918844
  Ewald energy   TEWEN  =     33779.01757817
  -Hartree energ DENC   =    -39753.80045964
  -exchange      EXHF   =         0.00000000
  -V(xc)+E(xc)   XCENC  =      -325.73699516
  PAW double counting   =     38042.87491523   -37374.46306169
  entropy T*S    EENTRO =        -0.11887517
  eigenvalues    EBANDS =     -1959.45949081
  atomic energy  EATOM  =      6930.45472119
  Solvation  Ediel_sol  =         0.00000000
  ---------------------------------------------------
  free energy    TOTEN  =      -633.57247943 eV

  energy without entropy =     -633.45360427  energy(sigma->0) =     -633.51304185


--------------------------------------------------------------------------------------------------------




--------------------------------------- Iteration      1(   9)  ---------------------------------------


    POTLOK:  cpu time      1.9679: real time      1.9962
    SETDIJ:  cpu time      1.3856: real time      1.3861
    EDDIAG:  cpu time     54.2231: real time     54.2525
     EDDAV:  cpu time    257.1947: real time    257.3470
       DOS:  cpu time      0.0045: real time      0.0045
    CHARGE:  cpu time     30.3938: real time     30.4204
    MIXING:  cpu time      0.0433: real time      0.0433
    --------------------------------------------
      LOOP:  cpu time    345.2132: real time    345.4503

 eigenvalue-minimisations  :  3184
 total energy-change (2. order) :-0.6392500E-05  (-0.3761503E-04)
 number of electron     269.9999999 magnetization 
 augmentation part      -15.0862493 magnetization 

 Broyden mixing:
  rms(total) = 0.16719E-02    rms(broyden)= 0.78418E-02
  rms(prec ) = 0.19041E-02
  weight for this iteration     100.00
  WARNING: grid for Broyden might be to small

 eigenvalues of (default mixing * dielectric matrix)
  average eigenvalue GAMMA=   1.2024
  2.6409  2.6409  1.0607  0.8708  0.4877  0.6530  0.6530  0.6123

 Free energy of the ion-electron system (eV)
  ---------------------------------------------------
  alpha Z        PSCENC =        27.65918844
  Ewald energy   TEWEN  =     33779.01757817
  -Hartree energ DENC   =    -39753.67100294
  -exchange      EXHF   =         0.00000000
  -V(xc)+E(xc)   XCENC  =      -325.76985771
  PAW double counting   =     38049.56404360   -37381.15167165
  entropy T*S    EENTRO =        -0.11895686
  eigenvalues    EBANDS =     -1959.55652806
  atomic energy  EATOM  =      6930.45472119
  Solvation  Ediel_sol  =         0.00000000
  ---------------------------------------------------
  free energy    TOTEN  =      -633.57248583 eV

  energy without entropy =     -633.45352897  energy(sigma->0) =     -633.51300740


--------------------------------------------------------------------------------------------------------




--------------------------------------- Iteration      1(  10)  ---------------------------------------


    POTLOK:  cpu time      1.9685: real time      1.9973
    SETDIJ:  cpu time      1.3869: real time      1.3876
    EDDIAG:  cpu time     54.2536: real time     54.2836
     EDDAV:  cpu time    251.5642: real time    251.7191
       DOS:  cpu time      0.0029: real time      0.0029
    CHARGE:  cpu time     30.3619: real time     30.3911
    MIXING:  cpu time      0.0444: real time      0.0445
    --------------------------------------------
      LOOP:  cpu time    339.5821: real time    339.8259

 eigenvalue-minimisations  :  3064
 total energy-change (2. order) :-0.5854071E-04  (-0.1722775E-04)
 number of electron     269.9999999 magnetization 
 augmentation part      -15.0862898 magnetization 

 Broyden mixing:
  rms(total) = 0.88302E-03    rms(broyden)= 0.46416E-02
  rms(prec ) = 0.10612E-02
  weight for this iteration     100.00
  WARNING: grid for Broyden might be to small

 eigenvalues of (default mixing * dielectric matrix)
  average eigenvalue GAMMA=   1.1723
  2.7114  2.7114  1.0028  1.0028  0.8240  0.6413  0.6248  0.4877  0.5443

 Free energy of the ion-electron system (eV)
  ---------------------------------------------------
  alpha Z        PSCENC =        27.65918844
  Ewald energy   TEWEN  =     33779.01757817
  -Hartree energ DENC   =    -39753.52986573
  -exchange      EXHF   =         0.00000000
  -V(xc)+E(xc)   XCENC  =      -325.77970907
  PAW double counting   =     38045.05236734   -37376.63909066
  entropy T*S    EENTRO =        -0.11893524
  eigenvalues    EBANDS =     -1959.68879880
  atomic energy  EATOM  =      6930.45472119
  Solvation  Ediel_sol  =         0.00000000
  ---------------------------------------------------
  free energy    TOTEN  =      -633.57254437 eV

  energy without entropy =     -633.45360912  energy(sigma->0) =     -633.51307674


--------------------------------------------------------------------------------------------------------




--------------------------------------- Iteration      1(  11)  ---------------------------------------


    POTLOK:  cpu time      2.0185: real time      2.0437
    SETDIJ:  cpu time      1.3877: real time      1.3885
    EDDIAG:  cpu time     54.2793: real time     54.3065
     EDDAV:  cpu time    245.7655: real time    245.9192
       DOS:  cpu time      0.0086: real time      0.0090
    CHARGE:  cpu time     30.4048: real time     30.4312
    MIXING:  cpu time      0.0614: real time      0.0621
    --------------------------------------------
      LOOP:  cpu time    333.9258: real time    334.1602

 eigenvalue-minimisations  :  2944
 total energy-change (2. order) :-0.7961366E-04  (-0.1548741E-04)
 number of electron     269.9999999 magnetization 
 augmentation part      -15.0863257 magnetization 

 Broyden mixing:
  rms(total) = 0.37211E-03    rms(broyden)= 0.43071E-02
  rms(prec ) = 0.54012E-03
  weight for this iteration     100.00
  WARNING: grid for Broyden might be to small

 eigenvalues of (default mixing * dielectric matrix)
  average eigenvalue GAMMA=   1.2134
  2.7945  2.7945  1.5628  1.0662  0.8772  0.7170  0.4860  0.6307  0.6027  0.6027

 Free energy of the ion-electron system (eV)
  ---------------------------------------------------
  alpha Z        PSCENC =        27.65918844
  Ewald energy   TEWEN  =     33779.01757817
  -Hartree energ DENC   =    -39753.36392309
  -exchange      EXHF   =         0.00000000
  -V(xc)+E(xc)   XCENC  =      -325.78526642
  PAW double counting   =     38043.31227895   -37374.89833457
  entropy T*S    EENTRO =        -0.11894155
  eigenvalues    EBANDS =     -1959.84992509
  atomic energy  EATOM  =      6930.45472119
  Solvation  Ediel_sol  =         0.00000000
  ---------------------------------------------------
  free energy    TOTEN  =      -633.57262398 eV

  energy without entropy =     -633.45368243  energy(sigma->0) =     -633.51315321


--------------------------------------------------------------------------------------------------------




--------------------------------------- Iteration      1(  12)  ---------------------------------------


    POTLOK:  cpu time      1.9923: real time      1.9951
    SETDIJ:  cpu time      1.3885: real time      1.3900
    EDDIAG:  cpu time     54.2168: real time     54.2434
     EDDAV:  cpu time    245.9528: real time    246.1049
       DOS:  cpu time      0.0115: real time      0.0121
    CHARGE:  cpu time     30.3339: real time     30.3751
    MIXING:  cpu time      0.0625: real time      0.0630
    --------------------------------------------
      LOOP:  cpu time    333.9587: real time    334.1841

 eigenvalue-minimisations  :  2944
 total energy-change (2. order) :-0.8336430E-04  (-0.1017157E-04)
 number of electron     269.9999999 magnetization 
 augmentation part      -15.0863667 magnetization 

 Broyden mixing:
  rms(total) = 0.24335E-03    rms(broyden)= 0.33460E-02
  rms(prec ) = 0.38633E-03
  weight for this iteration     100.00
  WARNING: grid for Broyden might be to small

 eigenvalues of (default mixing * dielectric matrix)
  average eigenvalue GAMMA=   1.2483
  2.9583  2.7465  1.9197  1.1681  1.0296  0.8920  0.4880  0.6799  0.6211  0.6211
  0.6075

 Free energy of the ion-electron system (eV)
  ---------------------------------------------------
  alpha Z        PSCENC =        27.65918844
  Ewald energy   TEWEN  =     33779.01757817
  -Hartree energ DENC   =    -39753.25466833
  -exchange      EXHF   =         0.00000000
  -V(xc)+E(xc)   XCENC  =      -325.79120579
  PAW double counting   =     38044.30874344   -37375.89498316
  entropy T*S    EENTRO =        -0.11893053
  eigenvalues    EBANDS =     -1959.95315077
  atomic energy  EATOM  =      6930.45472119
  Solvation  Ediel_sol  =         0.00000000
  ---------------------------------------------------
  free energy    TOTEN  =      -633.57270734 eV

  energy without entropy =     -633.45377681  energy(sigma->0) =     -633.51324208


--------------------------------------------------------------------------------------------------------




--------------------------------------- Iteration      1(  13)  ---------------------------------------


    POTLOK:  cpu time      1.9786: real time      2.0012
    SETDIJ:  cpu time      1.3931: real time      1.3947
    EDDIAG:  cpu time     54.2212: real time     54.2494
     EDDAV:  cpu time    245.9886: real time    246.1387
       DOS:  cpu time      0.0026: real time      0.0026
    CHARGE:  cpu time     30.3363: real time     30.3628
    MIXING:  cpu time      0.0462: real time      0.0462
    --------------------------------------------
      LOOP:  cpu time    333.9662: real time    334.1951

 eigenvalue-minimisations  :  2944
 total energy-change (2. order) :-0.9717713E-04  (-0.1480405E-04)
 number of electron     269.9999999 magnetization 
 augmentation part      -15.0863965 magnetization 

 Broyden mixing:
  rms(total) = 0.14844E-03    rms(broyden)= 0.30227E-02
  rms(prec ) = 0.26241E-03
  weight for this iteration     100.00
  WARNING: grid for Broyden might be to small

 eigenvalues of (default mixing * dielectric matrix)
  average eigenvalue GAMMA=   1.2696
  3.2143  2.6751  2.3088  1.3365  1.0483  0.8293  0.8293  0.4889  0.6461  0.6461
  0.6065  0.6065

 Free energy of the ion-electron system (eV)
  ---------------------------------------------------
  alpha Z        PSCENC =        27.65918844
  Ewald energy   TEWEN  =     33779.01757817
  -Hartree energ DENC   =    -39753.13765666
  -exchange      EXHF   =         0.00000000
  -V(xc)+E(xc)   XCENC  =      -325.79523683
  PAW double counting   =     38044.41866144   -37376.00517279
  entropy T*S    EENTRO =        -0.11893322
  eigenvalues    EBANDS =     -1960.06595426
  atomic energy  EATOM  =      6930.45472119
  Solvation  Ediel_sol  =         0.00000000
  ---------------------------------------------------
  free energy    TOTEN  =      -633.57280452 eV

  energy without entropy =     -633.45387130  energy(sigma->0) =     -633.51333791


--------------------------------------------------------------------------------------------------------




--------------------------------------- Iteration      1(  14)  ---------------------------------------


    POTLOK:  cpu time      1.9753: real time      1.9968
    SETDIJ:  cpu time      1.3848: real time      1.3858
    EDDIAG:  cpu time     54.2440: real time     54.2719
     EDDAV:  cpu time    246.7203: real time    246.8647
       DOS:  cpu time      0.0055: real time      0.0055
    CHARGE:  cpu time     30.3674: real time     30.3917
    MIXING:  cpu time      0.0466: real time      0.0466
    --------------------------------------------
      LOOP:  cpu time    334.7437: real time    334.9629

 eigenvalue-minimisations  :  2960
 total energy-change (2. order) :-0.9860040E-04  (-0.1677870E-04)
 number of electron     269.9999999 magnetization 
 augmentation part      -15.0864223 magnetization 

 Broyden mixing:
  rms(total) = 0.10304E-03    rms(broyden)= 0.31500E-02
  rms(prec ) = 0.17180E-03
  weight for this iteration     100.00
  WARNING: grid for Broyden might be to small

 eigenvalues of (default mixing * dielectric matrix)
  average eigenvalue GAMMA=   1.3285
  3.5671  2.6461  2.6461  1.6098  1.1604  1.0710  0.8706  0.4888  0.6993  0.6480
  0.6480  0.6235  0.5910

 Free energy of the ion-electron system (eV)
  ---------------------------------------------------
  alpha Z        PSCENC =        27.65918844
  Ewald energy   TEWEN  =     33779.01757817
  -Hartree energ DENC   =    -39753.01820841
  -exchange      EXHF   =         0.00000000
  -V(xc)+E(xc)   XCENC  =      -325.79778940
  PAW double counting   =     38044.06738137   -37375.65410401
  entropy T*S    EENTRO =        -0.11893094
  eigenvalues    EBANDS =     -1960.18273952
  atomic energy  EATOM  =      6930.45472119
  Solvation  Ediel_sol  =         0.00000000
  ---------------------------------------------------
  free energy    TOTEN  =      -633.57290312 eV

  energy without entropy =     -633.45397218  energy(sigma->0) =     -633.51343765


--------------------------------------------------------------------------------------------------------




--------------------------------------- Iteration      1(  15)  ---------------------------------------


    POTLOK:  cpu time      1.9645: real time      1.9944
    SETDIJ:  cpu time      1.3830: real time      1.3842
    EDDIAG:  cpu time     54.2537: real time     54.2840
     EDDAV:  cpu time    245.8640: real time    246.0113
       DOS:  cpu time      0.0027: real time      0.0027
    CHARGE:  cpu time     30.3553: real time     30.3802
    MIXING:  cpu time      0.0484: real time      0.0484
    --------------------------------------------
      LOOP:  cpu time    333.8715: real time    334.1052

 eigenvalue-minimisations  :  2944
 total energy-change (2. order) :-0.6222028E-04  (-0.8873618E-05)
 number of electron     269.9999999 magnetization 
 augmentation part      -15.0864292 magnetization 

 Broyden mixing:
  rms(total) = 0.73909E-04    rms(broyden)= 0.21798E-02
  rms(prec ) = 0.11641E-03
  weight for this iteration     100.00
  WARNING: grid for Broyden might be to small

 eigenvalues of (default mixing * dielectric matrix)
  average eigenvalue GAMMA=   1.3894
  4.2874  2.7764  2.7764  1.8779  1.3294  1.0305  0.8992  0.8398  0.4886  0.6403
  0.6403  0.5814  0.6559  0.6282

 Free energy of the ion-electron system (eV)
  ---------------------------------------------------
  alpha Z        PSCENC =        27.65918844
  Ewald energy   TEWEN  =     33779.01757817
  -Hartree energ DENC   =    -39752.94738220
  -exchange      EXHF   =         0.00000000
  -V(xc)+E(xc)   XCENC  =      -325.79818823
  PAW double counting   =     38044.29503037   -37375.88184141
  entropy T*S    EENTRO =        -0.11892602
  eigenvalues    EBANDS =     -1960.25314567
  atomic energy  EATOM  =      6930.45472119
  Solvation  Ediel_sol  =         0.00000000
  ---------------------------------------------------
  free energy    TOTEN  =      -633.57296534 eV

  energy without entropy =     -633.45403932  energy(sigma->0) =     -633.51350233


--------------------------------------------------------------------------------------------------------




--------------------------------------- Iteration      1(  16)  ---------------------------------------


    POTLOK:  cpu time      2.0191: real time      2.0209
    SETDIJ:  cpu time      1.3863: real time      1.3871
    EDDIAG:  cpu time     54.2293: real time     54.2571
     EDDAV:  cpu time    245.2457: real time    245.3894
       DOS:  cpu time      0.0061: real time      0.0061
    CHARGE:  cpu time     30.3912: real time     30.4198
    MIXING:  cpu time      0.0475: real time      0.0475
    --------------------------------------------
      LOOP:  cpu time    333.3252: real time    333.5279

 eigenvalue-minimisations  :  2928
 total energy-change (2. order) :-0.3071639E-04  (-0.4749542E-05)
 number of electron     269.9999999 magnetization 
 augmentation part      -15.0864424 magnetization 

 Broyden mixing:
  rms(total) = 0.48529E-04    rms(broyden)= 0.94267E-03
  rms(prec ) = 0.72815E-04
  weight for this iteration     100.00
  WARNING: grid for Broyden might be to small

 eigenvalues of (default mixing * dielectric matrix)
  average eigenvalue GAMMA=   1.5325
  6.1693  2.9852  2.7449  2.2173  1.5080  1.0589  1.0589  0.8935  0.7702  0.4886
  0.6518  0.6313  0.6165  0.6165  0.5771

 Free energy of the ion-electron system (eV)
  ---------------------------------------------------
  alpha Z        PSCENC =        27.65918844
  Ewald energy   TEWEN  =     33779.01757817
  -Hartree energ DENC   =    -39752.89550538
  -exchange      EXHF   =         0.00000000
  -V(xc)+E(xc)   XCENC  =      -325.79887961
  PAW double counting   =     38044.51092204   -37376.09776661
  entropy T*S    EENTRO =        -0.11892672
  eigenvalues    EBANDS =     -1960.30432757
  atomic energy  EATOM  =      6930.45472119
  Solvation  Ediel_sol  =         0.00000000
  ---------------------------------------------------
  free energy    TOTEN  =      -633.57299606 eV

  energy without entropy =     -633.45406933  energy(sigma->0) =     -633.51353270


--------------------------------------------------------------------------------------------------------




--------------------------------------- Iteration      1(  17)  ---------------------------------------


    POTLOK:  cpu time      1.9843: real time      1.9953
    SETDIJ:  cpu time      1.3877: real time      1.3884
    EDDIAG:  cpu time     54.2366: real time     54.2637
     EDDAV:  cpu time    246.6554: real time    246.7992
       DOS:  cpu time      0.0053: real time      0.0053
    CHARGE:  cpu time     30.3954: real time     30.4219
    MIXING:  cpu time      0.0495: real time      0.0495
    --------------------------------------------
      LOOP:  cpu time    334.7142: real time    334.9235

 eigenvalue-minimisations  :  2960
 total energy-change (2. order) :-0.1981951E-04  (-0.2388815E-05)
 number of electron     269.9999999 magnetization 
 augmentation part      -15.0864489 magnetization 

 Broyden mixing:
  rms(total) = 0.30823E-04    rms(broyden)= 0.51175E-03
  rms(prec ) = 0.45377E-04
  weight for this iteration     100.00
  WARNING: grid for Broyden might be to small

 eigenvalues of (default mixing * dielectric matrix)
  average eigenvalue GAMMA=   1.6073
  7.5652  3.1305  2.7046  2.3947  1.3912  1.3912  0.9747  0.9747  0.8782  0.4886
  0.7309  0.6715  0.6339  0.6169  0.5848  0.5848

 Free energy of the ion-electron system (eV)
  ---------------------------------------------------
  alpha Z        PSCENC =        27.65918844
  Ewald energy   TEWEN  =     33779.01757817
  -Hartree energ DENC   =    -39752.86345869
  -exchange      EXHF   =         0.00000000
  -V(xc)+E(xc)   XCENC  =      -325.79925708
  PAW double counting   =     38044.32196854   -37375.90879652
  entropy T*S    EENTRO =        -0.11892545
  eigenvalues    EBANDS =     -1960.33603448
  atomic energy  EATOM  =      6930.45472119
  Solvation  Ediel_sol  =         0.00000000
  ---------------------------------------------------
  free energy    TOTEN  =      -633.57301588 eV

  energy without entropy =     -633.45409043  energy(sigma->0) =     -633.51355315


--------------------------------------------------------------------------------------------------------




[...]
   -.191E+02 -.648E+01 -.176E+03   0.193E+02 0.742E+01 0.173E+03   -.300E+00 -.103E+01 0.283E+01   0.176E-04 0.112E-04 0.328E-04
   -.171E+02 0.101E+02 -.810E+02   0.166E+02 -.106E+02 0.810E+02   0.633E+00 0.387E+00 0.911E-01   0.123E-04 0.215E-04 0.551E-05
   -.102E+02 0.509E+01 0.128E+03   0.111E+02 -.561E+01 -.126E+03   -.105E+01 0.532E+00 -.140E+01   0.188E-04 0.317E-04 -.180E-04
   0.456E+01 -.349E+02 -.168E+03   -.348E+01 0.351E+02 0.169E+03   -.123E+01 -.267E-01 -.152E+01   0.732E-05 -.218E-04 0.139E-04
   -.189E+01 -.130E+02 -.427E+01   0.101E+01 0.125E+02 0.587E+01   0.940E+00 0.403E+00 -.139E+01   -.141E-04 0.373E-04 0.423E-06
   0.134E+02 0.558E+02 0.301E+02   -.151E+02 -.536E+02 -.297E+02   0.162E+01 -.247E+01 -.580E+00   -.952E-05 0.223E-04 0.168E-04
   0.511E+00 -.702E+01 -.313E+03   -.271E+01 0.813E+01 0.311E+03   0.185E+01 -.114E+01 0.239E+01   -.113E-04 0.132E-04 0.258E-04
   -.142E+02 0.188E+02 0.229E+03   0.118E+02 -.182E+02 -.226E+03   0.202E+01 -.534E+00 -.361E+01   -.544E-05 0.380E-04 -.238E-04
   -.198E+01 0.313E+01 -.238E+02   0.413E+01 -.375E+01 0.243E+02   -.213E+01 0.574E+00 -.585E+00   -.406E-06 0.914E-05 0.155E-04
   0.899E+01 0.363E+01 0.246E+03   -.875E+01 -.187E+01 -.248E+03   -.502E+00 -.176E+01 0.156E+01   0.935E-05 0.241E-05 -.225E-04
   0.104E+02 0.141E+02 -.129E+03   -.111E+02 -.138E+02 0.128E+03   0.678E+00 -.731E+00 0.928E+00   0.588E-05 -.291E-04 0.718E-05
   0.111E+02 -.114E+02 0.123E+03   -.103E+02 0.122E+02 -.121E+03   -.653E+00 -.739E+00 -.108E+01   -.114E-04 -.409E-04 -.104E-04
   0.310E+01 0.123E+01 0.275E+03   -.383E+00 -.348E+01 -.276E+03   -.238E+01 0.201E+01 0.412E+00   -.144E-05 0.290E-04 -.359E-04
   -.151E+02 0.568E+02 -.296E+03   0.169E+02 -.586E+02 0.297E+03   -.159E+01 0.107E+01 -.899E+00   -.999E-05 -.359E-05 0.159E-04
   0.285E+02 -.155E+01 -.192E+03   -.292E+02 0.339E+01 0.194E+03   0.375E+00 -.173E+01 -.198E+01   -.192E-04 0.670E-05 0.242E-04
   -.118E+02 -.625E+01 -.158E+03   0.105E+02 0.548E+01 0.155E+03   0.137E+01 0.823E+00 0.284E+01   0.366E-05 -.170E-04 -.622E-05
   -.334E+01 -.111E+02 0.109E+03   0.282E+01 0.115E+02 -.107E+03   0.268E+00 -.385E+00 -.106E+01   0.137E-04 0.578E-05 -.494E-05
   0.213E+00 -.793E+01 -.234E+03   0.436E+00 0.693E+01 0.231E+03   -.552E+00 0.469E+00 0.262E+01   0.177E-04 0.353E-05 0.593E-05
   -.227E+02 -.290E+02 -.257E+03   0.205E+02 0.298E+02 0.257E+03   0.203E+01 -.561E+00 0.662E-01   -.546E-05 -.205E-04 0.141E-04
   0.480E+01 0.414E+02 0.255E+02   -.540E+01 -.427E+02 -.250E+02   0.527E+00 0.900E+00 -.488E+00   0.137E-06 0.226E-04 0.108E-04
   -.640E+01 0.565E+01 0.223E+03   0.625E+01 -.626E+01 -.224E+03   -.195E+00 0.595E+00 0.520E+00   0.103E-04 -.270E-04 -.110E-04
   0.319E+02 0.375E+01 0.223E+03   -.341E+02 -.196E+01 -.221E+03   0.215E+01 -.150E+01 -.169E+01   -.253E-04 -.130E-04 -.149E-04
   0.278E+02 -.278E+01 -.143E+03   -.249E+02 0.380E+01 0.141E+03   -.256E+01 -.103E+01 0.122E+01   0.304E-04 -.426E-04 0.469E-05
   -.974E+01 0.159E+01 -.213E+03   0.107E+02 -.208E+01 0.212E+03   -.760E+00 0.284E+00 0.170E+01   0.193E-04 0.134E-04 0.198E-04
   0.116E+02 0.909E+01 0.262E+03   -.135E+02 -.732E+01 -.263E+03   0.173E+01 -.152E+01 0.134E+01   -.249E-04 -.295E-04 -.196E-04
   0.294E+01 0.444E+01 0.180E+03   -.315E+01 -.360E+01 -.179E+03   0.815E-01 -.695E+00 -.125E+01   -.694E-05 -.423E-04 -.194E-04
   -.197E+02 0.161E+02 -.486E+02   0.181E+02 -.158E+02 0.482E+02   0.174E+01 -.476E+00 0.529E+00   -.103E-04 0.209E-04 0.115E-04
   -.141E+02 -.140E+02 0.530E+02   0.147E+02 0.132E+02 -.532E+02   -.533E+00 0.861E+00 0.440E+00   -.954E-05 -.193E-04 -.241E-04
   0.375E+01 -.478E+01 0.117E+03   -.430E+01 0.349E+01 -.117E+03   0.436E+00 0.124E+01 -.187E+00   0.876E-05 -.262E-04 -.215E-04
   0.192E+01 0.303E+01 0.247E+03   0.109E+01 -.137E+00 -.247E+03   -.317E+01 -.264E+01 0.949E-01   -.771E-05 -.439E-05 -.134E-04
   -.134E+02 -.465E+01 0.113E+03   0.135E+02 0.331E+01 -.112E+03   0.144E+00 0.124E+01 -.133E+01   0.206E-04 0.210E-04 -.115E-04
   -.661E+01 -.931E+01 0.276E+03   0.679E+01 0.943E+01 -.276E+03   0.215E-02 -.254E-01 -.165E+00   0.586E-05 -.388E-04 -.381E-04
   -.272E+02 -.190E+02 -.507E+02   0.248E+02 0.174E+02 0.511E+02   0.277E+01 0.150E+01 -.300E+00   -.400E-05 -.151E-05 0.197E-04
   -.157E+02 -.958E+01 -.279E+03   0.147E+02 0.101E+02 0.278E+03   0.866E+00 -.603E+00 0.157E+01   0.235E-04 0.881E-06 0.311E-04
   -.301E+02 -.120E+02 0.173E+03   0.281E+02 0.122E+02 -.172E+03   0.192E+01 -.340E+00 -.867E+00   0.115E-04 0.550E-05 -.106E-04
   -.120E+02 0.269E+02 -.143E+03   0.121E+02 -.272E+02 0.143E+03   -.181E+00 0.903E+00 0.398E+00   -.242E-04 0.130E-04 0.299E-04
   0.182E+02 -.316E+02 0.203E+03   -.184E+02 0.300E+02 -.199E+03   0.825E-01 0.147E+01 -.355E+01   -.274E-04 -.495E-04 -.214E-04
   0.179E+02 0.107E+02 -.246E+03   -.150E+02 -.104E+02 0.244E+03   -.260E+01 -.351E-01 0.189E+01   0.439E-05 -.268E-04 0.212E-04
   -.146E+02 -.839E+01 -.735E+02   0.154E+02 0.796E+01 0.732E+02   -.551E+00 0.281E+00 0.138E+00   -.150E-04 0.547E-05 -.115E-04
   -.467E+02 0.533E+01 -.250E+03   0.461E+02 -.452E+01 0.248E+03   0.252E+00 -.850E+00 0.203E+01   -.278E-04 -.133E-04 0.260E-04
   0.224E+02 0.845E+01 -.117E+02   -.211E+02 -.893E+01 0.106E+02   -.152E+01 0.367E+00 0.126E+01   -.128E-04 0.422E-05 0.241E-04
   -.746E+01 0.520E+01 0.264E+03   0.103E+02 -.640E+01 -.265E+03   -.235E+01 0.924E+00 0.104E+01   0.617E-05 0.271E-04 -.189E-04
   0.173E+02 0.229E+01 -.109E+03   -.171E+02 -.321E+01 0.109E+03   -.203E+00 0.925E+00 0.811E+00   -.180E-04 0.160E-04 0.266E-04
   0.291E+02 0.291E+02 -.163E+03   -.293E+02 -.283E+02 0.159E+03   -.149E+00 -.703E+00 0.365E+01   0.418E-05 0.178E-04 0.646E-05
   0.829E+01 -.309E+02 0.209E+03   -.939E+01 0.299E+02 -.205E+03   0.806E+00 0.984E+00 -.365E+01   0.301E-05 0.150E-04 0.298E-05
   0.936E+00 -.129E+01 -.272E+03   -.319E+01 0.142E+01 0.271E+03   0.194E+01 0.375E+00 0.139E+01   0.160E-04 0.142E-04 0.159E-04
   0.826E+01 0.156E+02 0.213E+03   -.658E+01 -.153E+02 -.211E+03   -.156E+01 -.146E+00 -.209E+01   -.952E-05 0.254E-04 -.132E-04
   -.617E+01 0.376E+00 0.685E+02   0.709E+01 0.217E+01 -.689E+02   -.771E+00 -.283E+01 0.214E+00   -.584E-05 -.352E-04 -.536E-05
   0.298E+02 0.557E+02 0.262E+03   -.289E+02 -.547E+02 -.261E+03   -.561E+00 -.104E+01 -.119E+01   -.121E-04 0.238E-04 -.158E-05
   -.171E+02 -.822E+01 0.296E+03   0.142E+02 0.657E+01 -.295E+03   0.254E+01 0.138E+01 -.100E+01   -.832E-06 0.259E-04 0.537E-05
   -.209E+02 0.519E+01 -.144E+03   0.191E+02 -.389E+01 0.141E+03   0.166E+01 -.127E+01 0.232E+01   -.656E-05 -.222E-04 0.101E-04
   0.115E+02 -.427E+00 0.157E+03   -.110E+02 0.111E+01 -.156E+03   -.152E+00 -.612E+00 -.128E+01   0.708E-05 -.342E-04 -.557E-05
   -.580E+01 -.269E+02 0.237E+03   0.479E+01 0.261E+02 -.236E+03   0.867E+00 0.126E+01 -.962E+00   0.702E-05 0.180E-04 -.621E-05
   0.393E+02 0.251E+02 -.289E+03   -.349E+02 -.269E+02 0.287E+03   -.358E+01 0.177E+01 0.134E+01   0.125E-04 0.138E-04 -.466E-06
   0.782E+01 -.139E+02 -.161E+03   -.746E+01 0.139E+02 0.160E+03   -.206E+00 0.359E+00 0.189E+01   -.610E-05 -.134E-04 0.213E-04
   0.300E+02 0.398E+01 0.184E+03   -.288E+02 -.497E+01 -.182E+03   -.100E+01 0.987E+00 -.211E+01   -.192E-04 0.277E-04 -.543E-05
   -.161E+02 -.360E+02 -.127E+03   0.139E+02 0.361E+02 0.127E+03   0.202E+01 -.324E+00 0.217E+00   -.293E-04 -.379E-04 -.666E-05
   -.576E+01 -.397E+01 -.739E+02   0.563E+01 0.398E+01 0.765E+02   -.756E-01 0.618E-01 -.233E+01   -.254E-05 0.164E-04 -.823E-05
   0.230E+02 0.266E+01 -.419E+02   -.204E+02 -.160E+01 0.420E+02   -.259E+01 -.802E+00 -.326E-01   0.199E-04 -.898E-05 -.299E-05
   0.355E+02 -.118E+02 -.192E+03   -.329E+02 0.111E+02 0.190E+03   -.256E+01 0.774E+00 0.140E+01   -.630E-06 -.165E-04 -.288E-05
   -.750E+01 0.832E+01 0.153E+03   0.706E+01 -.724E+01 -.152E+03   0.424E+00 -.123E+01 -.684E+00   0.136E-04 0.528E-05 -.119E-04
   0.234E+02 0.625E+01 -.118E+03   -.216E+02 -.619E+01 0.116E+03   -.160E+01 0.284E-02 0.214E+01   0.279E-05 0.196E-04 -.859E-05
   0.598E+00 -.124E+02 0.145E+03   -.198E+01 0.129E+02 -.146E+03   0.146E+01 -.466E+00 0.915E+00   0.226E-04 -.472E-04 -.408E-05
   -.224E+02 -.165E+02 -.230E+03   0.232E+02 0.177E+02 0.231E+03   -.449E+00 -.115E+01 -.253E+00   -.177E-06 0.106E-04 0.350E-04
   -.186E+02 -.194E+01 0.162E+03   0.188E+02 0.152E+01 -.161E+03   0.275E+00 0.582E+00 -.874E+00   0.249E-04 0.266E-04 -.338E-04
 -----------------------------------------------------------------------------------------------
   0.445E+01 0.399E+01 -.536E+01   -.213E-13 0.153E-12 0.313E-12   -.445E+01 -.400E+01 0.536E+01   -.170E-04 -.435E-05 0.574E-04


 POSITION                                       TOTAL-FORCE (eV/Angst)
 -----------------------------------------------------------------------------------
      3.98010      5.17963     16.32639         0.015459     -0.011815      0.135199
     10.28176      1.69734      9.53272         0.050292     -0.022898     -0.121219
      6.92536     13.74105     13.18255        -0.172913     -0.006440      0.254829
     11.92988      9.10129     14.87242        -0.097530      0.228582      0.461265
      0.43511      6.83234     14.68922        -0.070594     -0.168187      0.055153
      0.37552     11.31919     13.86627         0.041512     -0.092320      0.041527
     13.01449     11.24043     12.50077        -0.203313      0.039914     -0.115953
      4.14567      4.88471     14.88004        -0.199531      0.193793     -0.030805
      4.76428      0.05947     13.43756         0.088457     -0.112452      0.145146
      5.83310     10.37297     12.98399        -0.012783     -0.328327     -0.105272
      5.85718      0.61966     16.63678        -0.230263     -0.152356      0.038547
      8.69996     11.34869     11.18589        -0.332861      0.084543     -0.110116
      1.93521      9.59799     13.42816        -0.093263      0.011704     -0.059427
     13.96174     14.43613     11.09109        -0.248947     -0.078576     -0.025967
     12.73356      4.29399     14.25362         0.091673     -0.409277      0.175839
      5.87453      3.40196     12.23045         0.171056      0.069104      0.054930
      8.81741      8.98991     10.54233         0.180952     -0.164595     -0.086186
      6.62210     11.28389     16.61019         0.051454     -0.368033      0.651017
      8.00319      7.59897     14.84899        -0.149899     -0.004735     -0.331819
      0.71342      1.08202     14.39094        -0.030801      0.026774      0.113594
     14.18497      7.39038     12.51089        -0.253864     -0.024197     -0.022670
     13.05481      0.71301     15.20660         0.057436     -0.550865     -0.451259
      7.94080      3.71667     15.80615        -0.126368      0.131204      0.076415
      3.64807     11.08482     12.98243        -0.037355     -0.368260     -0.016852
     10.86694      5.81177     11.38654        -0.333510      0.062479      0.063271
      7.13342      7.41706     11.15098         0.174784      0.183349      0.097653
      2.59267      2.99373     14.38776         0.202728     -0.062262     -0.300155
     12.87843     11.23465     14.96009         0.113430     -0.166007      0.050657
      7.53993      2.70677     10.66836        -0.044407      0.260412      0.348702
      0.31825      3.97556     11.91437        -0.140400      0.128036      0.089632
      9.23249     11.26182     13.49990         0.168442     -0.213467      0.149753
      9.92617      2.15989     12.67707        -0.013853      0.068402      0.222162
     14.09717      1.78465     12.41763        -0.108206      0.005322      0.110889
      9.45189      1.13501     10.62655        -0.280100      0.177837     -0.000603
     12.48041      8.98767     12.57014         0.182209      0.002913     -0.268959
      2.30376      4.48758     10.80685         0.154386      0.102705     -0.147546
      4.02712      6.92649     13.72565         0.447756     -0.010461      0.119479
     12.91021      7.27691     15.88680        -0.131060     -0.212278     -0.283280
      2.76386      6.52007     11.79142        -0.049034     -0.091085      0.340722
      7.11260     11.71348     14.41494        -0.038903      0.667715     -0.129024
      7.37227      5.04122     11.38325        -0.075173     -0.194522     -0.214235
     11.38714      5.60466     15.55023         0.271474      0.339220     -0.153477
      8.84412      0.41908     13.88884         0.214201     -0.123295     -0.113212
      7.93698      1.39341     15.83163        -0.437147     -0.019275     -0.266097
      6.22304      7.99610     13.22514        -0.299200     -0.063878      0.243645
      9.96204     13.30407     10.64925         0.393127     -0.204791      0.281678
      9.72654      8.98700     14.05550         0.043832      0.071836      0.303738
      3.65195     12.85830     14.50932        -0.340175      0.059793     -0.036000
      3.52241      0.58326     11.51388        -0.207942      0.003876     -0.120294
     11.96499     13.23847     15.69774        -0.112538      0.534057     -0.180534
      6.53483     12.14385     11.48271         0.033064      0.194692     -0.219183
      9.32318      4.50655     12.57087         0.075814     -0.437542     -0.192010
      2.91983     11.92054     10.88151         0.384803      0.132072      0.148882
      4.73505     13.31654     10.41447        -0.317876     -0.294237      0.500302
      0.58206      4.49428     14.24981        -0.163478     -0.032299     -0.157464
     13.01156      5.39944     12.14281         0.367352      0.041530     -0.066113
      1.45856      8.36199     11.40946        -0.078384      0.364746      0.113799
      5.09671     12.96604     16.37698         0.693005      0.096526     -0.606309
      9.15281      5.45915     14.75618         0.163259      0.359794      0.279978
      1.61178     13.69386     11.68048         0.103888      0.062222     -0.230593
      6.02273      3.54739     14.56437        -0.167195     -0.225170     -0.159548
     10.55694     13.25015     13.84005        -0.229159      0.068693      0.029233
     12.10797      2.13828     13.61456        -0.062675      0.230184      0.067873
      4.61283      1.74289     15.05161        -0.036380      0.200635      0.013115
     10.42275      8.07722     11.92613         0.027416     -0.194284     -0.327145
      1.44832     13.40881     14.00409         0.089794      0.050671      0.140280
      3.50656      2.92142     12.05815         0.186409      0.081315      0.045816
      2.41963      8.06628     15.10326         0.244627     -0.049966     -0.154901
     11.99697     13.22284     11.81581         0.442987      0.121502     -0.160493
 -----------------------------------------------------------------------------------
    total drift:                                0.002204     -0.004846     -0.006933


--------------------------------------------------------------------------------------------------------



  FREE ENERGIE OF THE ION-ELECTRON SYSTEM (eV)
  ---------------------------------------------------
  free  energy   TOTEN  =      -633.57302643 eV

  energy  without entropy=     -633.45410184  energy(sigma->0) =     -633.51356413



--------------------------------------------------------------------------------------------------------


    POTLOK:  cpu time      3.3280: real time      3.3489


--------------------------------------------------------------------------------------------------------


     LOOP+:  cpu time   7229.1810: real time   7234.3077
    4ORBIT:  cpu time      0.0000: real time      0.0000



 total charge

# of ion       s       p       d       tot
------------------------------------------
    1        0.568   0.016   0.000   0.583
    2        0.566   0.016   0.000   0.582
    3        0.758   0.931   0.000   1.689
    4        0.754   0.934   0.000   1.688
    5        0.766   0.887   0.000   1.653
    6        0.757   0.930   0.000   1.687
    7        0.764   0.926   0.000   1.689
    8        0.761   0.936   0.000   1.697
    9        0.770   0.939   0.000   1.709
   10        0.757   0.929   0.000   1.686
   11        0.778   0.878   0.000   1.656
   12        0.756   0.901   0.000   1.657
   13        0.760   0.935   0.000   1.695
   14        0.796   0.850   0.000   1.647
   15        0.763   0.923   0.000   1.686
   16        0.758   0.891   0.000   1.650
   17        0.790   0.843   0.000   1.633
   18        0.875   0.752   0.000   1.628
   19        0.804   0.816   0.000   1.620
   20        0.787   0.854   0.000   1.641
   21        0.766   0.921   0.000   1.687
   22        0.797   0.835   0.000   1.632
   23        0.793   0.872   0.000   1.665
   24        0.754   0.950   0.000   1.705
   25        0.799   0.860   0.000   1.659
   26        0.792   0.832   0.000   1.624
   27        0.748   0.832   0.000   1.580
   28        0.766   0.919   0.000   1.685
   29        0.817   0.768   0.000   1.585
   30        0.763   0.907   0.000   1.670
   31        0.763   0.908   0.000   1.671
   32        0.751   0.915   0.000   1.666
   33        0.756   0.934   0.000   1.690
   34        0.746   0.921   0.000   1.667
   35        0.769   0.939   0.000   1.707
   36        0.795   0.879   0.000   1.674
   37        0.753   0.907   0.000   1.660
   38        0.785   0.873   0.000   1.657
   39        0.797   0.855   0.000   1.652
   40        0.764   0.937   0.000   1.701
   41        0.769   0.866   0.000   1.635
   42        0.774   0.901   0.000   1.675
   43        0.758   0.905   0.000   1.664
   44        0.791   0.831   0.000   1.622
   45        0.757   0.862   0.000   1.619
   46        0.790   0.828   0.000   1.618
   47        0.765   0.899   0.000   1.664
   48        0.758   0.953   0.000   1.711
   49        0.767   0.881   0.000   1.648
   50        0.792   0.873   0.000   1.665
   51        0.763   0.894   0.000   1.658
   52        0.763   0.886   0.000   1.649
   53        0.805   0.855   0.000   1.659
   54        0.802   0.816   0.000   1.618
   55        0.776   0.869   0.000   1.645
   56        0.760   0.938   0.000   1.698
   57        0.808   0.852   0.000   1.659
   58        0.790   0.866   0.000   1.657
   59        0.761   0.875   0.000   1.636
   60        0.763   0.911   0.000   1.674
   61        0.755   0.966   0.000   1.720
   62        0.766   0.860   0.000   1.626
   63        0.758   0.943   0.000   1.701
   64        0.773   0.905   0.000   1.677
   65        0.764   0.912   0.000   1.677
   66        0.757   0.931   0.000   1.688
   67        0.763   0.881   0.000   1.644
   68        0.810   0.844   0.000   1.654
   69        0.757   0.886   0.000   1.643
--------------------------------------------------
tot         52.975  59.539   0.000 112.515


 total amount of memory used by VASP MPI-rank0   372989. kBytes
=======================================================================

   base                                    :      30000. kBytes
   nonl-proj                               :      69747. kBytes
   fftplans                                :     102068. kBytes
   grid                                    :      78750. kBytes
   one-center                              :         15. kBytes
   wavefun                                 :      92409. kBytes

  
  
 General timing and accounting informations for this job:
 ========================================================
  
                  Total CPU time used (sec):     7377.139
                            User time (sec):     6511.248
                          System time (sec):      865.890
                         Elapsed time (sec):     7386.655
  
                   Maximum memory used (kb):      632876.
                   Average memory used (kb):          N/A
  
                          Minor page faults:     12429948
                          Major page faults:         1181
                 Voluntary context switches:         2907
