 vasp.6.5.0 16Dec24 (build Jan 20 2025 08:32:48) complex                         
 executed on        HPECrayEX_GCC date 2025.07.21  14:35:06
 running  128 mpi-ranks, with    1 threads/rank, on    1 nodes
 distrk:  each k-point on  128 cores,    1 groups
 distr:  one band on NCORE=  16 cores,    8 groups


--------------------------------------------------------------------------------------------------------


 INCAR:
   SYSTEM = a-Si SPC
   NCORE = 16
   ISTART = 1
   ICHARG = 1
   ISPIN = 1
   ISYM = 1
   EDIFF = 1E-6
   NELM = 150
   EDIFFG = -0.01
   NSW = 0
   ISIF = 2
   IBRION = -1
   PREC = Accurate
   ENCUT = 1200
   KSPACING = 0.23
   KGAMMA = .TRUE.
   METAGGA = SCAN
   LASPH = .TRUE.
   LDIAG = .FALSE.
   LMIXTAU = .TRUE.
   ADDGRID = .TRUE.
   ALGO = Normal
   ISMEAR = 0
   SIGMA = 0.1
   LORBIT = 11
   NEDOS = 2000
   LWAVE = .FALSE.
   LCHARG = .FALSE.

 POTCAR:    PAW_PBE H 15Jun2001                   
 POTCAR:    PAW_PBE Si 05Jan2001                  
 POTCAR:    PAW_PBE H 15Jun2001                   
   SHA256 =  030f79b5d3ab3cf0e668861823c8fb652ff669f3e15e46930bd03bfd63a607b6 H/POTCAR              
   COPYR  = (c) Copyright 15Jun2001 Georg Kresse                                                    
   COPYR  = This file is part of the software VASP. Any use, copying, and all other rights are regul
   COPYR  = If you do not have a valid VASP license, you may not use, copy or distribute this file. 
   VRHFIN =H: ultrasoft test                                                                        
   LEXCH  = PE                                                                                      
   EATOM  =    12.4884 eV,    0.9179 Ry                                                             
                                                                                                    
   TITEL  = PAW_PBE H 15Jun2001                                                                     
   LULTRA =        F    use ultrasoft PP ?                                                          
   IUNSCR =        0    unscreen: 0-lin 1-nonlin 2-no                                               
   RPACOR =    0.000    partial core radius                                                         
   POMASS =    1.000; ZVAL   =    1.000    mass and valenz                                          
   RCORE  =    1.100    outmost cutoff radius                                                       
   RWIGS  =    0.700; RWIGS  =    0.370    wigner-seitz radius (au A)                               
   ENMAX  =  250.000; ENMIN  =  200.000 eV                                                          
   RCLOC  =    0.701    cutoff for local pot                                                        
   LCOR   =        T    correct aug charges                                                         
   LPAW   =        T    paw PP                                                                      
   EAUG   =  400.000                                                                                
   RMAX   =    1.123    core radius for proj-oper                                                   
   RAUG   =    1.200    factor for augmentation sphere                                              
   RDEP   =    1.112    radius for radial grids                                                     
   RDEPT  =    0.926    core radius for aug-charge                                                  
                                                                                                    
   Atomic configuration                                                                             
    2 entries                                                                                       
     n  l   j            E        occ.                                                              
     1  0  0.50        -6.4927   1.0000                                                             
     2  1  0.50        -3.4015   0.0000                                                             
   Description                                                                                      
     l       E           TYP  RCUT    TYP  RCUT                                                     
     0     -6.4927494     23  1.100                                                                 
     0      6.8029130     23  1.100                                                                 
     1     -4.0817478     23  1.100                                                                 
  local pseudopotential read in
  atomic valenz-charges read in
  non local Contribution for L=           0  read in
    real space projection operators read in
  non local Contribution for L=           0  read in
    real space projection operators read in
  non local Contribution for L=           1  read in
    real space projection operators read in
    PAW grid and wavefunctions read in

   number of l-projection  operators is LMAX  =           3
   number of lm-projection operators is LMMAX =           5

 POTCAR:    PAW_PBE Si 05Jan2001                  
   SHA256 =  79d9987ad8750f624c4d6acb2a16d13abf6a777132adc04dc6c8399be72b42bb Si/POTCAR             
   COPYR  = (c) Copyright 05Jan2001 Georg Kresse                                                    
   COPYR  = This file is part of the software VASP. Any use, copying, and all other rights are regul
   COPYR  = If you do not have a valid VASP license, you may not use, copy or distribute this file. 
   VRHFIN =Si: s2p2                                                                                 
   LEXCH  = PE                                                                                      
   EATOM  =   103.0669 eV,    7.5752 Ry                                                             
                                                                                                    
   TITEL  = PAW_PBE Si 05Jan2001                                                                    
   LULTRA =        F    use ultrasoft PP ?                                                          
   IUNSCR =        1    unscreen: 0-lin 1-nonlin 2-no                                               
   RPACOR =    1.500    partial core radius                                                         
   POMASS =   28.085; ZVAL   =    4.000    mass and valenz                                          
   RCORE  =    1.900    outmost cutoff radius                                                       
   RWIGS  =    2.480; RWIGS  =    1.312    wigner-seitz radius (au A)                               
   ENMAX  =  245.345; ENMIN  =  184.009 eV                                                          
   ICORE  =        2    local potential                                                             
   LCOR   =        T    correct aug charges                                                         
   LPAW   =        T    paw PP                                                                      
   EAUG   =  322.069                                                                                
   DEXC   =    0.000                                                                                
   RMAX   =    1.950    core radius for proj-oper                                                   
   RAUG   =    1.300    factor for augmentation sphere                                              
   RDEP   =    1.993    radius for radial grids                                                     
   RDEPT  =    1.837    core radius for aug-charge                                                  
                                                                                                    
   Atomic configuration                                                                             
    6 entries                                                                                       
     n  l   j            E        occ.                                                              
     1  0  0.50     -1785.8828   2.0000                                                             
     2  0  0.50      -139.4969   2.0000                                                             
     2  1  1.50       -95.5546   6.0000                                                             
     3  0  0.50       -10.8127   2.0000                                                             
     3  1  0.50        -4.0811   2.0000                                                             
     3  2  1.50        -4.0817   0.0000                                                             
   Description                                                                                      
     l       E           TYP  RCUT    TYP  RCUT                                                     
     0    -10.8127223     23  1.900                                                                 
     0     -7.6451159     23  1.900                                                                 
     1     -4.0811372     23  1.900                                                                 
     1      2.4879257     23  1.900                                                                 
     2     -4.0817478      7  1.900                                                                 
  local pseudopotential read in
  partial core-charges read in
  partial kinetic energy density read in
  atomic valenz-charges read in
  non local Contribution for L=           0  read in
    real space projection operators read in
  non local Contribution for L=           0  read in
    real space projection operators read in
  non local Contribution for L=           1  read in
    real space projection operators read in
  non local Contribution for L=           1  read in
    real space projection operators read in
    PAW grid and wavefunctions read in

   number of l-projection  operators is LMAX  =           4
   number of lm-projection operators is LMMAX =           8

 -----------------------------------------------------------------------------
|                                                                             |
|               ----> ADVICE to this user running VASP <----                  |
|                                                                             |
|     You have a (more or less) 'large supercell' and for larger cells it     |
|     might be more efficient to use real-space projection operators.         |
|     Therefore, try LREAL= Auto in the INCAR file.                           |
|     Mind: For very accurate calculation, you might also keep the            |
|     reciprocal projection scheme (i.e. LREAL=.FALSE.).                      |
|                                                                             |
 -----------------------------------------------------------------------------

 -----------------------------------------------------------------------------
|                                                                             |
|               ----> ADVICE to this user running VASP <----                  |
|                                                                             |
|     You enforced a specific xc type in the INCAR file but a different       |
|     type was found in the POTCAR file.                                      |
|     I HOPE YOU KNOW WHAT YOU ARE DOING!                                     |
|                                                                             |
 -----------------------------------------------------------------------------

  PAW_PBE H 15Jun2001                   :
 energy of atom  1       EATOM=  -12.4884
 kinetic energy error for atom=    0.0000 (will be added to EATOM!!)
  PAW_PBE Si 05Jan2001                  :
 energy of atom  2       EATOM= -103.0669
 kinetic energy error for atom=    0.0001 (will be added to EATOM!!)


 POSCAR:  H Si
  positions in cartesian coordinates
  No initial velocities read in


 exchange-correlation table for SCAN
   RHO(1)=    0.500       N(1)  =     2000
   RHO(2)=  100.500       N(2)  =     4000



--------------------------------------------------------------------------------------------------------


 ion  position               nearest neighbor table
   1  0.600  0.279  0.403-  33 1.48
   2  0.022  0.656  0.461-  77 1.48
   3  0.047  0.106  0.640-
   4  0.842  0.266  0.530-  54 1.49
   5  0.101  0.543  0.486-  40 1.62
   6  0.100  0.400  0.522-  45 1.61
   7  0.457  0.187  0.472-  75 1.43
   8  0.575  0.855  0.597-  78 1.59
   9  0.678  0.131  0.516-  57 2.28  74 2.29  47 2.36  39 2.39
  10  0.665  0.636  0.557-  17 2.20  28 2.32  52 2.33  22 2.33
  11  0.604  0.883  0.363-  91 2.27  55 2.37
  12  0.779  0.696  0.369-  83 2.25  80 2.27
  13  0.865  0.177  0.420-  92 2.26  57 2.26  90 2.34  64 2.35  14 3.03
  14  0.012  0.271  0.360-  56 2.34  90 2.35  64 2.43  13 3.03
  15  0.981  0.840  0.387-  26 2.33  83 2.38  24 2.44  88 2.91
  16  0.983  0.545  0.386-  83 2.28  50 2.30  40 2.39
  17  0.722  0.497  0.544-  10 2.20  27 2.25  46 2.41  48 2.42
  18  0.585  0.439  0.433-  46 2.37  73 2.39  89 2.42  36 2.51
  19  0.616  0.840  0.490-  91 2.21  70 2.26  28 2.29  78 2.33
  20  0.900  0.736  0.585-  22 2.31  44 2.34  61 2.38  71 2.40
  21  0.211  0.731  0.360-  24 2.26  63 2.33
  22  0.743  0.753  0.597-  20 2.31  78 2.33  10 2.33
  23  0.264  0.412  0.596-  68 2.28  45 2.29  34 2.44
  24  0.135  0.809  0.418-  21 2.26  77 2.33  86 2.35  15 2.44
  25  0.832  0.066  0.618-  49 2.35  47 2.43
  26  0.874  0.829  0.449-  71 2.21  31 2.27  15 2.33  80 2.34  88 2.92
  27  0.841  0.460  0.592-  54 2.21  17 2.25  61 2.33  48 3.06
  28  0.650  0.688  0.478-  89 2.26  19 2.29  10 2.32  80 2.39
  29  0.082  0.576  0.578-  45 2.20  61 2.29  87 2.45
  30  0.008  0.304  0.600-  79 2.25  54 2.28  45 2.44
  31  0.798  0.964  0.454-  91 2.20  57 2.23  88 2.25  26 2.27
  32  0.496  0.631  0.373-  85 2.36  89 2.37  55 2.49
  33  0.605  0.179  0.393-   1 1.48  92 2.32  74 2.38
  34  0.301  0.257  0.625-  53 2.36  23 2.44
  35  0.104  0.133  0.447-  58 2.24  65 2.28  60 2.39  90 2.42  79 3.03
  36  0.730  0.455  0.385-  50 2.34  18 2.51
  37  0.185  0.372  0.442-  56 2.27  65 2.32  67 2.36  40 2.39
  38  0.012  0.957  0.537-  71 2.25  69 2.29  49 2.31  58 2.33
  39  0.617  0.267  0.552-  46 2.23  81 2.27   9 2.39
  40  0.123  0.522  0.429-   5 1.62  63 2.39  16 2.39  37 2.39
  41  0.350  0.921  0.603-  82 2.32  59 2.37  42 2.39
  42  0.236  0.816  0.575-  87 2.34  41 2.39  69 2.51  59 3.02
  43  0.489  0.485  0.567-  52 2.29  68 2.34  46 2.45
  44  0.977  0.830  0.640-  69 2.22  20 2.34
  45  0.111  0.428  0.578-   6 1.61  29 2.20  23 2.29  30 2.44
  46  0.598  0.402  0.516-  39 2.23  18 2.37  17 2.41  43 2.45
  47  0.683  0.030  0.583-  78 2.23  84 2.28   9 2.36  25 2.43
  48  0.844  0.551  0.493-  61 2.31  80 2.35  50 2.37  17 2.42  27 3.06
  49  0.929  0.090  0.551-  38 2.31  25 2.35  57 2.37  79 2.37
  50  0.872  0.458  0.424-  64 2.29  16 2.30  36 2.34  48 2.37
  51  0.429  0.679  0.506-  72 2.24  52 2.29  70 2.39  89 2.47
  52  0.509  0.641  0.574-  51 2.29  43 2.29  10 2.33
  53  0.320  0.170  0.554-  75 2.34  34 2.36  62 2.36  82 2.38
  54  0.857  0.310  0.578-   4 1.49  27 2.21  30 2.28
  55  0.481  0.796  0.396-  70 2.31  11 2.37  32 2.49
  56  0.162  0.328  0.364-  37 2.27  14 2.34
  57  0.821  0.102  0.487-  31 2.23  13 2.26   9 2.28  49 2.37
  58  0.137  0.010  0.492-  35 2.24  38 2.33  86 2.34  62 2.36
  59  0.214  0.987  0.635-  41 2.37  69 2.42  62 2.59  42 3.02
  60  0.259  0.151  0.420-  75 2.38  35 2.39  76 2.42
  61  0.928  0.581  0.561-  29 2.29  48 2.31  27 2.33  20 2.38
  62  0.179  0.091  0.562-  53 2.36  58 2.36  79 2.40  59 2.59
  63  0.256  0.607  0.407-  85 2.30  21 2.33  40 2.39  72 2.46
  64  0.940  0.317  0.435-  50 2.29  65 2.33  13 2.35  14 2.43
  65  0.074  0.277  0.475-  35 2.28  37 2.32  64 2.33  79 2.35
  66  0.430  0.988  0.477-  70 2.37  76 2.42  82 2.46  74 2.60  86 3.08
  67  0.341  0.381  0.465-  68 2.21  73 2.31  37 2.36  75 2.46
  68  0.345  0.464  0.532-  67 2.21  23 2.28  43 2.34  72 2.49
  69  0.092  0.896  0.601-  44 2.22  38 2.29  59 2.42  42 2.51
  70  0.463  0.829  0.476-  19 2.26  55 2.31  66 2.37  51 2.39
  71  0.954  0.819  0.516-  26 2.21  77 2.23  38 2.25  20 2.40
  72  0.293  0.610  0.493-  51 2.24  87 2.27  63 2.46  68 2.49
  73  0.436  0.409  0.400-  85 2.25  67 2.31  18 2.39
  74  0.581  0.077  0.458-   9 2.29  91 2.31  33 2.38  66 2.60
  75  0.363  0.215  0.477-   7 1.43  53 2.34  60 2.38  67 2.46
  76  0.320  0.998  0.412-  86 2.24  66 2.42  60 2.42
  77  0.067  0.737  0.483-   2 1.48  71 2.23  24 2.33  87 2.35
  78  0.665  0.880  0.567-   8 1.59  47 2.23  19 2.33  22 2.33
  79  0.053  0.195  0.548-  30 2.25  65 2.35  49 2.37  62 2.40  35 3.03
  80  0.804  0.684  0.449-  12 2.27  26 2.34  48 2.35  28 2.39  83 2.97
  81  0.564  0.217  0.625-  39 2.27  84 2.30
  82  0.418  0.040  0.561-  41 2.32  53 2.38  66 2.46  84 2.46
  83  0.933  0.689  0.366-  12 2.25  16 2.28  15 2.38  80 2.97
  84  0.546  0.061  0.619-  47 2.28  81 2.30  82 2.46
  85  0.370  0.531  0.365-  73 2.25  63 2.30  32 2.36
  86  0.240  0.903  0.460-  76 2.24  58 2.34  24 2.35  66 3.08
  87  0.183  0.685  0.535-  72 2.27  42 2.34  77 2.35  29 2.45
  88  0.823  0.961  0.374-  31 2.25  15 2.91  26 2.92  91 3.01
  89  0.536  0.593  0.454-  28 2.26  32 2.37  18 2.42  51 2.47
  90  0.995  0.116  0.382-  13 2.34  14 2.35  35 2.42
  91  0.653  0.942  0.434-  31 2.20  19 2.21  11 2.27  74 2.31  88 3.01
  92  0.754  0.185  0.363-  13 2.26  33 2.32

  LATTYP: Found a simple tetragonal cell.
 ALAT       =    14.5411363218
 C/A-ratio  =     1.9122165892
  
  Lattice vectors:
  
 A1 = (  14.5411363218,   0.0000000000,   0.0000000000)
 A2 = (   0.0000000000,  14.5411363218,   0.0000000000)
 A3 = (   0.0000000000,   0.0000000000,  27.8058021000)


Analysis of symmetry for initial positions (statically):
=====================================================================
 Subroutine PRICEL returns:
 Original cell was already a primitive cell.
 

 Routine SETGRP: Setting up the symmetry group for a 
 simple tetragonal supercell.


 Subroutine GETGRP returns: Found  1 space group operations
 (whereof  1 operations were pure point group operations)
 out of a pool of 16 trial point group operations.


The static configuration has the point symmetry C_1 .


Analysis of symmetry for dynamics (positions and initial velocities):
=====================================================================
 Subroutine PRICEL returns:
 Original cell was already a primitive cell.
 

 Routine SETGRP: Setting up the symmetry group for a 
 simple tetragonal supercell.


 Subroutine GETGRP returns: Found  1 space group operations
 (whereof  1 operations were pure point group operations)
 out of a pool of 16 trial point group operations.


The dynamic configuration has the point symmetry C_1 .


 Subroutine INISYM returns: Found  1 space group operations
 (whereof  1 operations are pure point group operations),
 and found     1 'primitive' translations


----------------------------------------------------------------------------------------

                                     Primitive cell                                     

  volume of cell :    5879.3880

  direct lattice vectors                    reciprocal lattice vectors
    14.541136322  0.000000000  0.000000000     0.068770416  0.000000000  0.000000000
     0.000000000 14.541136322  0.000000000     0.000000000  0.068770416  0.000000000
     0.000000000  0.000000000 27.805802100     0.000000000  0.000000000  0.035963717

  length of vectors
    14.541136322 14.541136322 27.805802100     0.068770416  0.068770416  0.035963717

  position of ions in fractional coordinates (direct lattice)
     0.599907724  0.278743690  0.402749831
     0.022429196  0.656003065  0.460545682
     0.046658527  0.105552961  0.640327944
     0.842162519  0.266108502  0.530365283
     0.101487254  0.542908052  0.485627138
     0.100126975  0.400146857  0.522040761
     0.456710525  0.187391132  0.472268056
     0.574723310  0.855036341  0.596607932
     0.678116193  0.130622529  0.516396256
     0.665116521  0.635669029  0.556678856
     0.604392931  0.882633909  0.363303496
     0.778735564  0.696004753  0.368645618
     0.864533536  0.177232366  0.419572939
     0.011548203  0.270736063  0.359853101
     0.981120023  0.840415751  0.386994738
     0.982577956  0.544742159  0.385783084
     0.721614856  0.497264439  0.543997690
     0.585047813  0.439011770  0.432845348
     0.616070148  0.839989374  0.489886681
     0.900074087  0.735609636  0.585411348
     0.210784077  0.731118928  0.359637171
     0.743380693  0.752815994  0.596880537
     0.263916789  0.411925166  0.596421281
     0.135268658  0.809379662  0.417932993
     0.832390243  0.065882540  0.617605349
     0.873906944  0.828786673  0.448732680
     0.840931529  0.459543866  0.591804259
     0.649851552  0.687745426  0.478203148
     0.081700630  0.576386867  0.577751077
     0.007548035  0.303668840  0.600421165
     0.797668060  0.964408812  0.453837370
     0.496474955  0.630720309  0.373231963
     0.604751225  0.178704053  0.392521750
     0.300748848  0.257471625  0.624961727
     0.103769057  0.132745472  0.447058929
     0.730389962  0.454824152  0.384680041
     0.185374096  0.371521859  0.441773341
     0.012022238  0.956899082  0.537152715
     0.616877512  0.266820963  0.552451321
     0.122592207  0.521826481  0.429336369
     0.349875683  0.920677704  0.603341779
     0.236018694  0.815617139  0.575081850
     0.489302888  0.485132650  0.567025977
     0.977055691  0.830086434  0.640362829
     0.111196262  0.428031886  0.577712236
     0.597673374  0.401777404  0.515632387
     0.683225147  0.029582901  0.582992069
     0.844349419  0.550717621  0.492555908
     0.928675703  0.089867805  0.550865681
     0.872469642  0.458136823  0.423977775
     0.428889453  0.678846535  0.506484296
     0.508903832  0.640951284  0.574442415
     0.319608447  0.170122881  0.554216780
     0.857113208  0.310446165  0.578094530
     0.481166660  0.795701226  0.395669654
     0.162159954  0.327681406  0.364414055
     0.821359468  0.102007159  0.487073599
     0.137011301  0.009632810  0.492329696
     0.214188213  0.986580394  0.635416380
     0.258640035  0.151404949  0.420100886
     0.927630393  0.580748286  0.561456636
     0.178536253  0.091460528  0.562451392
     0.256303903  0.606709806  0.406886018
     0.939685847  0.317110018  0.435126527
     0.074479736  0.276759664  0.475435021
     0.430276552  0.988499089  0.477110211
     0.340810367  0.381307889  0.465221325
     0.344947595  0.464494648  0.531638758
     0.091510042  0.895920354  0.600501005
     0.463475471  0.828876075  0.476303904
     0.953990094  0.818794332  0.516291961
     0.293425487  0.610141450  0.493168370
     0.436026447  0.408598054  0.400344937
     0.581232430  0.076505713  0.458096194
     0.363003268  0.215149623  0.476826817
     0.320468077  0.997556152  0.412065513
     0.066705722  0.736551791  0.483203543
     0.664931528  0.880474518  0.566818826
     0.052966012  0.195153249  0.547687567
     0.804290651  0.683500229  0.448949182
     0.563658150  0.217263626  0.624558574
     0.418423971  0.040219828  0.561232222
     0.933317706  0.688708212  0.366353111
     0.545658181  0.060537635  0.618760503
     0.369834233  0.530898675  0.364826955
     0.239642895  0.902879920  0.459765270
     0.182619153  0.684500150  0.535389774
     0.823140622  0.960516406  0.374095811
     0.535753866  0.593159283  0.453730198
     0.995011647  0.115867148  0.381808374
     0.652550103  0.942147828  0.434364816
     0.753888813  0.184865883  0.362871140

  ion indices of the primitive-cell ions
   primitive index   ion index
                 1           1
                 2           2
                 3           3
                 4           4
                 5           5
                 6           6
                 7           7
                 8           8
                 9           9
                10          10
                11          11
                12          12
                13          13
                14          14
                15          15
                16          16
                17          17
                18          18
                19          19
                20          20
                21          21
                22          22
                23          23
                24          24
                25          25
                26          26
                27          27
                28          28
                29          29
                30          30
                31          31
                32          32
                33          33
                34          34
                35          35
                36          36
                37          37
                38          38
                39          39
                40          40
                41          41
                42          42
                43          43
                44          44
                45          45
                46          46
                47          47
                48          48
                49          49
                50          50
                51          51
                52          52
                53          53
                54          54
                55          55
                56          56
                57          57
                58          58
                59          59
                60          60
                61          61
                62          62
                63          63
                64          64
                65          65
                66          66
                67          67
                68          68
                69          69
                70          70
                71          71
                72          72
                73          73
                74          74
                75          75
                76          76
                77          77
                78          78
                79          79
                80          80
                81          81
                82          82
                83          83
                84          84
                85          85
                86          86
                87          87
                88          88
                89          89
                90          90
                91          91
                92          92

----------------------------------------------------------------------------------------


 -----------------------------------------------------------------------------
|                                                                             |
|           W    W    AA    RRRRR   N    N  II  N    N   GGGG   !!!           |
|           W    W   A  A   R    R  NN   N  II  NN   N  G    G  !!!           |
|           W    W  A    A  R    R  N N  N  II  N N  N  G       !!!           |
|           W WW W  AAAAAA  RRRRR   N  N N  II  N  N N  G  GGG   !            |
|           WW  WW  A    A  R   R   N   NN  II  N   NN  G    G                |
|           W    W  A    A  R    R  N    N  II  N    N   GGGG   !!!           |
|                                                                             |
|     The requested file  could not be found or opened for reading            |
|     k-point information. Automatic k-point generation is used as a          |
|     fallback, which may lead to unwanted results.                           |
|                                                                             |
 -----------------------------------------------------------------------------



Automatic generation of k-mesh.
 Grid dimensions derived from KSPACING:
 generate k-points for:    2    2    1

 Generating k-lattice:

  Cartesian coordinates                     Fractional coordinates (reciprocal lattice)
     0.034385208  0.000000000  0.000000000     0.500000000  0.000000000  0.000000000
     0.000000000  0.034385208  0.000000000     0.000000000  0.500000000  0.000000000
     0.000000000  0.000000000  0.035963717     0.000000000  0.000000000  1.000000000

  Length of vectors
     0.034385208  0.034385208  0.035963717

  Shift w.r.t. Gamma in fractional coordinates (k-lattice)
     0.000000000  0.000000000  0.000000000

 
 Subroutine IBZKPT returns following result:
 ===========================================
 
 Found      4 irreducible k-points:
 
 Following reciprocal coordinates:
            Coordinates               Weight
  0.000000  0.000000  0.000000      1.000000
  0.500000  0.000000  0.000000      1.000000
  0.000000  0.500000  0.000000      1.000000
  0.500000  0.500000  0.000000      1.000000
 
 Following cartesian coordinates:
            Coordinates               Weight
  0.000000  0.000000  0.000000      1.000000
  0.034385  0.000000  0.000000      1.000000
  0.000000  0.034385  0.000000      1.000000
  0.034385  0.034385  0.000000      1.000000
 


--------------------------------------------------------------------------------------------------------




 Dimension of arrays:
   k-points           NKPTS =      4   k-points in BZ     NKDIM =      4   number of bands    NBANDS=    224
   number of dos      NEDOS =   2000   number of ions     NIONS =     92
   non local maximal  LDIM  =      4   non local SUM 2l+1 LMDIM =      8
   total plane-waves  NPLWV = ******
   max r-space proj   IRMAX =      1   max aug-charges    IRDMAX= 411043
   dimension x,y,z NGX =   168 NGY =  168 NGZ =  320
   dimension x,y,z NGXF=   336 NGYF=  336 NGZF=  640
   support grid    NGXF=   672 NGYF=  672 NGZF= 1280
   ions per type =               8  84
   NGX,Y,Z   is equivalent  to a cutoff of  19.21, 19.21, 19.13 a.u.
   NGXF,Y,Z  is equivalent  to a cutoff of  38.41, 38.41, 38.26 a.u.

 SYSTEM =  a-Si SPC                                
 POSCAR =   H Si                                   

 Startparameter for this run:
   NWRITE =      2    write-flag & timer
   PREC   = accura    normal or accurate (medium, high low for compatibility)
   ISTART =      1    job   : 0-new  1-cont  2-samecut
   ICHARG =      1    charge: 1-file 2-atom 10-const
   ISPIN  =      1    spin polarized calculation?
   LNONCOLLINEAR =      F non collinear calculations
   LSORBIT =      F    spin-orbit coupling
   INIWAV =      1    electr: 0-lowe 1-rand  2-diag
   LASPH  =      T    aspherical Exc in radial PAW
 Electronic Relaxation 1
   ENCUT  = 1200.0 eV  88.20 Ry    9.39 a.u.  41.07 41.07 78.54*2*pi/ulx,y,z
   ENINI  = 1200.0     initial cutoff
   ENAUG  =  400.0 eV  augmentation charge cutoff
   NELM   =    150;   NELMIN=  2; NELMDL=  0     # of ELM steps 
   EDIFF  = 0.1E-05   stopping-criterion for ELM
   LREAL  =      F    real-space projection
   NLSPLINE    = F    spline interpolate recip. space projectors
   LCOMPAT=      F    compatible to vasp.4.4
   GGA_COMPAT  = T    GGA compatible to vasp.4.4-vasp.4.6
   LMAXPAW     = -100 max onsite density
   LMAXMIX     =    2 max onsite mixed and CHGCAR
   VOSKOWN=      0    Vosko Wilk Nusair interpolation
   ROPT   =    0.00000   0.00000
 Ionic relaxation
   EDIFFG = -.1E-01   stopping-criterion for IOM
   NSW    =      0    number of steps for IOM
   NBLOCK =      1;   KBLOCK =      1    inner block; outer block 
   IBRION =     -1    ionic relax: 0-MD 1-quasi-New 2-CG
   NFREE  =      0    steps in history (QN), initial steepest desc. (CG)
   ISIF   =      2    stress and relaxation
   IWAVPR =     10    prediction:  0-non 1-charg 2-wave 3-comb
   ISYM   =      1    0-nonsym 1-usesym 2-fastsym
   LCORR  =      T    Harris-Foulkes like correction to forces

   POTIM  = 0.5000    time-step for ionic-motion
   TEIN   =    0.0    initial temperature
   TEBEG  =    0.0;   TEEND  =   0.0 temperature during run
   SMASS  =  -3.00    Nose mass-parameter (am)
   estimated Nose-frequenzy (Omega)   =  0.10E-29 period in steps = 0.13E+47 mass=  -0.483E-26a.u.
   SCALEE = 1.0000    scale energy and forces
   NPACO  =    256;   APACO  = 10.0  distance and # of slots for P.C.
   PSTRESS=    0.0 pullay stress

  Mass of Ions in am
   POMASS =   1.00 28.09
  Ionic Valenz
   ZVAL   =   1.00  4.00
  Atomic Wigner-Seitz radii
   RWIGS  =  -1.00 -1.00
  virtual crystal weights 
   VCA    =   1.00  1.00
   NELECT =     344.0000    total number of electrons
   NUPDOWN=      -1.0000    fix difference up-down

 DOS related values:
   EMIN   =  10.00;   EMAX   =-10.00  energy-range for DOS
   EFERMI =   0.00;   METHOD = LEGACY      
   ISMEAR =     0;   SIGMA  =   0.10  broadening in eV -4-tet -1-fermi 0-gaus
   EFERMI_NEDOS =   21; number of points for ismear=-14 and -15

 Electronic relaxation 2 (details)
   IALGO  =     38    algorithm
   LDIAG  =      F    sub-space diagonalisation (order eigenvalues)
   LSUBROT=      F    optimize rotation matrix (better conditioning)
   TURBO    =      0    0=normal 1=particle mesh
   IRESTART =      0    0=no restart 2=restart with 2 vectors
   NREBOOT  =      0    no. of reboots
   NMIN     =      0    reboot dimension
   EREF     =   0.00    reference energy to select bands
   IMIX   =      4    mixing-type and parameters
     AMIX     =   0.40;   BMIX     =  1.00
     AMIX_MAG =   1.60;   BMIX_MAG =  1.00
     AMIN     =   0.10
     WC   =   100.;   INIMIX=   1;  MIXPRE=   1;  MAXMIX= -45

 Intra band minimization:
   WEIMIN = 0.0000     energy-eigenvalue tresh-hold
   EBREAK =  0.11E-08  absolut break condition
   DEPER  =   0.30     relativ break condition  

   TIME   =   0.40     timestep for ELM

  volume/ion in A,a.u.               =      63.91       431.26
  Fermi-wavevector in a.u.,A,eV,Ry     =   0.635551  1.201017  5.495731  0.403925
  Thomas-Fermi vector in A             =   1.699922

 Write flags
   LWAVE        =      F    write WAVECAR
   LDOWNSAMPLE  =      F    k-point downsampling of WAVECAR
   LCHARG       =      F    write CHGCAR
   LVTOT        =      F    write LOCPOT, total local potential
   LVHAR        =      F    write LOCPOT, Hartree potential only
   WRT_POTENTIAL= false  ! write potential to hdf5 file
   LELF         =      F    write electronic localiz. function (ELF)
   LORBIT       =     11    0 simple, 1 ext, 2 COOP (PROOUT), +10 PAW based schemes


 Python interface
   PLUGINS active      =      F    recompile with -DPLUGINS to activate

 Dipole corrections
   LMONO      =      F    monopole corrections only (constant potential shift)
   LDIPOL     =      F    correct potential (dipole corrections)
   IDIPOL     =      0    1-x, 2-y, 3-z, 4-all directions 
   EPSILON    =  1.0000000 bulk dielectric constant
   LVACPOTAV  =      F  vacuum potentials using an averaging scheme for the charge density
   VACPOTFLAT =  0.1000000 required flatness to determine vacuum potential

Coulomb truncation method
  LTRUNCATE          =      F  Coulomb kernel truncation to be used
  IDIMENSIONALITY    =      3  Dimensionality of cutoff (0 molecules / 2 surfaces)
  ISURFACE           =     -1  Direction of surface normal
  LCOARSEN           =      F  Coarsen the charge grid before padding, preferred


 Exchange correlation treatment:
   METAGGA = SCAN    functional components
   XC_C    = 1    coefficients multiplying the functional components
   LIBXC   =     F    Libxc                    
   VOSKOWN =     0    Vosko Wilk Nusair interpolation
   LHFCALC =     F    Hartree Fock is set to
   LHFONE  =     F    Hartree Fock one center treatment
   AEXX    =    0.0000 exact exchange contribution

 Parameters of functionals:
   SCAN:
     P1 =  0.000000E+00
     P2 =  0.000000E+00
     P3 =  0.000000E+00

 Accuracy and mixing parameters for tau-dependent meta-GGA functionals:
   LMAXTAU = 6
   LMIXTAU = T

 Van der Waals corrections
   IVDW    =     0    specifies the selected vdW correction

 Linear response parameters
   LEPSILON=     F    determine dielectric tensor
   LRPA    =     F    only Hartree local field effects (RPA)
   LNABLA  =     F    use nabla operator in PAW spheres
   LVEL    =     F    velocity operator in full k-point grid
   CSHIFT  =0.1000    complex shift for real part using Kramers Kronig
   OMEGAMAX=  -1.0    maximum frequency
   DEG_THRESHOLD= 0.2000000E-02 threshold for treating states as degnerate
   RTIME   =   -0.100 relaxation time in fs
  (WPLASMAI=    0.000 imaginary part of plasma frequency in eV, 0.658/RTIME)
   DFIELD  = 0.0000000 0.0000000 0.0000000 field for delta impulse in time

  Optional k-point grid parameters
   LKPOINTS_OPT  =     F    use optional k-point grid
   KPOINTS_OPT_MODE=     1    mode for optional k-point grid

 Orbital magnetization related:
   ORBITALMAG=     F  switch on orbital magnetization
   LCHIMAG   =     F  perturbation theory with respect to B field
   DQ        =  0.001000  dq finite difference perturbation B field
   LLRAUG    =     F  two centre corrections for induced B field
   LBONE     =     F  B-component reconstruction in AE one-centre
   LVGVCALC  =     T  calculate vGv susceptibility
   LVGVAPPL  =     F  apply vGv susceptibility instead of pGv for G=0

 Random number generation:
   RANDOM_GENERATOR = DEFAULT
   PCG_SEED         = not used


--------------------------------------------------------------------------------------------------------


 Static calculation
 charge density and potential will be updated during run
 non-spin polarized calculation
 Variant of blocked Davidson
 perform Loewdin sub-space diagonalisation
    ordering is kept fixed
    before iterative eigenvector-optimisation
 modified Broyden-mixing scheme, WC =      100.0
 initial mixing is a Kerker type mixing with AMIX =  0.4000 and BMIX =      1.0000
 Hartree-type preconditioning will be used
 using additional bands           52
 reciprocal scheme for non local part
 use partial core corrections
 calculate Harris-corrections to forces   (improved forces if not selfconsistent)
 use gradient corrections 
 use of overlap-Matrix (Vanderbilt PP)
 Gauss-broadening in eV      SIGMA  =   0.10


--------------------------------------------------------------------------------------------------------


  energy-cutoff  :     1200.00
  volume of cell :     5879.39
      direct lattice vectors                 reciprocal lattice vectors
    14.541136322  0.000000000  0.000000000     0.068770416  0.000000000  0.000000000
     0.000000000 14.541136322  0.000000000     0.000000000  0.068770416  0.000000000
     0.000000000  0.000000000 27.805802100     0.000000000  0.000000000  0.035963717

  length of vectors
    14.541136322 14.541136322 27.805802100     0.068770416  0.068770416  0.035963717



 old parameters found on file WAVECAR:
  energy-cutoff  :     1200.00
  volume of cell :     5879.39
      direct lattice vectors                 reciprocal lattice vectors
    14.541136322  0.000000000  0.000000000     0.068770416  0.000000000  0.000000000
     0.000000000 14.541136322  0.000000000     0.000000000  0.068770416  0.000000000
     0.000000000  0.000000000 27.805802100     0.000000000  0.000000000  0.035963717

  length of vectors


 k-points in units of 2pi/SCALE and weight: read from INCAR                         
   0.00000000  0.00000000  0.00000000       0.250
   0.03438521  0.00000000  0.00000000       0.250
   0.00000000  0.03438521  0.00000000       0.250
   0.03438521  0.03438521  0.00000000       0.250

 k-points in reciprocal lattice and weights: read from INCAR                         
   0.00000000  0.00000000  0.00000000       0.250
   0.50000000  0.00000000  0.00000000       0.250
   0.00000000  0.50000000  0.00000000       0.250
   0.50000000  0.50000000  0.00000000       0.250

 position of ions in fractional coordinates (direct lattice) 
   0.59990772  0.27874369  0.40274983
   0.02242920  0.65600307  0.46054568
   0.04665853  0.10555296  0.64032794
   0.84216252  0.26610850  0.53036528
   0.10148725  0.54290805  0.48562714
   0.10012698  0.40014686  0.52204076
   0.45671052  0.18739113  0.47226806
   0.57472331  0.85503634  0.59660793
   0.67811619  0.13062253  0.51639626
   0.66511652  0.63566903  0.55667886
   0.60439293  0.88263391  0.36330350
   0.77873556  0.69600475  0.36864562
   0.86453354  0.17723237  0.41957294
   0.01154820  0.27073606  0.35985310
   0.98112002  0.84041575  0.38699474
   0.98257796  0.54474216  0.38578308
   0.72161486  0.49726444  0.54399769
   0.58504781  0.43901177  0.43284535
   0.61607015  0.83998937  0.48988668
   0.90007409  0.73560964  0.58541135
   0.21078408  0.73111893  0.35963717
   0.74338069  0.75281599  0.59688054
   0.26391679  0.41192517  0.59642128
   0.13526866  0.80937966  0.41793299
   0.83239024  0.06588254  0.61760535
   0.87390694  0.82878667  0.44873268
   0.84093153  0.45954387  0.59180426
   0.64985155  0.68774543  0.47820315
   0.08170063  0.57638687  0.57775108
   0.00754803  0.30366884  0.60042117
   0.79766806  0.96440881  0.45383737
   0.49647495  0.63072031  0.37323196
   0.60475122  0.17870405  0.39252175
   0.30074885  0.25747163  0.62496173
   0.10376906  0.13274547  0.44705893
   0.73038996  0.45482415  0.38468004
   0.18537410  0.37152186  0.44177334
   0.01202224  0.95689908  0.53715272
   0.61687751  0.26682096  0.55245132
   0.12259221  0.52182648  0.42933637
   0.34987568  0.92067770  0.60334178
   0.23601869  0.81561714  0.57508185
   0.48930289  0.48513265  0.56702598
   0.97705569  0.83008643  0.64036283
   0.11119626  0.42803189  0.57771224
   0.59767337  0.40177740  0.51563239
   0.68322515  0.02958290  0.58299207
   0.84434942  0.55071762  0.49255591
   0.92867570  0.08986780  0.55086568
   0.87246964  0.45813682  0.42397777
   0.42888945  0.67884653  0.50648430
   0.50890383  0.64095128  0.57444241
   0.31960845  0.17012288  0.55421678
   0.85711321  0.31044616  0.57809453
   0.48116666  0.79570123  0.39566965
   0.16215995  0.32768141  0.36441406
   0.82135947  0.10200716  0.48707360
   0.13701130  0.00963281  0.49232970
   0.21418821  0.98658039  0.63541638
   0.25864003  0.15140495  0.42010089
   0.92763039  0.58074829  0.56145664
   0.17853625  0.09146053  0.56245139
   0.25630390  0.60670981  0.40688602
   0.93968585  0.31711002  0.43512653
   0.07447974  0.27675966  0.47543502
   0.43027655  0.98849909  0.47711021
   0.34081037  0.38130789  0.46522133
   0.34494759  0.46449465  0.53163876
   0.09151004  0.89592035  0.60050100
   0.46347547  0.82887607  0.47630390
   0.95399009  0.81879433  0.51629196
   0.29342549  0.61014145  0.49316837
   0.43602645  0.40859805  0.40034494
   0.58123243  0.07650571  0.45809619
   0.36300327  0.21514962  0.47682682
   0.32046808  0.99755615  0.41206551
   0.06670572  0.73655179  0.48320354
   0.66493153  0.88047452  0.56681883
   0.05296601  0.19515325  0.54768757
   0.80429065  0.68350023  0.44894918
   0.56365815  0.21726363  0.62455857
   0.41842397  0.04021983  0.56123222
   0.93331771  0.68870821  0.36635311
   0.54565818  0.06053763  0.61876050
   0.36983423  0.53089867  0.36482695
   0.23964289  0.90287992  0.45976527
   0.18261915  0.68450015  0.53538977
   0.82314062  0.96051641  0.37409581
   0.53575387  0.59315928  0.45373020
   0.99501165  0.11586715  0.38180837
   0.65255010  0.94214783  0.43436482
   0.75388881  0.18486588  0.36287114

 position of ions in cartesian coordinates  (Angst):
   8.72334000  4.05325000 11.19878210
   0.32614600  9.53903000 12.80584210
   0.67846800  1.53486000 17.80483210
  12.24600000  3.86952000 14.74723210
   1.47574000  7.89450000 13.50325210
   1.45596000  5.81859000 14.51576210
   6.64109000  2.72488000 13.13179210
   8.35713000 12.43320000 16.58916210
   9.86058000  1.89940000 14.35881210
   9.67155000  9.24335000 15.47890210
   8.78856000 12.83450000 10.10194510
  11.32370000 10.12070000 10.25048710
  12.57130000  2.57716000 11.66656210
   0.16792400  3.93681000 10.00600410
  14.26660000 12.22060000 10.76069910
  14.28780000  7.92117000 10.72700810
  10.49310000  7.23079000 15.12629210
   8.50726000  6.38373000 12.03561210
   8.95836000 12.21440000 13.62169210
  13.08810000 10.69660000 16.27783210
   3.06504000 10.63130000 10.00000000
  10.80960000 10.94680000 16.59674210
   3.83765000  5.98986000 16.58397210
   1.96696000 11.76930000 11.62096210
  12.10390000  0.95800700 17.17301210
  12.70760000 12.05150000 12.47737210
  12.22810000  6.68229000 16.45559210
   9.44958000 10.00060000 13.29682210
   1.18802000  8.38132000 16.06483210
   0.10975700  4.41569000 16.69519210
  11.59900000 14.02360000 12.61931210
   7.21931000  9.17139000 10.37801410
   8.79377000  2.59856000 10.91438210
   4.37323000  3.74393000 17.37756210
   1.50892000  1.93027000 12.43083210
  10.62070000  6.61366000 10.69633710
   2.69555000  5.40235000 12.28386210
   0.17481700 13.91440000 14.93596210
   8.97010000  3.87988000 15.36135210
   1.78263000  7.58795000 11.93804210
   5.08759000 13.38770000 16.77640210
   3.43198000 11.86000000 15.99061210
   7.11502000  7.05438000 15.76661210
  14.20750000 12.07040000 17.80580210
   1.61692000  6.22407000 16.06375210
   8.69085000  5.84230000 14.33757210
   9.93487000  0.43016900 16.21056210
  12.27780000  8.00806000 13.69591210
  13.50400000  1.30678000 15.31726210
  12.68670000  6.66183000 11.78904210
   6.23654000  9.87120000 14.08320210
   7.40004000  9.32016000 15.97283210
   4.64747000  2.47378000 15.41044210
  12.46340000  4.51424000 16.07438210
   6.99671000 11.57040000 11.00191210
   2.35799000  4.76486000 10.13282510
  11.94350000  1.48330000 13.54347210
   1.99230000  0.14007200 13.68962210
   3.11454000 14.34600000 17.66826210
   3.76092000  2.20160000 11.68124210
  13.48880000  8.44474000 15.61175210
   2.59612000  1.32994000 15.63941210
   3.72695000  8.82225000 11.31379210
  13.66410000  4.61114000 12.09904210
   1.08302000  4.02440000 13.21985210
   6.25671000 14.37390000 13.26643210
   4.95577000  5.54465000 12.93585210
   5.01593000  6.75428000 14.78264210
   1.33066000 13.02770000 16.69741210
   6.73946000 12.05280000 13.24401210
  13.87210000 11.90620000 14.35591210
   4.26674000  8.87215000 13.71294210
   6.34032000  5.94148000 11.13191210
   8.45178000  1.11248000 12.73773210
   5.27848000  3.12852000 13.25855210
   4.65997000 14.50560000 11.45781210
   0.96997700 10.71030000 13.43586210
   9.66886000 12.80310000 15.76085210
   0.77018600  2.83775000 15.22889210
  11.69530000  9.93887000 12.48339210
   8.19623000  3.15926000 17.36635210
   6.08436000  0.58484200 15.60551210
  13.57150000 10.01460000 10.18674210
   7.93449000  0.88028600 17.20513210
   5.37781000  7.71987000 10.14430610
   3.48468000 13.12890000 12.78414210
   2.65549000  9.95341000 14.88694210
  11.96940000 13.96700000 10.40203410
   7.79047000  8.62521000 12.61633210
  14.46860000  1.68484000 10.61648810
   9.48882000 13.69990000 12.07786210
  10.96240000  2.68816000 10.08992310



--------------------------------------------------------------------------------------------------------


 k-point     1 :   0.0000 0.0000 0.0000  plane waves:  554909
 k-point     2 :   0.5000 0.0000 0.0000  plane waves:  555150
 k-point     3 :   0.0000 0.5000 0.0000  plane waves:  555150
 k-point     4 :   0.5000 0.5000 0.0000  plane waves:  555052

 maximum and minimum number of plane-waves per node :     34760    34641

 maximum number of plane-waves:    555150
 maximum index in each direction: 
   IXMAX=   41   IYMAX=   41   IZMAX=   78
   IXMIN=  -41   IYMIN=  -41   IZMIN=  -78


 parallel 3D FFT for wavefunctions:
    minimum data exchange during FFTs selected (reduces bandwidth)
 parallel 3D FFT for charge:
    minimum data exchange during FFTs selected (reduces bandwidth)


 total amount of memory used by VASP MPI-rank0   353929. kBytes
=======================================================================

   base                                    :      30000. kBytes
   nonl-proj                               :      68820. kBytes
   fftplans                                :     108854. kBytes
   grid                                    :      83991. kBytes
   one-center                              :         18. kBytes
   wavefun                                 :      62246. kBytes

     INWAV:  cpu time     17.9053: real time     17.9168
 Broyden mixing: mesh for mixing (old mesh)
   NGX = 83   NGY = 83   NGZ =157
  (NGX  =336   NGY  =336   NGZ  =640)
  gives a total of ****** points

 initial charge density was supplied:
 number of electron     343.9999999 magnetization 
 keeping initial charge density in first step


--------------------------------------------------------------------------------------------------------


 Maximum index for augmentation-charges        11478 (set IRDMAX)


--------------------------------------------------------------------------------------------------------


 First call to EWALD:  gamma=   0.098
 Maximum number of real-space cells   3x   3x   2
 Maximum number of reciprocal cells   2x   2x   4

    FEWALD:  cpu time      0.0132: real time      0.0135


--------------------------------------- Ionic step        1  -------------------------------------------




--------------------------------------- Iteration      1(   1)  ---------------------------------------


    POTLOK:  cpu time      2.1418: real time      2.1425
    SETDIJ:  cpu time      1.5834: real time      1.5845
    EDDIAG:  cpu time     35.8121: real time     35.8314
     EDDAV:  cpu time    164.9236: real time    165.0227
       DOS:  cpu time      0.0052: real time      0.0053
    CHARGE:  cpu time     20.9978: real time     21.0166
    MIXING:  cpu time      0.0494: real time      0.0498
    --------------------------------------------
      LOOP:  cpu time    225.5134: real time    225.6529

 eigenvalue-minimisations  :  1792
 total energy-change (2. order) :-0.8549874E+03  (-0.9622814E+00)
 number of electron     343.9999999 magnetization 
 augmentation part      -19.2344019 magnetization 

 Broyden mixing:
  rms(total) = 0.11086E+01    rms(broyden)= 0.27089E+02
  rms(prec ) = 0.11427E+01
  weight for this iteration     100.00
  WARNING: grid for Broyden might be to small

 Free energy of the ion-electron system (eV)
  ---------------------------------------------------
  alpha Z        PSCENC =        42.50217730
  Ewald energy   TEWEN  =     50644.14203246
  -Hartree energ DENC   =    -58319.22569303
  -exchange      EXHF   =         0.00000000
  -V(xc)+E(xc)   XCENC  =      -396.34198661
  PAW double counting   =     31062.63180221   -30225.24490698
  entropy T*S    EENTRO =        -0.24031999
  eigenvalues    EBANDS =     -2420.73156566
  atomic energy  EATOM  =      8757.52110192
  Solvation  Ediel_sol  =         0.00000000
  ---------------------------------------------------
  free energy    TOTEN  =      -854.98735838 eV

  energy without entropy =     -854.74703839  energy(sigma->0) =     -854.86719839


--------------------------------------------------------------------------------------------------------




--------------------------------------- Iteration      1(   2)  ---------------------------------------


    POTLOK:  cpu time      2.1034: real time      2.1201
    SETDIJ:  cpu time      1.5812: real time      1.5822
    EDDIAG:  cpu time     35.8639: real time     35.8823
     EDDAV:  cpu time    164.7567: real time    164.8552
       DOS:  cpu time      0.0019: real time      0.0019
    CHARGE:  cpu time     20.7785: real time     20.7964
    MIXING:  cpu time      0.0437: real time      0.0443
    --------------------------------------------
      LOOP:  cpu time    225.1293: real time    225.2822

 eigenvalue-minimisations  :  1800
 total energy-change (2. order) : 0.6111348E+02  (-0.9320121E+00)
 number of electron     343.9999999 magnetization 
 augmentation part      -19.1794264 magnetization 

 Broyden mixing:
  rms(total) = 0.74963E+00    rms(broyden)= 0.15636E+02
  rms(prec ) = 0.76812E+00
  weight for this iteration     100.00
  WARNING: grid for Broyden might be to small

 eigenvalues of (default mixing * dielectric matrix)
  average eigenvalue GAMMA=   0.6341
  0.6341

 Free energy of the ion-electron system (eV)
  ---------------------------------------------------
  alpha Z        PSCENC =        42.50217730
  Ewald energy   TEWEN  =     50644.14203246
  -Hartree energ DENC   =    -58307.37629501
  -exchange      EXHF   =         0.00000000
  -V(xc)+E(xc)   XCENC  =      -387.73016786
  PAW double counting   =     36989.74303553   -36152.15155405
  entropy T*S    EENTRO =        -0.22326308
  eigenvalues    EBANDS =     -2380.30094765
  atomic energy  EATOM  =      8757.52110192
  Solvation  Ediel_sol  =         0.00000000
  ---------------------------------------------------
  free energy    TOTEN  =      -793.87388044 eV

  energy without entropy =     -793.65061736  energy(sigma->0) =     -793.76224890


--------------------------------------------------------------------------------------------------------




--------------------------------------- Iteration      1(   3)  ---------------------------------------


    POTLOK:  cpu time      2.1101: real time      2.1297
    SETDIJ:  cpu time      1.5726: real time      1.5740
    EDDIAG:  cpu time     35.8588: real time     35.8769
     EDDAV:  cpu time    164.2163: real time    164.3139
       DOS:  cpu time      0.0020: real time      0.0020
    CHARGE:  cpu time     20.7552: real time     20.7743
    MIXING:  cpu time      0.0398: real time      0.0399
    --------------------------------------------
      LOOP:  cpu time    224.5548: real time    224.7106

 eigenvalue-minimisations  :  1792
 total energy-change (2. order) :-0.3086977E+01  (-0.7639292E+00)
 number of electron     343.9999999 magnetization 
 augmentation part      -19.1075027 magnetization 

 Broyden mixing:
  rms(total) = 0.34567E+00    rms(broyden)= 0.21961E+02
  rms(prec ) = 0.44264E+00
  weight for this iteration     100.00
  WARNING: grid for Broyden might be to small

 eigenvalues of (default mixing * dielectric matrix)
  average eigenvalue GAMMA=   0.7450
  0.8653  0.6246

 Free energy of the ion-electron system (eV)
  ---------------------------------------------------
  alpha Z        PSCENC =        42.50217730
  Ewald energy   TEWEN  =     50644.14203246
  -Hartree energ DENC   =    -58307.20219444
  -exchange      EXHF   =         0.00000000
  -V(xc)+E(xc)   XCENC  =      -390.75695847
  PAW double counting   =     43769.48338970   -42932.05295987
  entropy T*S    EENTRO =        -0.23387071
  eigenvalues    EBANDS =     -2380.36357567
  atomic energy  EATOM  =      8757.52110192
  Solvation  Ediel_sol  =         0.00000000
  ---------------------------------------------------
  free energy    TOTEN  =      -796.96085780 eV

  energy without entropy =     -796.72698709  energy(sigma->0) =     -796.84392244


--------------------------------------------------------------------------------------------------------




--------------------------------------- Iteration      1(   4)  ---------------------------------------


    POTLOK:  cpu time      2.1042: real time      2.1212
    SETDIJ:  cpu time      1.5802: real time      1.5813
    EDDIAG:  cpu time     35.8716: real time     35.8921
     EDDAV:  cpu time    184.2465: real time    184.3605
       DOS:  cpu time      0.0018: real time      0.0018
    CHARGE:  cpu time     20.9120: real time     20.9304
    MIXING:  cpu time      0.0402: real time      0.0402
    --------------------------------------------
      LOOP:  cpu time    244.7566: real time    244.9275

 eigenvalue-minimisations  :  2184
 total energy-change (2. order) : 0.9765830E-01  (-0.1830211E+00)
 number of electron     343.9999999 magnetization 
 augmentation part      -19.1134981 magnetization 

 Broyden mixing:
  rms(total) = 0.23594E+00    rms(broyden)= 0.17657E+01
  rms(prec ) = 0.42692E+00
  weight for this iteration     100.00
  WARNING: grid for Broyden might be to small

 eigenvalues of (default mixing * dielectric matrix)
  average eigenvalue GAMMA=   0.6913
  1.1102  0.6302  0.3336

 Free energy of the ion-electron system (eV)
  ---------------------------------------------------
  alpha Z        PSCENC =        42.50217730
  Ewald energy   TEWEN  =     50644.14203246
  -Hartree energ DENC   =    -58306.67973691
  -exchange      EXHF   =         0.00000000
  -V(xc)+E(xc)   XCENC  =      -391.59939511
  PAW double counting   =     48929.74644268   -48092.37308226
  entropy T*S    EENTRO =        -0.19617901
  eigenvalues    EBANDS =     -2379.92656056
  atomic energy  EATOM  =      8757.52110192
  Solvation  Ediel_sol  =         0.00000000
  ---------------------------------------------------
  free energy    TOTEN  =      -796.86319949 eV

  energy without entropy =     -796.66702048  energy(sigma->0) =     -796.76510999


--------------------------------------------------------------------------------------------------------




--------------------------------------- Iteration      1(   5)  ---------------------------------------


    POTLOK:  cpu time      2.0998: real time      2.1164
    SETDIJ:  cpu time      1.5769: real time      1.5777
    EDDIAG:  cpu time     35.8853: real time     35.9064
     EDDAV:  cpu time    180.7647: real time    180.8769
       DOS:  cpu time      0.0021: real time      0.0021
    CHARGE:  cpu time     20.7704: real time     20.7890
    MIXING:  cpu time      0.0406: real time      0.0406
    --------------------------------------------
      LOOP:  cpu time    241.1397: real time    241.3091

 eigenvalue-minimisations  :  2112
 total energy-change (2. order) : 0.2520348E+00  (-0.9611753E-01)
 number of electron     343.9999999 magnetization 
 augmentation part      -19.1072643 magnetization 

 Broyden mixing:
  rms(total) = 0.72028E-01    rms(broyden)= 0.17365E+01
  rms(prec ) = 0.10190E+00
  weight for this iteration     100.00
  WARNING: grid for Broyden might be to small

 eigenvalues of (default mixing * dielectric matrix)
  average eigenvalue GAMMA=   0.9146
  2.1229  0.6839  0.6073  0.2445

 Free energy of the ion-electron system (eV)
  ---------------------------------------------------
  alpha Z        PSCENC =        42.50217730
  Ewald energy   TEWEN  =     50644.14203246
  -Hartree energ DENC   =    -58309.00064628
  -exchange      EXHF   =         0.00000000
  -V(xc)+E(xc)   XCENC  =      -392.42612132
  PAW double counting   =     49256.51456318   -48419.13899602
  entropy T*S    EENTRO =        -0.22856576
  eigenvalues    EBANDS =     -2376.49671018
  atomic energy  EATOM  =      8757.52110192
  Solvation  Ediel_sol  =         0.00000000
  ---------------------------------------------------
  free energy    TOTEN  =      -796.61116471 eV

  energy without entropy =     -796.38259895  energy(sigma->0) =     -796.49688183


--------------------------------------------------------------------------------------------------------




--------------------------------------- Iteration      1(   6)  ---------------------------------------


    POTLOK:  cpu time      2.1051: real time      2.1203
    SETDIJ:  cpu time      1.5740: real time      1.5754
    EDDIAG:  cpu time     35.8647: real time     35.8863
     EDDAV:  cpu time    169.0443: real time    169.1504
       DOS:  cpu time      0.0019: real time      0.0019
    CHARGE:  cpu time     20.7706: real time     20.7901
    MIXING:  cpu time      0.0410: real time      0.0410
    --------------------------------------------
      LOOP:  cpu time    229.4017: real time    229.5654

 eigenvalue-minimisations  :  1888
 total energy-change (2. order) :-0.7319501E-02  (-0.3032645E-01)
 number of electron     343.9999999 magnetization 
 augmentation part      -19.1082590 magnetization 

 Broyden mixing:
  rms(total) = 0.41076E-01    rms(broyden)= 0.33911E+00
  rms(prec ) = 0.51448E-01
  weight for this iteration     100.00
  WARNING: grid for Broyden might be to small

 eigenvalues of (default mixing * dielectric matrix)
  average eigenvalue GAMMA=   0.9154
  2.4539  0.7494  0.6220  0.2924  0.4592

 Free energy of the ion-electron system (eV)
  ---------------------------------------------------
  alpha Z        PSCENC =        42.50217730
  Ewald energy   TEWEN  =     50644.14203246
  -Hartree energ DENC   =    -58308.98272896
  -exchange      EXHF   =         0.00000000
  -V(xc)+E(xc)   XCENC  =      -392.72827128
  PAW double counting   =     48922.64159371   -48085.24292200
  entropy T*S    EENTRO =        -0.23044317
  eigenvalues    EBANDS =     -2376.24102420
  atomic energy  EATOM  =      8757.52110192
  Solvation  Ediel_sol  =         0.00000000
  ---------------------------------------------------
  free energy    TOTEN  =      -796.61848421 eV

  energy without entropy =     -796.38804104  energy(sigma->0) =     -796.50326263


--------------------------------------------------------------------------------------------------------




--------------------------------------- Iteration      1(   7)  ---------------------------------------


    POTLOK:  cpu time      2.1071: real time      2.1231
    SETDIJ:  cpu time      1.5793: real time      1.5800
    EDDIAG:  cpu time     35.8565: real time     35.8780
     EDDAV:  cpu time    178.2604: real time    178.3709
       DOS:  cpu time      0.0047: real time      0.0047
    CHARGE:  cpu time     20.7586: real time     20.7749
    MIXING:  cpu time      0.0419: real time      0.0419
    --------------------------------------------
      LOOP:  cpu time    238.6086: real time    238.7736

 eigenvalue-minimisations  :  2056
 total energy-change (2. order) : 0.1792387E-02  (-0.2498468E-02)
 number of electron     343.9999999 magnetization 
 augmentation part      -19.1093707 magnetization 

 Broyden mixing:
  rms(total) = 0.24155E-01    rms(broyden)= 0.10268E+00
  rms(prec ) = 0.26680E-01
  weight for this iteration     100.00
  WARNING: grid for Broyden might be to small

 eigenvalues of (default mixing * dielectric matrix)
  average eigenvalue GAMMA=   0.9259
  2.5585  0.7891  0.7891  0.2867  0.6333  0.4986

 Free energy of the ion-electron system (eV)
  ---------------------------------------------------
  alpha Z        PSCENC =        42.50217730
  Ewald energy   TEWEN  =     50644.14203246
  -Hartree energ DENC   =    -58307.48275347
  -exchange      EXHF   =         0.00000000
  -V(xc)+E(xc)   XCENC  =      -392.72587718
  PAW double counting   =     48843.61690682   -48006.20569548
  entropy T*S    EENTRO =        -0.23080281
  eigenvalues    EBANDS =     -2377.75378137
  atomic energy  EATOM  =      8757.52110192
  Solvation  Ediel_sol  =         0.00000000
  ---------------------------------------------------
  free energy    TOTEN  =      -796.61669183 eV

  energy without entropy =     -796.38588901  energy(sigma->0) =     -796.50129042


--------------------------------------------------------------------------------------------------------




--------------------------------------- Iteration      1(   8)  ---------------------------------------


    POTLOK:  cpu time      2.1095: real time      2.1219
    SETDIJ:  cpu time      1.5824: real time      1.5833
    EDDIAG:  cpu time     35.8989: real time     35.9206
     EDDAV:  cpu time    177.7132: real time    177.8225
       DOS:  cpu time      0.0026: real time      0.0026
    CHARGE:  cpu time     20.7666: real time     20.7865
    MIXING:  cpu time      0.0432: real time      0.0432
    --------------------------------------------
      LOOP:  cpu time    238.1163: real time    238.2805

 eigenvalue-minimisations  :  2048
 total energy-change (2. order) :-0.1143524E-04  (-0.6900736E-03)
 number of electron     343.9999999 magnetization 
 augmentation part      -19.1073948 magnetization 

 Broyden mixing:
  rms(total) = 0.15751E-01    rms(broyden)= 0.60259E-01
  rms(prec ) = 0.17530E-01
  weight for this iteration     100.00
  WARNING: grid for Broyden might be to small

 eigenvalues of (default mixing * dielectric matrix)
  average eigenvalue GAMMA=   0.8858
  2.5721  0.9671  0.2840  0.6044  0.6044  0.6339  0.5348

 Free energy of the ion-electron system (eV)
  ---------------------------------------------------
  alpha Z        PSCENC =        42.50217730
  Ewald energy   TEWEN  =     50644.14203246
  -Hartree energ DENC   =    -58306.75500840
  -exchange      EXHF   =         0.00000000
  -V(xc)+E(xc)   XCENC  =      -392.60250674
  PAW double counting   =     48821.73762818   -47984.31690411
  entropy T*S    EENTRO =        -0.22881084
  eigenvalues    EBANDS =     -2378.61641302
  atomic energy  EATOM  =      8757.52110192
  Solvation  Ediel_sol  =         0.00000000
  ---------------------------------------------------
  free energy    TOTEN  =      -796.61670326 eV

  energy without entropy =     -796.38789242  energy(sigma->0) =     -796.50229784


--------------------------------------------------------------------------------------------------------




--------------------------------------- Iteration      1(   9)  ---------------------------------------


    POTLOK:  cpu time      2.1015: real time      2.1229
    SETDIJ:  cpu time      1.5785: real time      1.5793
    EDDIAG:  cpu time     35.8596: real time     35.8804
     EDDAV:  cpu time    168.5132: real time    168.6195
       DOS:  cpu time      0.0019: real time      0.0019
    CHARGE:  cpu time     20.7917: real time     20.8111
    MIXING:  cpu time      0.0444: real time      0.0444
    --------------------------------------------
      LOOP:  cpu time    228.8908: real time    229.0596

 eigenvalue-minimisations  :  1872
 total energy-change (2. order) :-0.6196637E-03  (-0.3461090E-03)
 number of electron     343.9999999 magnetization 
 augmentation part      -19.1071016 magnetization 

 Broyden mixing:
  rms(total) = 0.80617E-02    rms(broyden)= 0.67248E-01
  rms(prec ) = 0.90042E-02
  weight for this iteration     100.00
  WARNING: grid for Broyden might be to small

 eigenvalues of (default mixing * dielectric matrix)
  average eigenvalue GAMMA=   0.9042
  2.5754  1.3078  0.2842  0.7425  0.6503  0.6503  0.6076  0.4154

 Free energy of the ion-electron system (eV)
  ---------------------------------------------------
  alpha Z        PSCENC =        42.50217730
  Ewald energy   TEWEN  =     50644.14203246
  -Hartree energ DENC   =    -58306.25415274
  -exchange      EXHF   =         0.00000000
  -V(xc)+E(xc)   XCENC  =      -392.48209427
  PAW double counting   =     48832.03524715   -47994.60442105
  entropy T*S    EENTRO =        -0.22989690
  eigenvalues    EBANDS =     -2379.24731679
  atomic energy  EATOM  =      8757.52110192
  Solvation  Ediel_sol  =         0.00000000
  ---------------------------------------------------
  free energy    TOTEN  =      -796.61732292 eV

  energy without entropy =     -796.38742602  energy(sigma->0) =     -796.50237447


--------------------------------------------------------------------------------------------------------




--------------------------------------- Iteration      1(  10)  ---------------------------------------


    POTLOK:  cpu time      2.1026: real time      2.1193
    SETDIJ:  cpu time      1.5801: real time      1.5811
    EDDIAG:  cpu time     35.9014: real time     35.9210
     EDDAV:  cpu time    170.3329: real time    170.4340
       DOS:  cpu time      0.0021: real time      0.0021
    CHARGE:  cpu time     20.7740: real time     20.7920
    MIXING:  cpu time      0.0443: real time      0.0443
    --------------------------------------------
      LOOP:  cpu time    230.7373: real time    230.8936

 eigenvalue-minimisations  :  1904
 total energy-change (2. order) :-0.1672377E-03  (-0.1183506E-03)
 number of electron     343.9999999 magnetization 
 augmentation part      -19.1065165 magnetization 

 Broyden mixing:
  rms(total) = 0.32232E-02    rms(broyden)= 0.55213E-01
  rms(prec ) = 0.39754E-02
  weight for this iteration     100.00
  WARNING: grid for Broyden might be to small

 eigenvalues of (default mixing * dielectric matrix)
  average eigenvalue GAMMA=   0.9688
  2.5577  1.8308  0.9004  0.9004  0.2840  0.6015  0.6015  0.6189  0.4242

 Free energy of the ion-electron system (eV)
  ---------------------------------------------------
  alpha Z        PSCENC =        42.50217730
  Ewald energy   TEWEN  =     50644.14203246
  -Hartree energ DENC   =    -58306.11770710
  -exchange      EXHF   =         0.00000000
  -V(xc)+E(xc)   XCENC  =      -392.45519098
  PAW double counting   =     48856.51962048   -48019.08416969
  entropy T*S    EENTRO =        -0.22963480
  eigenvalues    EBANDS =     -2379.41571975
  atomic energy  EATOM  =      8757.52110192
  Solvation  Ediel_sol  =         0.00000000
  ---------------------------------------------------
  free energy    TOTEN  =      -796.61749016 eV

  energy without entropy =     -796.38785536  energy(sigma->0) =     -796.50267276


--------------------------------------------------------------------------------------------------------




--------------------------------------- Iteration      1(  11)  ---------------------------------------


    POTLOK:  cpu time      2.0979: real time      2.1152
    SETDIJ:  cpu time      1.5725: real time      1.5733
    EDDIAG:  cpu time     35.8967: real time     35.9175
     EDDAV:  cpu time    170.7629: real time    170.8656
       DOS:  cpu time      0.0026: real time      0.0026
    CHARGE:  cpu time     20.7880: real time     20.8059
    MIXING:  cpu time      0.0453: real time      0.0453
    --------------------------------------------
      LOOP:  cpu time    231.1659: real time    231.3254

 eigenvalue-minimisations  :  1912
 total energy-change (2. order) :-0.1625813E-04  (-0.3570922E-04)
 number of electron     343.9999999 magnetization 
 augmentation part      -19.1066748 magnetization 

 Broyden mixing:
  rms(total) = 0.17605E-02    rms(broyden)= 0.17832E-01
  rms(prec ) = 0.21882E-02
  weight for this iteration     100.00
  WARNING: grid for Broyden might be to small

 eigenvalues of (default mixing * dielectric matrix)
  average eigenvalue GAMMA=   0.9950
  2.4993  2.4993  0.9827  0.7686  0.7686  0.2840  0.6459  0.5871  0.4573  0.4573

 Free energy of the ion-electron system (eV)
  ---------------------------------------------------
  alpha Z        PSCENC =        42.50217730
  Ewald energy   TEWEN  =     50644.14203246
  -Hartree energ DENC   =    -58305.89073609
  -exchange      EXHF   =         0.00000000
  -V(xc)+E(xc)   XCENC  =      -392.46125549
  PAW double counting   =     48852.49558886   -48015.05807958
  entropy T*S    EENTRO =        -0.22952979
  eigenvalues    EBANDS =     -2379.63880600
  atomic energy  EATOM  =      8757.52110192
  Solvation  Ediel_sol  =         0.00000000
  ---------------------------------------------------
  free energy    TOTEN  =      -796.61750642 eV

  energy without entropy =     -796.38797663  energy(sigma->0) =     -796.50274153


--------------------------------------------------------------------------------------------------------




--------------------------------------- Iteration      1(  12)  ---------------------------------------


    POTLOK:  cpu time      2.1060: real time      2.1242
    SETDIJ:  cpu time      1.5776: real time      1.5788
    EDDIAG:  cpu time     35.9183: real time     35.9402
     EDDAV:  cpu time    170.0746: real time    170.1816
       DOS:  cpu time      0.0030: real time      0.0030
    CHARGE:  cpu time     20.7910: real time     20.8101
    MIXING:  cpu time      0.0456: real time      0.0456
    --------------------------------------------
      LOOP:  cpu time    230.5162: real time    230.6835

 eigenvalue-minimisations  :  1904
 total energy-change (2. order) :-0.4950126E-04  (-0.2966861E-04)
 number of electron     343.9999999 magnetization 
 augmentation part      -19.1066812 magnetization 

 Broyden mixing:
  rms(total) = 0.97505E-03    rms(broyden)= 0.11368E-01
  rms(prec ) = 0.12351E-02
  weight for this iteration     100.00
  WARNING: grid for Broyden might be to small

 eigenvalues of (default mixing * dielectric matrix)
  average eigenvalue GAMMA=   1.0199
  2.6526  2.6526  1.0868  0.8646  0.8646  0.2840  0.6893  0.6053  0.4404  0.5614
  0.5170

 Free energy of the ion-electron system (eV)
  ---------------------------------------------------
  alpha Z        PSCENC =        42.50217730
  Ewald energy   TEWEN  =     50644.14203246
  -Hartree energ DENC   =    -58305.60867205
  -exchange      EXHF   =         0.00000000
  -V(xc)+E(xc)   XCENC  =      -392.46563241
  PAW double counting   =     48850.10509038   -48012.66631873
  entropy T*S    EENTRO =        -0.22953351
  eigenvalues    EBANDS =     -2379.91780129
  atomic energy  EATOM  =      8757.52110192
  Solvation  Ediel_sol  =         0.00000000
  ---------------------------------------------------
  free energy    TOTEN  =      -796.61755592 eV

  energy without entropy =     -796.38802241  energy(sigma->0) =     -796.50278917


--------------------------------------------------------------------------------------------------------




--------------------------------------- Iteration      1(  13)  ---------------------------------------


    POTLOK:  cpu time      2.1033: real time      2.1239
    SETDIJ:  cpu time      1.5736: real time      1.5744
    EDDIAG:  cpu time     35.9636: real time     35.9842
     EDDAV:  cpu time    167.7841: real time    167.8891
       DOS:  cpu time      0.0024: real time      0.0024
    CHARGE:  cpu time     20.7843: real time     20.8032
    MIXING:  cpu time      0.0467: real time      0.0467
    --------------------------------------------
      LOOP:  cpu time    228.2581: real time    228.4239

 eigenvalue-minimisations  :  1856
 total energy-change (2. order) :-0.1177980E-03  (-0.1944930E-04)
 number of electron     343.9999999 magnetization 
 augmentation part      -19.1068235 magnetization 

 Broyden mixing:
  rms(total) = 0.50909E-03    rms(broyden)= 0.68284E-02
  rms(prec ) = 0.73590E-03
  weight for this iteration     100.00
  WARNING: grid for Broyden might be to small

 eigenvalues of (default mixing * dielectric matrix)
  average eigenvalue GAMMA=   1.0334
  2.7276  2.7276  1.2799  0.9212  0.9212  0.2840  0.7097  0.6823  0.6026  0.6026
  0.4418  0.5009

 Free energy of the ion-electron system (eV)
  ---------------------------------------------------
  alpha Z        PSCENC =        42.50217730
  Ewald energy   TEWEN  =     50644.14203246
  -Hartree energ DENC   =    -58305.31376743
  -exchange      EXHF   =         0.00000000
  -V(xc)+E(xc)   XCENC  =      -392.47442638
  PAW double counting   =     48847.19139424   -48009.75203205
  entropy T*S    EENTRO =        -0.22954022
  eigenvalues    EBANDS =     -2380.20461356
  atomic energy  EATOM  =      8757.52110192
  Solvation  Ediel_sol  =         0.00000000
  ---------------------------------------------------
  free energy    TOTEN  =      -796.61767372 eV

  energy without entropy =     -796.38813350  energy(sigma->0) =     -796.50290361


--------------------------------------------------------------------------------------------------------




--------------------------------------- Iteration      1(  14)  ---------------------------------------


    POTLOK:  cpu time      2.1190: real time      2.1203
    SETDIJ:  cpu time      1.5708: real time      1.5722
    EDDIAG:  cpu time     35.8845: real time     35.9040
     EDDAV:  cpu time    167.8699: real time    167.9722
       DOS:  cpu time      0.0033: real time      0.0033
    CHARGE:  cpu time     20.7956: real time     20.8152
    MIXING:  cpu time      0.0471: real time      0.0471
    --------------------------------------------
      LOOP:  cpu time    228.2903: real time    228.4343

 eigenvalue-minimisations  :  1856
 total energy-change (2. order) :-0.1126258E-03  (-0.1344108E-04)
 number of electron     343.9999999 magnetization 
 augmentation part      -19.1068956 magnetization 

 Broyden mixing:
  rms(total) = 0.31403E-03    rms(broyden)= 0.20575E-02
  rms(prec ) = 0.50342E-03
  weight for this iteration     100.00
  WARNING: grid for Broyden might be to small

 eigenvalues of (default mixing * dielectric matrix)
  average eigenvalue GAMMA=   1.0573
  2.7960  2.7960  1.6916  1.0436  0.8665  0.8665  0.2840  0.6605  0.5985  0.5985
  0.6057  0.4446  0.4930

 Free energy of the ion-electron system (eV)
  ---------------------------------------------------
  alpha Z        PSCENC =        42.50217730
  Ewald energy   TEWEN  =     50644.14203246
  -Hartree energ DENC   =    -58305.10141961
  -exchange      EXHF   =         0.00000000
  -V(xc)+E(xc)   XCENC  =      -392.48031131
  PAW double counting   =     48846.35562489   -48008.91625066
  entropy T*S    EENTRO =        -0.22954578
  eigenvalues    EBANDS =     -2380.41119554
  atomic energy  EATOM  =      8757.52110192
  Solvation  Ediel_sol  =         0.00000000
  ---------------------------------------------------
  free energy    TOTEN  =      -796.61778635 eV

  energy without entropy =     -796.38824057  energy(sigma->0) =     -796.50301346


--------------------------------------------------------------------------------------------------------




--------------------------------------- Iteration      1(  15)  ---------------------------------------


    POTLOK:  cpu time      2.1021: real time      2.1209
    SETDIJ:  cpu time      1.5760: real time      1.5768
    EDDIAG:  cpu time     35.8802: real time     35.9003
     EDDAV:  cpu time    167.7097: real time    167.8113
       DOS:  cpu time      0.0039: real time      0.0039
    CHARGE:  cpu time     20.7892: real time     20.8085
    MIXING:  cpu time      0.0482: real time      0.0482
    --------------------------------------------
      LOOP:  cpu time    228.1093: real time    228.2700

 eigenvalue-minimisations  :  1856
 total energy-change (2. order) :-0.1251574E-03  (-0.1547021E-04)
 number of electron     343.9999999 magnetization 
 augmentation part      -19.1069433 magnetization 

 Broyden mixing:
  rms(total) = 0.23938E-03    rms(broyden)= 0.30766E-02
  rms(prec ) = 0.36679E-03
  weight for this iteration     100.00
  WARNING: grid for Broyden might be to small

 eigenvalues of (default mixing * dielectric matrix)
  average eigenvalue GAMMA=   1.0919
  2.8726  2.8726  2.0691  1.1900  0.8722  0.8722  0.8805  0.2840  0.6418  0.6418
  0.5751  0.5751  0.4445  0.4946

 Free energy of the ion-electron system (eV)
  ---------------------------------------------------
  alpha Z        PSCENC =        42.50217730
  Ewald energy   TEWEN  =     50644.14203246
  -Hartree energ DENC   =    -58304.87025658
  -exchange      EXHF   =         0.00000000
  -V(xc)+E(xc)   XCENC  =      -392.48361215
  PAW double counting   =     48846.40203480   -48008.96282365
  entropy T*S    EENTRO =        -0.22953176
  eigenvalues    EBANDS =     -2380.63903384
  atomic energy  EATOM  =      8757.52110192
  Solvation  Ediel_sol  =         0.00000000
  ---------------------------------------------------
  free energy    TOTEN  =      -796.61791150 eV

  energy without entropy =     -796.38837974  energy(sigma->0) =     -796.50314562


--------------------------------------------------------------------------------------------------------




--------------------------------------- Iteration      1(  16)  ---------------------------------------


    POTLOK:  cpu time      2.1196: real time      2.1210
    SETDIJ:  cpu time      1.5737: real time      1.5748
    EDDIAG:  cpu time     35.8520: real time     35.8734
     EDDAV:  cpu time    167.5840: real time    167.6896
       DOS:  cpu time      0.0111: real time      0.0112
    CHARGE:  cpu time     20.7929: real time     20.8115
    MIXING:  cpu time      0.0630: real time      0.0636
    --------------------------------------------
      LOOP:  cpu time    227.9964: real time    228.1451

[...]
   0.201E+02 0.235E+02 0.173E+03   -.203E+02 -.233E+02 -.174E+03   -.502E-01 0.279E-01 0.833E+00   0.102E-04 -.336E-04 -.750E-05
   0.222E+02 -.182E+02 -.674E+02   -.235E+02 0.169E+02 0.675E+02   0.176E+01 0.180E+01 -.609E+00   -.415E-05 -.199E-04 0.120E-04
   0.297E+02 -.179E+02 -.290E+03   -.289E+02 0.174E+02 0.287E+03   -.638E+00 0.229E+00 0.258E+01   -.397E-05 -.189E-04 0.362E-04
   -.212E+02 -.273E+02 -.162E+03   0.205E+02 0.268E+02 0.162E+03   0.748E+00 0.571E+00 -.258E+00   -.454E-04 0.104E-04 0.462E-04
   0.406E+02 0.912E+01 -.241E+03   -.372E+02 -.609E+01 0.240E+03   -.288E+01 -.335E+01 0.199E+01   0.166E-04 -.190E-04 0.435E-04
   0.395E+02 -.134E+02 0.279E+03   -.375E+02 0.136E+02 -.277E+03   -.179E+01 -.718E+00 -.213E+01   -.175E-04 -.184E-04 -.360E-04
   -.425E+02 0.526E+01 0.345E+03   0.425E+02 -.410E+01 -.345E+03   0.308E+00 -.185E+01 -.870E+00   -.125E-04 0.207E-04 -.200E-04
   0.188E+01 -.269E+02 0.159E+01   -.227E+01 0.270E+02 -.265E+01   0.132E+01 0.407E+00 0.185E+01   0.160E-04 0.101E-04 0.343E-04
   -.166E+02 0.152E+02 0.244E+02   0.167E+02 -.145E+02 -.240E+02   0.273E+00 -.140E+01 0.212E+00   -.172E-04 0.417E-04 0.160E-04
   -.124E+02 -.146E+02 -.364E+03   0.125E+02 0.122E+02 0.363E+03   -.140E+01 0.284E+01 -.171E+00   -.635E-04 0.395E-04 0.399E-04
   -.327E+02 -.285E+01 0.239E+03   0.321E+02 0.253E+01 -.238E+03   0.578E+00 0.322E+00 -.123E+01   -.417E-04 0.123E-04 -.186E-04
   -.801E+01 0.120E+02 -.206E+03   0.924E+01 -.119E+02 0.204E+03   -.514E+00 0.685E+00 0.191E+01   0.257E-04 -.973E-05 0.586E-04
   -.157E+02 -.136E+02 -.201E+03   0.164E+02 0.133E+02 0.199E+03   -.303E+00 0.365E+00 0.243E+01   -.647E-04 0.284E-04 0.623E-04
   -.947E+01 -.663E+01 0.222E+03   0.854E+01 0.820E+01 -.223E+03   0.494E+00 -.141E+01 0.179E+01   -.110E-04 -.128E-04 -.304E-04
   0.309E+02 -.229E+02 0.126E+03   -.314E+02 0.215E+02 -.127E+03   0.117E+00 0.965E+00 0.668E+00   0.149E-04 -.291E-06 -.765E-05
   -.387E+01 -.226E+02 0.229E+02   0.388E+01 0.208E+02 -.241E+02   -.184E+00 0.220E+01 0.164E+01   -.102E-05 0.149E-05 0.934E-05
   0.387E+01 -.156E+02 0.485E+02   -.540E+01 0.148E+02 -.496E+02   0.184E+01 0.125E+01 0.902E+00   -.115E-04 0.245E-05 0.355E-05
   -.200E+02 0.196E+02 0.705E+02   0.207E+02 -.199E+02 -.695E+02   -.809E+00 -.187E+01 -.186E+01   -.133E-04 0.108E-04 -.116E-04
   -.672E+01 -.658E+00 -.133E+03   0.728E+01 -.113E+01 0.134E+03   -.577E+00 0.319E+01 0.143E+00   -.650E-05 0.604E-05 0.342E-04
   -.152E+02 0.134E+02 -.286E+03   0.126E+02 -.146E+02 0.286E+03   0.443E+01 0.853E+00 0.249E+00   -.280E-04 0.366E-04 0.495E-04
   0.472E+02 -.642E+01 0.207E+02   -.436E+02 0.657E+01 -.222E+02   -.447E+01 -.168E+00 0.175E+01   -.190E-04 -.973E-05 -.934E-06
   0.130E+02 -.156E+01 -.866E+02   -.117E+02 0.199E+01 0.837E+02   -.168E+01 -.571E+00 0.427E+01   -.192E-04 0.101E-04 0.477E-04
   -.191E+01 0.100E+01 -.177E+02   0.317E+01 0.411E+00 0.193E+02   -.105E+01 -.246E+01 -.182E+01   -.499E-05 -.387E-05 0.103E-04
   -.180E+02 0.570E+02 0.261E+03   0.158E+02 -.554E+02 -.260E+03   0.226E+01 -.176E+01 -.114E+01   0.646E-05 -.128E-05 -.312E-04
   0.413E+02 -.326E+02 0.104E+03   -.389E+02 0.313E+02 -.104E+03   -.357E+01 0.693E+00 -.881E+00   0.269E-05 0.110E-04 -.265E-06
   -.203E+02 -.118E+02 0.561E+02   0.215E+02 0.111E+02 -.551E+02   -.304E+01 0.187E+01 -.890E+00   -.645E-05 0.390E-05 -.968E-05
   -.190E+02 -.823E+01 0.274E+03   0.183E+02 0.705E+01 -.272E+03   0.167E+01 0.203E+01 -.183E+01   -.195E-04 0.196E-05 -.186E-04
   -.247E+02 0.394E+01 0.126E+02   0.231E+02 -.494E+01 -.140E+02   0.263E+01 0.569E+00 0.138E+01   0.134E-06 -.132E-04 0.195E-04
   0.201E+01 0.278E+01 -.217E+03   -.409E+01 -.320E+01 0.217E+03   0.766E+00 -.117E+01 0.845E+00   0.451E-04 0.326E-05 0.427E-04
   -.616E+01 -.138E+02 -.160E+03   0.600E+01 0.156E+02 0.162E+03   0.600E+00 -.247E+01 -.108E+01   0.399E-05 -.270E-05 0.650E-04
   0.794E+01 0.155E+02 0.104E+03   -.103E+02 -.153E+02 -.105E+03   0.143E+01 -.190E+00 0.170E+01   0.334E-05 -.486E-05 0.186E-04
   0.585E+01 -.466E+02 -.332E+03   -.639E+01 0.467E+02 0.333E+03   -.163E+00 0.910E+00 -.136E+00   0.158E-04 0.409E-04 0.481E-04
   -.163E+02 -.633E+00 -.175E+03   0.150E+02 0.143E+01 0.175E+03   0.171E+01 -.675E+00 -.182E+00   -.109E-04 -.946E-06 0.249E-04
   -.229E+02 0.612E+01 0.341E+03   0.193E+02 -.587E+01 -.338E+03   0.394E+01 0.377E-01 -.272E+01   0.694E-05 -.365E-05 -.421E-04
   0.174E+02 0.152E+02 -.328E+03   -.162E+02 -.143E+02 0.328E+03   -.189E+01 -.861E+00 -.309E+00   0.679E-05 -.176E-06 0.328E-04
   0.723E+01 0.175E+02 0.343E+03   -.630E+01 -.171E+02 -.339E+03   -.355E+00 0.837E-01 -.409E+01   -.142E-04 -.968E-05 -.258E-04
   -.274E+02 0.190E+02 0.863E+02   0.267E+02 -.170E+02 -.888E+02   -.185E+00 -.249E+01 0.313E+01   -.714E-05 0.400E-05 -.123E-04
   -.266E+02 0.682E+01 -.154E+03   0.266E+02 -.673E+01 0.151E+03   -.941E+00 -.481E+00 0.405E+01   -.951E-05 -.200E-04 0.466E-04
   -.393E+01 -.125E+02 0.340E+03   0.266E+01 0.135E+02 -.341E+03   0.214E+01 -.718E+00 -.632E+00   -.612E-05 0.939E-05 -.133E-04
   0.778E+01 0.247E+02 0.102E+03   -.685E+01 -.228E+02 -.103E+03   -.142E+01 -.189E+01 0.952E+00   -.138E-05 -.158E-04 -.458E-05
   -.210E+02 0.503E+02 0.310E+03   0.208E+02 -.497E+02 -.308E+03   0.312E+00 -.147E+01 -.143E+01   0.830E-05 0.353E-04 -.982E-05
   0.220E+02 -.182E+02 0.176E+03   -.224E+02 0.172E+02 -.174E+03   -.115E+00 0.148E+01 -.196E+01   0.324E-04 0.763E-05 -.535E-05
   0.227E+02 -.176E+02 0.336E+03   -.223E+02 0.195E+02 -.336E+03   -.850E+00 -.161E+01 -.667E+00   0.333E-04 0.772E-05 -.317E-04
 -----------------------------------------------------------------------------------------------
   -.465E+01 0.183E+01 -.175E+02   -.888E-13 0.135E-12 -.512E-12   0.464E+01 -.184E+01 0.175E+02   0.117E-04 0.695E-04 0.114E-02


 POSITION                                       TOTAL-FORCE (eV/Angst)
 -----------------------------------------------------------------------------------
      8.72334      4.05325     11.19878        -0.350896      0.368226      0.104047
      0.32615      9.53903     12.80584        -0.264633     -0.144474      0.088391
      0.67847      1.53486     17.80483         0.017427      0.267007     -0.280579
     12.24600      3.86952     14.74723        -0.132450      0.044880     -0.093813
      1.47574      7.89450     13.50325         0.221883     -0.084533     -1.009191
      1.45596      5.81859     14.51576         0.094517      0.057928      0.769775
      6.64109      2.72488     13.13179         1.177440     -0.206335     -0.322069
      8.35713     12.43320     16.58916         0.783338      0.329455     -0.623069
      9.86058      1.89940     14.35881        -0.408413      0.767330      0.660821
      9.67155      9.24335     15.47890        -0.576584      1.665160      0.752622
      8.78856     12.83450     10.10195         0.112673     -0.566263     -0.888562
     11.32370     10.12070     10.25049        -1.372709     -0.468591     -0.772765
     12.57130      2.57716     11.66656         0.536487      0.509504      0.285433
      0.16792      3.93681     10.00600         0.242821      0.193081      0.597227
     14.26660     12.22060     10.76070         0.175352      0.047381     -0.654137
     14.28780      7.92117     10.72701         0.827314     -0.155178      0.020651
     10.49310      7.23079     15.12629         0.057007     -0.994285     -0.802822
      8.50726      6.38373     12.03561         0.323888      0.409209      0.325705
      8.95836     12.21440     13.62169         0.130914     -0.795519      0.717731
     13.08810     10.69660     16.27783        -0.262382     -0.013085     -0.416465
      3.06504     10.63130     10.00000         0.285034     -0.290520     -0.417182
     10.80960     10.94680     16.59674         0.226634     -0.042629     -0.658005
      3.83765      5.98986     16.58397         0.206549     -1.377066      0.116975
      1.96696     11.76930     11.62096        -0.550364      0.330153      0.415020
     12.10390      0.95801     17.17301         0.168883      0.130156      0.293275
     12.70760     12.05150     12.47737        -0.708128     -0.414596     -0.275589
     12.22810      6.68229     16.45559        -0.476920      0.215291      0.267596
      9.44958     10.00060     13.29682         1.572885      0.740310      0.043479
      1.18802      8.38132     16.06483         0.211110      1.305919     -0.536256
      0.10976      4.41569     16.69519         0.398912      0.179428     -0.021818
     11.59900     14.02360     12.61931         0.725043     -0.418104      0.222499
      7.21931      9.17139     10.37801        -0.684273      0.813316      0.593059
      8.79377      2.59856     10.91438         0.681401     -0.619095      0.411955
      4.37323      3.74393     17.37756         0.222300      0.468493     -0.200750
      1.50892      1.93027     12.43083         0.219599     -0.239060     -1.918291
     10.62070      6.61366     10.69634        -0.688356      0.291341     -0.345172
      2.69555      5.40235     12.28386        -0.026465      0.689528     -0.021989
      0.17482     13.91440     14.93596         0.013790      0.464361     -0.084065
      8.97010      3.87988     15.36135         0.586269     -1.658892      0.358830
      1.78263      7.58795     11.93804        -0.314795     -0.118611      0.707849
      5.08759     13.38770     16.77640        -0.848349     -0.776470      0.010601
      3.43198     11.86000     15.99061        -0.382259      1.495145     -0.477580
      7.11502      7.05438     15.76661        -0.043793     -0.232457     -0.943482
     14.20750     12.07040     17.80580        -0.655056     -0.218283      0.657881
      1.61692      6.22407     16.06375        -0.006514     -1.556341     -0.259987
      8.69085      5.84230     14.33757         0.128483      1.170057      0.466666
      9.93487      0.43017     16.21056         0.949590      0.926564      0.042166
     12.27780      8.00806     13.69591        -0.118519     -0.335400     -0.497686
     13.50400      1.30678     15.31726        -0.442899      0.086669     -0.312762
     12.68670      6.66183     11.78904        -0.216306      0.226632      0.668778
      6.23654      9.87120     14.08320         0.648458      0.518241     -0.546965
      7.40004      9.32016     15.97283         0.213564     -0.439444      0.441066
      4.64747      2.47378     15.41044         0.139419      0.010541      0.198519
     12.46340      4.51424     16.07438         0.429938     -0.428208      0.551957
      6.99671     11.57040     11.00191         0.304827     -0.598986     -0.623104
      2.35799      4.76486     10.13283         0.224937     -0.859655     -0.520340
     11.94350      1.48330     13.54347         0.975435      0.514721      0.856668
      1.99230      0.14007     13.68962         0.353139     -0.669947      0.645073
      3.11454     14.34600     17.66826        -1.379015      0.539391     -1.461897
      3.76092      2.20160     11.68124         0.047348     -0.092324     -0.247910
     13.48880      8.44474     15.61175         0.670901      0.778815      0.496386
      2.59612      1.32994     15.63941         0.388293      0.119941      0.491894
      3.72695      8.82225     11.31379        -0.414658      0.022497      0.755134
     13.66410      4.61114     12.09904        -0.350264     -0.421030     -0.744566
      1.08302      4.02440     13.21985        -0.180024      0.486500      0.470871
      6.25671     14.37390     13.26643         0.452721      0.483197     -0.123182
      4.95577      5.54465     12.93585        -0.191807     -2.270674     -1.017728
      5.01593      6.75428     14.78264        -0.048795      1.587465      0.685460
      1.33066     13.02770     16.69741         2.106361     -0.334743      0.639159
      6.73946     12.05280     13.24401        -1.002376     -0.041519      0.275258
     13.87210     11.90620     14.35591        -0.392389     -0.174158      1.608137
      4.26674      8.87215     13.71294         0.189353     -1.142000     -0.295491
      6.34032      5.94148     11.13191         0.174396     -0.046077      0.334260
      8.45178      1.11248     12.73773        -1.322255     -0.589883     -0.580553
      5.27848      3.12852     13.25855        -1.959218      1.289781      0.046897
      4.65997     14.50560     11.45781         1.057664      0.995498      0.473304
      0.96998     10.71030     13.43586         1.110667     -0.431110     -0.014231
      9.66886     12.80310     15.76085        -1.341165     -1.673176      0.963587
      0.77019      2.83775     15.22889         0.444609     -0.734721      0.934468
     11.69530      9.93887     12.48339        -0.867975     -0.016266      0.414097
      8.19623      3.15926     17.36635        -0.684614      0.880335     -0.007055
      6.08436      0.58484     15.60551         0.352275      0.045303     -0.182425
     13.57150     10.01460     10.18674         0.478296      0.249240      0.478484
      7.93449      0.88029     17.20513        -0.711451      0.134137     -0.401773
      5.37781      7.71987     10.14431         0.686575      0.499448     -0.024025
      3.48468     13.12890     12.78414        -0.997612     -0.492122      0.786262
      2.65549      9.95341     14.88694        -0.954194     -0.408721      0.578074
     11.96940     13.96700     10.40203         1.003401      0.238119     -1.107928
      7.79047      8.62521     12.61633        -0.512188     -0.092922     -0.853208
     14.46860      1.68484     10.61649         0.097584     -0.602804      0.197830
      9.48882     13.69990     12.07786        -0.505175      0.584236     -0.672925
     10.96240      2.68816     10.08992        -0.501470      0.116346     -0.662489
 -----------------------------------------------------------------------------------
    total drift:                               -0.013643     -0.015333      0.005560


--------------------------------------------------------------------------------------------------------



  FREE ENERGIE OF THE ION-ELECTRON SYSTEM (eV)
  ---------------------------------------------------
  free  energy   TOTEN  =      -796.61820479 eV

  energy  without entropy=     -796.38867454  energy(sigma->0) =     -796.50343967



--------------------------------------------------------------------------------------------------------


    POTLOK:  cpu time      3.6577: real time      3.6965


--------------------------------------------------------------------------------------------------------


     LOOP+:  cpu time   5388.0442: real time   5391.8828
    4ORBIT:  cpu time      0.0000: real time      0.0000



 total charge

# of ion       s       p       d       tot
------------------------------------------
    1        0.560   0.018   0.000   0.578
    2        0.572   0.019   0.000   0.591
    3        0.389   0.001   0.000   0.390
    4        0.554   0.017   0.000   0.572
    5        0.515   0.013   0.000   0.528
    6        0.515   0.015   0.000   0.531
    7        0.595   0.020   0.000   0.616
    8        0.526   0.012   0.000   0.538
    9        0.764   0.940   0.000   1.704
   10        0.762   0.985   0.000   1.747
   11        0.860   0.748   0.000   1.608
   12        0.853   0.770   0.000   1.623
   13        0.764   0.959   0.000   1.723
   14        0.809   0.825   0.000   1.633
   15        0.801   0.821   0.000   1.622
   16        0.777   0.885   0.000   1.662
   17        0.767   0.969   0.000   1.736
   18        0.774   0.847   0.000   1.620
   19        0.776   0.997   0.000   1.773
   20        0.756   0.933   0.000   1.690
   21        0.876   0.747   0.000   1.624
   22        0.800   0.867   0.000   1.666
   23        0.791   0.878   0.000   1.669
   24        0.762   0.945   0.000   1.707
   25        0.868   0.700   0.000   1.568
   26        0.762   0.980   0.000   1.741
   27        0.794   0.912   0.000   1.706
   28        0.773   0.963   0.000   1.736
   29        0.791   0.896   0.000   1.686
   30        0.798   0.859   0.000   1.658
   31        0.769   1.051   0.000   1.820
   32        0.814   0.793   0.000   1.607
   33        0.788   0.877   0.000   1.665
   34        0.873   0.697   0.000   1.570
   35        0.774   0.933   0.000   1.707
   36        0.856   0.709   0.000   1.565
   37        0.764   0.941   0.000   1.705
   38        0.766   0.975   0.000   1.741
   39        0.784   0.894   0.000   1.678
   40        0.756   0.895   0.000   1.650
   41        0.812   0.820   0.000   1.632
   42        0.795   0.794   0.000   1.589
   43        0.800   0.847   0.000   1.646
   44        0.861   0.773   0.000   1.634
   45        0.753   0.951   0.000   1.704
   46        0.756   0.920   0.000   1.676
   47        0.763   0.964   0.000   1.727
   48        0.774   0.901   0.000   1.675
   49        0.755   0.941   0.000   1.695
   50        0.754   0.953   0.000   1.706
   51        0.771   0.910   0.000   1.681
   52        0.802   0.883   0.000   1.686
   53        0.760   0.930   0.000   1.690
   54        0.762   0.935   0.000   1.698
   55        0.801   0.818   0.000   1.620
   56        0.848   0.768   0.000   1.616
   57        0.767   0.989   0.000   1.756
   58        0.771   0.946   0.000   1.717
   59        0.833   0.750   0.000   1.583
   60        0.792   0.830   0.000   1.623
   61        0.760   0.938   0.000   1.697
   62        0.774   0.863   0.000   1.637
   63        0.759   0.909   0.000   1.667
   64        0.770   0.917   0.000   1.687
   65        0.766   0.926   0.000   1.692
   66        0.774   0.833   0.000   1.607
   67        0.759   0.949   0.000   1.709
   68        0.761   0.960   0.000   1.722
   69        0.768   0.930   0.000   1.698
   70        0.759   0.959   0.000   1.718
   71        0.771   1.000   0.000   1.771
   72        0.759   0.945   0.000   1.705
   73        0.792   0.877   0.000   1.669
   74        0.771   0.904   0.000   1.675
   75        0.753   0.961   0.000   1.714
   76        0.815   0.826   0.000   1.641
   77        0.764   0.996   0.000   1.759
   78        0.752   0.972   0.000   1.724
   79        0.765   0.929   0.000   1.694
   80        0.760   0.939   0.000   1.699
   81        0.840   0.781   0.000   1.622
   82        0.776   0.860   0.000   1.636
   83        0.793   0.878   0.000   1.671
   84        0.811   0.851   0.000   1.663
   85        0.788   0.889   0.000   1.676
   86        0.792   0.869   0.000   1.661
   87        0.761   0.914   0.000   1.675
   88        0.895   0.649   0.000   1.544
   89        0.781   0.881   0.000   1.662
   90        0.812   0.824   0.000   1.636
   91        0.767   1.043   0.000   1.810
   92        0.831   0.787   0.000   1.618
--------------------------------------------------
tot         70.379  74.689   0.000 145.068


 total amount of memory used by VASP MPI-rank0   353929. kBytes
=======================================================================

   base                                    :      30000. kBytes
   nonl-proj                               :      68820. kBytes
   fftplans                                :     108854. kBytes
   grid                                    :      83991. kBytes
   one-center                              :         18. kBytes
   wavefun                                 :      62246. kBytes

  
  
 General timing and accounting informations for this job:
 ========================================================
  
                  Total CPU time used (sec):     5533.530
                            User time (sec):     4932.660
                          System time (sec):      600.870
                         Elapsed time (sec):     5537.508
  
                   Maximum memory used (kb):      620744.
                   Average memory used (kb):          N/A
  
                          Minor page faults:      9141636
                          Major page faults:         1174
                 Voluntary context switches:         3118
