 vasp.6.5.0 16Dec24 (build Jan 20 2025 08:32:48) complex                         
 executed on        HPECrayEX_GCC date 2025.07.22  05:00:38
 running  128 mpi-ranks, with    1 threads/rank, on    1 nodes
 distrk:  each k-point on  128 cores,    1 groups
 distr:  one band on NCORE=  16 cores,    8 groups


--------------------------------------------------------------------------------------------------------


 INCAR:
   SYSTEM = a-Si SPC
   NCORE = 16
   ISTART = 1
   ICHARG = 1
   ISPIN = 1
   ISYM = 1
   EDIFF = 1E-6
   NELM = 150
   EDIFFG = -0.01
   NSW = 0
   ISIF = 2
   IBRION = -1
   PREC = Accurate
   ENCUT = 1200
   KSPACING = 0.23
   KGAMMA = .TRUE.
   METAGGA = SCAN
   LASPH = .TRUE.
   LDIAG = .FALSE.
   LMIXTAU = .TRUE.
   ADDGRID = .TRUE.
   ALGO = Normal
   ISMEAR = 0
   SIGMA = 0.1
   LORBIT = 11
   NEDOS = 2000
   LWAVE = .FALSE.
   LCHARG = .FALSE.

 POTCAR:    PAW_PBE H 15Jun2001                   
 POTCAR:    PAW_PBE Si 05Jan2001                  
 POTCAR:    PAW_PBE H 15Jun2001                   
   SHA256 =  030f79b5d3ab3cf0e668861823c8fb652ff669f3e15e46930bd03bfd63a607b6 H/POTCAR              
   COPYR  = (c) Copyright 15Jun2001 Georg Kresse                                                    
   COPYR  = This file is part of the software VASP. Any use, copying, and all other rights are regul
   COPYR  = If you do not have a valid VASP license, you may not use, copy or distribute this file. 
   VRHFIN =H: ultrasoft test                                                                        
   LEXCH  = PE                                                                                      
   EATOM  =    12.4884 eV,    0.9179 Ry                                                             
                                                                                                    
   TITEL  = PAW_PBE H 15Jun2001                                                                     
   LULTRA =        F    use ultrasoft PP ?                                                          
   IUNSCR =        0    unscreen: 0-lin 1-nonlin 2-no                                               
   RPACOR =    0.000    partial core radius                                                         
   POMASS =    1.000; ZVAL   =    1.000    mass and valenz                                          
   RCORE  =    1.100    outmost cutoff radius                                                       
   RWIGS  =    0.700; RWIGS  =    0.370    wigner-seitz radius (au A)                               
   ENMAX  =  250.000; ENMIN  =  200.000 eV                                                          
   RCLOC  =    0.701    cutoff for local pot                                                        
   LCOR   =        T    correct aug charges                                                         
   LPAW   =        T    paw PP                                                                      
   EAUG   =  400.000                                                                                
   RMAX   =    1.123    core radius for proj-oper                                                   
   RAUG   =    1.200    factor for augmentation sphere                                              
   RDEP   =    1.112    radius for radial grids                                                     
   RDEPT  =    0.926    core radius for aug-charge                                                  
                                                                                                    
   Atomic configuration                                                                             
    2 entries                                                                                       
     n  l   j            E        occ.                                                              
     1  0  0.50        -6.4927   1.0000                                                             
     2  1  0.50        -3.4015   0.0000                                                             
   Description                                                                                      
     l       E           TYP  RCUT    TYP  RCUT                                                     
     0     -6.4927494     23  1.100                                                                 
     0      6.8029130     23  1.100                                                                 
     1     -4.0817478     23  1.100                                                                 
  local pseudopotential read in
  atomic valenz-charges read in
  non local Contribution for L=           0  read in
    real space projection operators read in
  non local Contribution for L=           0  read in
    real space projection operators read in
  non local Contribution for L=           1  read in
    real space projection operators read in
    PAW grid and wavefunctions read in

   number of l-projection  operators is LMAX  =           3
   number of lm-projection operators is LMMAX =           5

 POTCAR:    PAW_PBE Si 05Jan2001                  
   SHA256 =  79d9987ad8750f624c4d6acb2a16d13abf6a777132adc04dc6c8399be72b42bb Si/POTCAR             
   COPYR  = (c) Copyright 05Jan2001 Georg Kresse                                                    
   COPYR  = This file is part of the software VASP. Any use, copying, and all other rights are regul
   COPYR  = If you do not have a valid VASP license, you may not use, copy or distribute this file. 
   VRHFIN =Si: s2p2                                                                                 
   LEXCH  = PE                                                                                      
   EATOM  =   103.0669 eV,    7.5752 Ry                                                             
                                                                                                    
   TITEL  = PAW_PBE Si 05Jan2001                                                                    
   LULTRA =        F    use ultrasoft PP ?                                                          
   IUNSCR =        1    unscreen: 0-lin 1-nonlin 2-no                                               
   RPACOR =    1.500    partial core radius                                                         
   POMASS =   28.085; ZVAL   =    4.000    mass and valenz                                          
   RCORE  =    1.900    outmost cutoff radius                                                       
   RWIGS  =    2.480; RWIGS  =    1.312    wigner-seitz radius (au A)                               
   ENMAX  =  245.345; ENMIN  =  184.009 eV                                                          
   ICORE  =        2    local potential                                                             
   LCOR   =        T    correct aug charges                                                         
   LPAW   =        T    paw PP                                                                      
   EAUG   =  322.069                                                                                
   DEXC   =    0.000                                                                                
   RMAX   =    1.950    core radius for proj-oper                                                   
   RAUG   =    1.300    factor for augmentation sphere                                              
   RDEP   =    1.993    radius for radial grids                                                     
   RDEPT  =    1.837    core radius for aug-charge                                                  
                                                                                                    
   Atomic configuration                                                                             
    6 entries                                                                                       
     n  l   j            E        occ.                                                              
     1  0  0.50     -1785.8828   2.0000                                                             
     2  0  0.50      -139.4969   2.0000                                                             
     2  1  1.50       -95.5546   6.0000                                                             
     3  0  0.50       -10.8127   2.0000                                                             
     3  1  0.50        -4.0811   2.0000                                                             
     3  2  1.50        -4.0817   0.0000                                                             
   Description                                                                                      
     l       E           TYP  RCUT    TYP  RCUT                                                     
     0    -10.8127223     23  1.900                                                                 
     0     -7.6451159     23  1.900                                                                 
     1     -4.0811372     23  1.900                                                                 
     1      2.4879257     23  1.900                                                                 
     2     -4.0817478      7  1.900                                                                 
  local pseudopotential read in
  partial core-charges read in
  partial kinetic energy density read in
  atomic valenz-charges read in
  non local Contribution for L=           0  read in
    real space projection operators read in
  non local Contribution for L=           0  read in
    real space projection operators read in
  non local Contribution for L=           1  read in
    real space projection operators read in
  non local Contribution for L=           1  read in
    real space projection operators read in
    PAW grid and wavefunctions read in

   number of l-projection  operators is LMAX  =           4
   number of lm-projection operators is LMMAX =           8

 -----------------------------------------------------------------------------
|                                                                             |
|               ----> ADVICE to this user running VASP <----                  |
|                                                                             |
|     You have a (more or less) 'large supercell' and for larger cells it     |
|     might be more efficient to use real-space projection operators.         |
|     Therefore, try LREAL= Auto in the INCAR file.                           |
|     Mind: For very accurate calculation, you might also keep the            |
|     reciprocal projection scheme (i.e. LREAL=.FALSE.).                      |
|                                                                             |
 -----------------------------------------------------------------------------

 -----------------------------------------------------------------------------
|                                                                             |
|               ----> ADVICE to this user running VASP <----                  |
|                                                                             |
|     You enforced a specific xc type in the INCAR file but a different       |
|     type was found in the POTCAR file.                                      |
|     I HOPE YOU KNOW WHAT YOU ARE DOING!                                     |
|                                                                             |
 -----------------------------------------------------------------------------

  PAW_PBE H 15Jun2001                   :
 energy of atom  1       EATOM=  -12.4884
 kinetic energy error for atom=    0.0000 (will be added to EATOM!!)
  PAW_PBE Si 05Jan2001                  :
 energy of atom  2       EATOM= -103.0669
 kinetic energy error for atom=    0.0001 (will be added to EATOM!!)


 POSCAR:  H Si
  positions in cartesian coordinates
  No initial velocities read in


 exchange-correlation table for SCAN
   RHO(1)=    0.500       N(1)  =     2000
   RHO(2)=  100.500       N(2)  =     4000



--------------------------------------------------------------------------------------------------------


 ion  position               nearest neighbor table
   1  0.249  0.395  0.409- 119 1.49
   2  0.431  0.613  0.488-  95 1.50
   3  0.341  0.824  0.443-  77 1.49
   4  0.355  0.648  0.425-  38 0.80
   5  0.564  0.164  0.576-  70 1.50
   6  0.337  0.529  0.383-
   7  0.413  0.440  0.520-  76 1.51
   8  0.179  0.377  0.479- 119 1.46
   9  0.582  0.604  0.519-  95 1.48
  10  0.272  0.633  0.541-  73 1.52
  11  0.267  0.440  0.535-  89 1.43
  12  0.672  0.455  0.474-  25 0.75
  13  0.735  0.648  0.553-  68 1.66  98 1.69
  14  0.644  0.462  0.558-  32 0.81
  15  0.558  0.384  0.497-  71 1.49
  16  0.788  0.527  0.416-  46 0.71
  17  0.235  0.578  0.629-  88 1.54
  18  0.065  0.654  0.434-  67 1.46
  19  0.509  0.482  0.597-  29 0.73
  20  0.041  0.478  0.480-  24 0.77
  21  0.330  0.485  0.452-  76 1.46
  22  0.435  0.609  0.562-  82 1.47
  23  0.771  0.414  0.513-  80 1.55 111 1.83
  24  0.074  0.457  0.499-  20 0.77
  25  0.655  0.464  0.449-  12 0.75
  26  0.175  0.314  0.552-  59 1.52
  27  0.965  0.555  0.424-  97 1.46
  28  0.547  0.361  0.419-  52 1.47
  29  0.490  0.461  0.576-  19 0.73
  30  0.138  0.548  0.539-  73 1.51
  31  0.027  0.588  0.502-  35 0.82
  32  0.627  0.515  0.560-  14 0.81
  33  0.322  0.730  0.529-  51 1.49
  34  0.896  0.461  0.459-  80 1.55
  35  0.974  0.591  0.492-  31 0.82
  36  0.715  0.610  0.469-  44 0.76
  37  0.499  0.486  0.452-  76 1.52
  38  0.330  0.664  0.449-   4 0.80
  39  0.138  0.657  0.380-
  40  0.049  0.401  0.557- 104 1.48
  41  0.926  0.429  0.544-  80 1.46
  42  0.185  0.532  0.439- 119 1.52
  43  0.009  0.324  0.495-  99 1.45
  44  0.736  0.568  0.481-  36 0.76
  45  0.841  0.352  0.396-  55 1.48
  46  0.770  0.482  0.418-  16 0.71
  47  0.186  0.827  0.401-  81 2.35 108 2.36  67 2.54
  48  0.411  0.273  0.443-  92 2.33 101 2.38  69 2.38  76 2.45
  49  0.791  0.482  0.639-  98 2.26  78 2.29  58 2.44
  50  0.950  0.668  0.600-  91 2.27  58 2.39  68 2.43
  51  0.370  0.811  0.550-  33 1.49  84 2.29  87 2.32 121 2.46
  52  0.600  0.382  0.376-  28 1.47  94 2.28
  53  0.249  0.077  0.410- 105 2.23 103 2.34  81 2.41  92 2.41
  54  0.183  0.974  0.578- 121 2.35  83 2.38 106 2.50
  55  0.812  0.263  0.417-  45 1.48 111 2.27  94 2.27 122 2.29
  56  0.954  0.141  0.545- 117 2.37 100 2.37  99 2.40  90 2.41 113 2.68
  57  0.642  0.284  0.644-  70 2.21  78 2.28
  58  0.954  0.522  0.638- 104 2.28  50 2.39  49 2.44
  59  0.189  0.224  0.525-  26 1.52  92 2.17  99 2.26  83 2.26
  60  0.741  0.078  0.565- 124 2.29 117 2.32 123 2.38  65 2.42
  61  0.478  0.754  0.361-  79 2.34  77 2.36
  62  0.718  0.025  0.415- 114 2.19 123 2.33  64 2.39
  63  0.023  0.941  0.454- 100 2.22 108 2.29  93 2.31  81 2.37
  64  0.616  0.146  0.393- 101 2.29  94 2.30  85 2.35  62 2.39
  65  0.820  0.979  0.621- 125 2.29  90 2.30  60 2.42
  66  0.576  0.643  0.641-  82 2.36  98 2.40
  67  0.119  0.718  0.463-  18 1.46  93 2.28  73 2.38  47 2.54
  68  0.842  0.620  0.539-  13 1.66  74 2.33  80 2.34  50 2.43  98 2.61
  69  0.397  0.261  0.358-  48 2.38  85 2.43
  70  0.555  0.267  0.580-   5 1.50  57 2.21  71 2.21  75 2.37
  71  0.615  0.304  0.511-  15 1.49  70 2.21 111 2.31 101 2.33
  72  0.939  0.792  0.356-  96 2.27 108 2.27
  73  0.169  0.646  0.534-  30 1.51  10 1.52  91 2.36  67 2.38
  74  0.860  0.739  0.484- 107 2.30  68 2.33  93 2.34  96 2.44
  75  0.399  0.297  0.598-  89 2.26 102 2.35  70 2.37
  76  0.412  0.434  0.466-  21 1.46   7 1.51  37 1.52  48 2.45
  77  0.422  0.861  0.417-   3 1.49 120 2.20 103 2.28  61 2.36
  78  0.783  0.331  0.618-  57 2.28  49 2.29 117 2.33
  79  0.565  0.651  0.407-  95 2.19  61 2.34 112 2.40
  80  0.861  0.471  0.511-  41 1.46  34 1.55  23 1.55  68 2.34 111 2.93
  81  0.185  0.951  0.455- 121 2.33  47 2.35  63 2.37  53 2.41 108 3.07
  82  0.424  0.637  0.612-  22 1.47  88 2.32  84 2.33  66 2.36
  83  0.201  0.134  0.591-  59 2.26  54 2.38 102 2.38
  84  0.357  0.778  0.630-  51 2.29  82 2.33
  85  0.474  0.113  0.358- 103 2.28  64 2.35  69 2.43
  86  0.059  0.377  0.383- 119 2.29  97 2.33 109 2.33
  87  0.518  0.798  0.520- 110 2.29 120 2.29  51 2.32  95 2.39
  88  0.325  0.523  0.637-  17 1.54  82 2.32  89 2.35 116 3.07
  89  0.295  0.407  0.581-  11 1.43  75 2.26 116 2.29  88 2.35
  90  0.968  0.012  0.599-  65 2.30  56 2.41 106 2.42
  91  0.091  0.732  0.593-  50 2.27  73 2.36 106 2.39
  92  0.288  0.186  0.471-  59 2.17  48 2.33 118 2.35  53 2.41
  93  0.006  0.805  0.495-  67 2.28 106 2.30  63 2.31  74 2.34
  94  0.700  0.264  0.361-  55 2.27  52 2.28  64 2.30
  95  0.526  0.652  0.482-   9 1.48   2 1.50  79 2.19  87 2.39
  96  0.849  0.698  0.400-  72 2.27 112 2.34  74 2.44
  97  0.975  0.513  0.377-  27 1.46  86 2.33
  98  0.725  0.610  0.609-  13 1.69  49 2.26  66 2.40  68 2.61
  99  0.047  0.232  0.493-  43 1.45  59 2.26  56 2.40 109 2.48 100 3.09
 100  0.933  0.058  0.473-  63 2.22 122 2.33 123 2.34  56 2.37  99 3.09
 101  0.547  0.192  0.463- 115 2.28  64 2.29  71 2.33  48 2.38
 102  0.364  0.141  0.590- 118 2.27  75 2.35  83 2.38
 103  0.381  0.999  0.386-  85 2.28  77 2.28  53 2.34
 104  0.042  0.405  0.610-  40 1.48  58 2.28 116 2.32 113 2.45
 105  0.157  0.147  0.358-  53 2.23 109 2.24
 106  0.043  0.879  0.565-  93 2.30  91 2.39  90 2.42  54 2.50
 107  0.757  0.858  0.493- 123 2.28  74 2.30 114 2.38 110 2.48
 108  0.048  0.897  0.377-  72 2.27  63 2.29  47 2.36  81 3.07
 109  0.059  0.223  0.405- 105 2.24 122 2.26  86 2.33  99 2.48
 110  0.643  0.857  0.559-  87 2.29 125 2.29 124 2.46 107 2.48
 111  0.770  0.295  0.493-  23 1.83  55 2.27 117 2.29  71 2.31  80 2.93
 112  0.697  0.744  0.390- 114 2.26  96 2.34  79 2.40
 113  0.001  0.244  0.621- 104 2.45  56 2.68
 114  0.670  0.883  0.423-  62 2.19 112 2.26 120 2.27 107 2.38 123 3.14
 115  0.522  0.052  0.497- 118 2.24 124 2.28 101 2.28 120 2.33
 116  0.188  0.363  0.636-  89 2.29 104 2.32  88 3.07
 117  0.815  0.219  0.561- 111 2.29  60 2.32  78 2.33  56 2.37
 118  0.375  0.080  0.516- 115 2.24 102 2.27 121 2.31  92 2.35
 119  0.168  0.430  0.435-   8 1.46   1 1.49  42 1.52  86 2.29
 120  0.536  0.908  0.462-  77 2.20 114 2.27  87 2.29 115 2.33
 121  0.290  0.946  0.517- 118 2.31  81 2.33  54 2.35  51 2.46
 122  0.922  0.152  0.407- 109 2.26  55 2.29 100 2.33
 123  0.783  0.012  0.491- 107 2.28  62 2.33 100 2.34  60 2.38 114 3.14
 124  0.596  0.018  0.566- 115 2.28  60 2.29 110 2.46
 125  0.742  0.842  0.622- 110 2.29  65 2.29

  LATTYP: Found a simple tetragonal cell.
 ALAT       =    14.5768472423
 C/A-ratio  =     1.9258044166
  
  Lattice vectors:
  
 A1 = (  14.5768472423,   0.0000000000,   0.0000000000)
 A2 = (   0.0000000000,  14.5768472423,   0.0000000000)
 A3 = (   0.0000000000,   0.0000000000,  28.0721568000)


Analysis of symmetry for initial positions (statically):
=====================================================================
 Subroutine PRICEL returns:
 Original cell was already a primitive cell.
 

 Routine SETGRP: Setting up the symmetry group for a 
 simple tetragonal supercell.


 Subroutine GETGRP returns: Found  1 space group operations
 (whereof  1 operations were pure point group operations)
 out of a pool of 16 trial point group operations.


The static configuration has the point symmetry C_1 .


Analysis of symmetry for dynamics (positions and initial velocities):
=====================================================================
 Subroutine PRICEL returns:
 Original cell was already a primitive cell.
 

 Routine SETGRP: Setting up the symmetry group for a 
 simple tetragonal supercell.


 Subroutine GETGRP returns: Found  1 space group operations
 (whereof  1 operations were pure point group operations)
 out of a pool of 16 trial point group operations.


The dynamic configuration has the point symmetry C_1 .


 Subroutine INISYM returns: Found  1 space group operations
 (whereof  1 operations are pure point group operations),
 and found     1 'primitive' translations


----------------------------------------------------------------------------------------

                                     Primitive cell                                     

  volume of cell :    5964.8975

  direct lattice vectors                    reciprocal lattice vectors
    14.576847242  0.000000000  0.000000000     0.068601940  0.000000000  0.000000000
     0.000000000 14.576847242  0.000000000     0.000000000  0.068601940  0.000000000
     0.000000000  0.000000000 28.072156800     0.000000000  0.000000000  0.035622486

  length of vectors
    14.576847242 14.576847242 28.072156800     0.068601940  0.068601940  0.035622486

  position of ions in fractional coordinates (direct lattice)
     0.249406469  0.394783584  0.408596920
     0.431393695  0.613393270  0.488161166
     0.340520136  0.824327771  0.443135057
     0.354975936  0.648494139  0.425368698
     0.563759081  0.164215208  0.575903979
     0.337345924  0.529436158  0.382687190
     0.412740142  0.439639649  0.519702384
     0.178960509  0.376835259  0.478682735
     0.581921444  0.604077813  0.518626584
     0.271665740  0.632522921  0.541398258
     0.266716797  0.440142501  0.534947382
     0.671995105  0.455343319  0.473679557
     0.734850261  0.648104480  0.552596543
     0.643852532  0.461732217  0.558132633
     0.557525908  0.384206537  0.497215690
     0.787701196  0.526879364  0.415555772
     0.235413731  0.577633137  0.628729275
     0.065394937  0.654172321  0.433588943
     0.508660060  0.481742717  0.597193757
     0.040885659  0.478365444  0.480348799
     0.330117337  0.485245532  0.451989026
     0.435270391  0.608965015  0.561936046
     0.770783957  0.414048381  0.512831519
     0.074265716  0.457086494  0.498700791
     0.654639501  0.464401519  0.449007067
     0.174633098  0.313710497  0.552004497
     0.965387080  0.555065157  0.423883241
     0.546736195  0.361287315  0.419280816
     0.489786981  0.461308257  0.575740828
     0.138329638  0.548051980  0.538669576
     0.027417863  0.587690867  0.501648195
     0.627410019  0.514580408  0.560445601
     0.322455873  0.730301952  0.528742302
     0.895708090  0.460762186  0.458720963
     0.974401375  0.591340491  0.491587337
     0.714722452  0.609861642  0.468951028
     0.498993361  0.485885588  0.451840124
     0.329606939  0.663873322  0.449322683
     0.138221933  0.656549379  0.380110046
     0.049498975  0.401426310  0.557427308
     0.926235953  0.429122971  0.543593316
     0.185466717  0.532399762  0.438845753
     0.008664837  0.323824481  0.495470544
     0.735563721  0.567695460  0.480764157
     0.840751076  0.351755761  0.396250166
     0.770200841  0.481727625  0.417658568
     0.185937326  0.827071849  0.401288254
     0.410814485  0.272746221  0.442587539
     0.791151873  0.482143353  0.638887027
     0.950143729  0.668106748  0.599623567
     0.369850209  0.811252242  0.549997170
     0.600496106  0.381637394  0.376353583
     0.249075122  0.077142196  0.409964823
     0.183347603  0.974188709  0.577978633
     0.811883379  0.263276409  0.417092170
     0.954445071  0.140622315  0.545143963
     0.642265083  0.283609338  0.643775144
     0.953800213  0.522119761  0.638229436
     0.188770586  0.224074517  0.525191096
     0.741058737  0.078069008  0.565027009
     0.477867394  0.753750095  0.361210892
     0.718125108  0.024749590  0.414937366
     0.023181419  0.940916768  0.454004546
     0.616034445  0.146185246  0.393434209
     0.819662839  0.979423037  0.621111763
     0.575948273  0.643125351  0.640986616
     0.119382468  0.717651755  0.462539693
     0.841670342  0.620193095  0.538846976
     0.397286869  0.260814286  0.358169017
     0.554610326  0.266564500  0.580189008
     0.615138504  0.303994405  0.510573053
     0.939249741  0.792023118  0.356224856
     0.169239614  0.646387373  0.534397371
     0.860213446  0.739350548  0.484377702
     0.398813948  0.297115688  0.598220398
     0.412307264  0.434414239  0.465913143
     0.421978079  0.860755401  0.417043367
     0.782528609  0.330572168  0.617555214
     0.564999404  0.651249879  0.406676868
     0.861077831  0.470644295  0.510626487
     0.185318537  0.951495188  0.454684935
     0.424315347  0.637352498  0.611958565
     0.201158725  0.134345237  0.590602885
     0.356702647  0.778309590  0.629613425
     0.474048324  0.112989453  0.358048577
     0.058935515  0.377158374  0.382697449
     0.517517943  0.798382518  0.519840599
     0.324823326  0.523135070  0.636851202
     0.295253832  0.407356948  0.580636426
     0.967760707  0.012474783  0.598767915
     0.091366808  0.732277688  0.592920128
     0.288357965  0.185803552  0.471241910
     0.005623239  0.804879121  0.495127856
     0.699533982  0.264465967  0.361049487
     0.525936087  0.651682757  0.481999189
     0.849449802  0.697921837  0.400426903
     0.975128556  0.512597812  0.377174218
     0.724772636  0.609745019  0.609056045
     0.047042889  0.232295773  0.492996206
     0.932842320  0.057712137  0.473185117
     0.547352241  0.192316621  0.462972507
     0.364169968  0.140631233  0.590177909
     0.381484412  0.999170321  0.385765364
     0.042281159  0.405026540  0.610070217
     0.157105989  0.146629787  0.357649178
     0.042522089  0.879195603  0.564906961
     0.757447740  0.858114227  0.493287598
     0.047805879  0.896750839  0.376808554
     0.059427185  0.223196412  0.404976963
     0.642951788  0.856508941  0.558614962
     0.769631445  0.294572614  0.493095949
     0.696783044  0.744173265  0.389901883
     0.000773212  0.243628128  0.620684649
     0.669968604  0.883119634  0.422959906
     0.521505088  0.052283597  0.496699163
     0.187862983  0.363197193  0.635724819
     0.814997907  0.218952010  0.560511503
     0.374703110  0.080410392  0.515883297
     0.167640503  0.430109467  0.434966465
     0.536002736  0.908077020  0.462033498
     0.290120348  0.946205978  0.517155732
     0.921571021  0.152317573  0.406557532
     0.782754996  0.012309658  0.490598457
     0.596102837  0.017710002  0.565829584
     0.742382754  0.842328920  0.621500404

  ion indices of the primitive-cell ions
   primitive index   ion index
                 1           1
                 2           2
                 3           3
                 4           4
                 5           5
                 6           6
                 7           7
                 8           8
                 9           9
                10          10
                11          11
                12          12
                13          13
                14          14
                15          15
                16          16
                17          17
                18          18
                19          19
                20          20
                21          21
                22          22
                23          23
                24          24
                25          25
                26          26
                27          27
                28          28
                29          29
                30          30
                31          31
                32          32
                33          33
                34          34
                35          35
                36          36
                37          37
                38          38
                39          39
                40          40
                41          41
                42          42
                43          43
                44          44
                45          45
                46          46
                47          47
                48          48
                49          49
                50          50
                51          51
                52          52
                53          53
                54          54
                55          55
                56          56
                57          57
                58          58
                59          59
                60          60
                61          61
                62          62
                63          63
                64          64
                65          65
                66          66
                67          67
                68          68
                69          69
                70          70
                71          71
                72          72
                73          73
                74          74
                75          75
                76          76
                77          77
                78          78
                79          79
                80          80
                81          81
                82          82
                83          83
                84          84
                85          85
                86          86
                87          87
                88          88
                89          89
                90          90
                91          91
                92          92
                93          93
                94          94
                95          95
                96          96
                97          97
                98          98
                99          99
               100         100
               101         101
               102         102
               103         103
               104         104
               105         105
               106         106
               107         107
               108         108
               109         109
               110         110
               111         111
               112         112
               113         113
               114         114
               115         115
               116         116
               117         117
               118         118
               119         119
               120         120
               121         121
               122         122
               123         123
               124         124
               125         125

----------------------------------------------------------------------------------------


 -----------------------------------------------------------------------------
|                                                                             |
|           W    W    AA    RRRRR   N    N  II  N    N   GGGG   !!!           |
|           W    W   A  A   R    R  NN   N  II  NN   N  G    G  !!!           |
|           W    W  A    A  R    R  N N  N  II  N N  N  G       !!!           |
|           W WW W  AAAAAA  RRRRR   N  N N  II  N  N N  G  GGG   !            |
|           WW  WW  A    A  R   R   N   NN  II  N   NN  G    G                |
|           W    W  A    A  R    R  N    N  II  N    N   GGGG   !!!           |
|                                                                             |
|     The requested file  could not be found or opened for reading            |
|     k-point information. Automatic k-point generation is used as a          |
|     fallback, which may lead to unwanted results.                           |
|                                                                             |
 -----------------------------------------------------------------------------



Automatic generation of k-mesh.
 Grid dimensions derived from KSPACING:
 generate k-points for:    2    2    1

 Generating k-lattice:

  Cartesian coordinates                     Fractional coordinates (reciprocal lattice)
     0.034300970  0.000000000  0.000000000     0.500000000  0.000000000  0.000000000
     0.000000000  0.034300970  0.000000000     0.000000000  0.500000000  0.000000000
     0.000000000  0.000000000  0.035622486     0.000000000  0.000000000  1.000000000

  Length of vectors
     0.034300970  0.034300970  0.035622486

  Shift w.r.t. Gamma in fractional coordinates (k-lattice)
     0.000000000  0.000000000  0.000000000

 
 Subroutine IBZKPT returns following result:
 ===========================================
 
 Found      4 irreducible k-points:
 
 Following reciprocal coordinates:
            Coordinates               Weight
  0.000000  0.000000  0.000000      1.000000
  0.500000  0.000000  0.000000      1.000000
  0.000000  0.500000  0.000000      1.000000
  0.500000  0.500000  0.000000      1.000000
 
 Following cartesian coordinates:
            Coordinates               Weight
  0.000000  0.000000  0.000000      1.000000
  0.034301  0.000000  0.000000      1.000000
  0.000000  0.034301  0.000000      1.000000
  0.034301  0.034301  0.000000      1.000000
 


--------------------------------------------------------------------------------------------------------




 Dimension of arrays:
   k-points           NKPTS =      4   k-points in BZ     NKDIM =      4   number of bands    NBANDS=    248
   number of dos      NEDOS =   2000   number of ions     NIONS =    125
   non local maximal  LDIM  =      4   non local SUM 2l+1 LMDIM =      8
   total plane-waves  NPLWV = ******
   max r-space proj   IRMAX =      1   max aug-charges    IRDMAX= 405153
   dimension x,y,z NGX =   168 NGY =  168 NGZ =  320
   dimension x,y,z NGXF=   336 NGYF=  336 NGZF=  640
   support grid    NGXF=   672 NGYF=  672 NGZF= 1280
   ions per type =              46  79
   NGX,Y,Z   is equivalent  to a cutoff of  19.16, 19.16, 18.95 a.u.
   NGXF,Y,Z  is equivalent  to a cutoff of  38.32, 38.32, 37.90 a.u.

 SYSTEM =  a-Si SPC                                
 POSCAR =   H Si                                   

 Startparameter for this run:
   NWRITE =      2    write-flag & timer
   PREC   = accura    normal or accurate (medium, high low for compatibility)
   ISTART =      1    job   : 0-new  1-cont  2-samecut
   ICHARG =      1    charge: 1-file 2-atom 10-const
   ISPIN  =      1    spin polarized calculation?
   LNONCOLLINEAR =      F non collinear calculations
   LSORBIT =      F    spin-orbit coupling
   INIWAV =      1    electr: 0-lowe 1-rand  2-diag
   LASPH  =      T    aspherical Exc in radial PAW
 Electronic Relaxation 1
   ENCUT  = 1200.0 eV  88.20 Ry    9.39 a.u.  41.17 41.17 79.29*2*pi/ulx,y,z
   ENINI  = 1200.0     initial cutoff
   ENAUG  =  400.0 eV  augmentation charge cutoff
   NELM   =    150;   NELMIN=  2; NELMDL=  0     # of ELM steps 
   EDIFF  = 0.1E-05   stopping-criterion for ELM
   LREAL  =      F    real-space projection
   NLSPLINE    = F    spline interpolate recip. space projectors
   LCOMPAT=      F    compatible to vasp.4.4
   GGA_COMPAT  = T    GGA compatible to vasp.4.4-vasp.4.6
   LMAXPAW     = -100 max onsite density
   LMAXMIX     =    2 max onsite mixed and CHGCAR
   VOSKOWN=      0    Vosko Wilk Nusair interpolation
   ROPT   =    0.00000   0.00000
 Ionic relaxation
   EDIFFG = -.1E-01   stopping-criterion for IOM
   NSW    =      0    number of steps for IOM
   NBLOCK =      1;   KBLOCK =      1    inner block; outer block 
   IBRION =     -1    ionic relax: 0-MD 1-quasi-New 2-CG
   NFREE  =      0    steps in history (QN), initial steepest desc. (CG)
   ISIF   =      2    stress and relaxation
   IWAVPR =     10    prediction:  0-non 1-charg 2-wave 3-comb
   ISYM   =      1    0-nonsym 1-usesym 2-fastsym
   LCORR  =      T    Harris-Foulkes like correction to forces

   POTIM  = 0.5000    time-step for ionic-motion
   TEIN   =    0.0    initial temperature
   TEBEG  =    0.0;   TEEND  =   0.0 temperature during run
   SMASS  =  -3.00    Nose mass-parameter (am)
   estimated Nose-frequenzy (Omega)   =  0.10E-29 period in steps = 0.13E+47 mass=  -0.486E-26a.u.
   SCALEE = 1.0000    scale energy and forces
   NPACO  =    256;   APACO  = 10.0  distance and # of slots for P.C.
   PSTRESS=    0.0 pullay stress

  Mass of Ions in am
   POMASS =   1.00 28.09
  Ionic Valenz
   ZVAL   =   1.00  4.00
  Atomic Wigner-Seitz radii
   RWIGS  =  -1.00 -1.00
  virtual crystal weights 
   VCA    =   1.00  1.00
   NELECT =     362.0000    total number of electrons
   NUPDOWN=      -1.0000    fix difference up-down

 DOS related values:
   EMIN   =  10.00;   EMAX   =-10.00  energy-range for DOS
   EFERMI =   0.00;   METHOD = LEGACY      
   ISMEAR =     0;   SIGMA  =   0.10  broadening in eV -4-tet -1-fermi 0-gaus
   EFERMI_NEDOS =   21; number of points for ismear=-14 and -15

 Electronic relaxation 2 (details)
   IALGO  =     38    algorithm
   LDIAG  =      F    sub-space diagonalisation (order eigenvalues)
   LSUBROT=      F    optimize rotation matrix (better conditioning)
   TURBO    =      0    0=normal 1=particle mesh
   IRESTART =      0    0=no restart 2=restart with 2 vectors
   NREBOOT  =      0    no. of reboots
   NMIN     =      0    reboot dimension
   EREF     =   0.00    reference energy to select bands
   IMIX   =      4    mixing-type and parameters
     AMIX     =   0.40;   BMIX     =  1.00
     AMIX_MAG =   1.60;   BMIX_MAG =  1.00
     AMIN     =   0.10
     WC   =   100.;   INIMIX=   1;  MIXPRE=   1;  MAXMIX= -45

 Intra band minimization:
   WEIMIN = 0.0000     energy-eigenvalue tresh-hold
   EBREAK =  0.10E-08  absolut break condition
   DEPER  =   0.30     relativ break condition  

   TIME   =   0.40     timestep for ELM

  volume/ion in A,a.u.               =      47.72       322.02
  Fermi-wavevector in a.u.,A,eV,Ry     =   0.643344  1.215744  5.631338  0.413892
  Thomas-Fermi vector in A             =   1.710313

 Write flags
   LWAVE        =      F    write WAVECAR
   LDOWNSAMPLE  =      F    k-point downsampling of WAVECAR
   LCHARG       =      F    write CHGCAR
   LVTOT        =      F    write LOCPOT, total local potential
   LVHAR        =      F    write LOCPOT, Hartree potential only
   WRT_POTENTIAL= false  ! write potential to hdf5 file
   LELF         =      F    write electronic localiz. function (ELF)
   LORBIT       =     11    0 simple, 1 ext, 2 COOP (PROOUT), +10 PAW based schemes


 Python interface
   PLUGINS active      =      F    recompile with -DPLUGINS to activate

 Dipole corrections
   LMONO      =      F    monopole corrections only (constant potential shift)
   LDIPOL     =      F    correct potential (dipole corrections)
   IDIPOL     =      0    1-x, 2-y, 3-z, 4-all directions 
   EPSILON    =  1.0000000 bulk dielectric constant
   LVACPOTAV  =      F  vacuum potentials using an averaging scheme for the charge density
   VACPOTFLAT =  0.1000000 required flatness to determine vacuum potential

Coulomb truncation method
  LTRUNCATE          =      F  Coulomb kernel truncation to be used
  IDIMENSIONALITY    =      3  Dimensionality of cutoff (0 molecules / 2 surfaces)
  ISURFACE           =     -1  Direction of surface normal
  LCOARSEN           =      F  Coarsen the charge grid before padding, preferred


 Exchange correlation treatment:
   METAGGA = SCAN    functional components
   XC_C    = 1    coefficients multiplying the functional components
   LIBXC   =     F    Libxc                    
   VOSKOWN =     0    Vosko Wilk Nusair interpolation
   LHFCALC =     F    Hartree Fock is set to
   LHFONE  =     F    Hartree Fock one center treatment
   AEXX    =    0.0000 exact exchange contribution

 Parameters of functionals:
   SCAN:
     P1 =  0.000000E+00
     P2 =  0.000000E+00
     P3 =  0.000000E+00

 Accuracy and mixing parameters for tau-dependent meta-GGA functionals:
   LMAXTAU = 6
   LMIXTAU = T

 Van der Waals corrections
   IVDW    =     0    specifies the selected vdW correction

 Linear response parameters
   LEPSILON=     F    determine dielectric tensor
   LRPA    =     F    only Hartree local field effects (RPA)
   LNABLA  =     F    use nabla operator in PAW spheres
   LVEL    =     F    velocity operator in full k-point grid
   CSHIFT  =0.1000    complex shift for real part using Kramers Kronig
   OMEGAMAX=  -1.0    maximum frequency
   DEG_THRESHOLD= 0.2000000E-02 threshold for treating states as degnerate
   RTIME   =   -0.100 relaxation time in fs
  (WPLASMAI=    0.000 imaginary part of plasma frequency in eV, 0.658/RTIME)
   DFIELD  = 0.0000000 0.0000000 0.0000000 field for delta impulse in time

  Optional k-point grid parameters
   LKPOINTS_OPT  =     F    use optional k-point grid
   KPOINTS_OPT_MODE=     1    mode for optional k-point grid

 Orbital magnetization related:
   ORBITALMAG=     F  switch on orbital magnetization
   LCHIMAG   =     F  perturbation theory with respect to B field
   DQ        =  0.001000  dq finite difference perturbation B field
   LLRAUG    =     F  two centre corrections for induced B field
   LBONE     =     F  B-component reconstruction in AE one-centre
   LVGVCALC  =     T  calculate vGv susceptibility
   LVGVAPPL  =     F  apply vGv susceptibility instead of pGv for G=0

 Random number generation:
   RANDOM_GENERATOR = DEFAULT
   PCG_SEED         = not used


--------------------------------------------------------------------------------------------------------


 Static calculation
 charge density and potential will be updated during run
 non-spin polarized calculation
 Variant of blocked Davidson
 perform Loewdin sub-space diagonalisation
    ordering is kept fixed
    before iterative eigenvector-optimisation
 modified Broyden-mixing scheme, WC =      100.0
 initial mixing is a Kerker type mixing with AMIX =  0.4000 and BMIX =      1.0000
 Hartree-type preconditioning will be used
 using additional bands           67
 reciprocal scheme for non local part
 use partial core corrections
 calculate Harris-corrections to forces   (improved forces if not selfconsistent)
 use gradient corrections 
 use of overlap-Matrix (Vanderbilt PP)
 Gauss-broadening in eV      SIGMA  =   0.10


--------------------------------------------------------------------------------------------------------


  energy-cutoff  :     1200.00
  volume of cell :     5964.90
      direct lattice vectors                 reciprocal lattice vectors
    14.576847242  0.000000000  0.000000000     0.068601940  0.000000000  0.000000000
     0.000000000 14.576847242  0.000000000     0.000000000  0.068601940  0.000000000
     0.000000000  0.000000000 28.072156800     0.000000000  0.000000000  0.035622486

  length of vectors
    14.576847242 14.576847242 28.072156800     0.068601940  0.068601940  0.035622486



 old parameters found on file WAVECAR:
  energy-cutoff  :     1200.00
  volume of cell :     5964.90
      direct lattice vectors                 reciprocal lattice vectors
    14.576847242  0.000000000  0.000000000     0.068601940  0.000000000  0.000000000
     0.000000000 14.576847242  0.000000000     0.000000000  0.068601940  0.000000000
     0.000000000  0.000000000 28.072156800     0.000000000  0.000000000  0.035622486

  length of vectors


 k-points in units of 2pi/SCALE and weight: read from INCAR                         
   0.00000000  0.00000000  0.00000000       0.250
   0.03430097  0.00000000  0.00000000       0.250
   0.00000000  0.03430097  0.00000000       0.250
   0.03430097  0.03430097  0.00000000       0.250

 k-points in reciprocal lattice and weights: read from INCAR                         
   0.00000000  0.00000000  0.00000000       0.250
   0.50000000  0.00000000  0.00000000       0.250
   0.00000000  0.50000000  0.00000000       0.250
   0.50000000  0.50000000  0.00000000       0.250

 position of ions in fractional coordinates (direct lattice) 
   0.24940647  0.39478358  0.40859692
   0.43139370  0.61339327  0.48816117
   0.34052014  0.82432777  0.44313506
   0.35497594  0.64849414  0.42536870
   0.56375908  0.16421521  0.57590398
   0.33734592  0.52943616  0.38268719
   0.41274014  0.43963965  0.51970238
   0.17896051  0.37683526  0.47868274
   0.58192144  0.60407781  0.51862658
   0.27166574  0.63252292  0.54139826
   0.26671680  0.44014250  0.53494738
   0.67199511  0.45534332  0.47367956
   0.73485026  0.64810448  0.55259654
   0.64385253  0.46173222  0.55813263
   0.55752591  0.38420654  0.49721569
   0.78770120  0.52687936  0.41555577
   0.23541373  0.57763314  0.62872928
   0.06539494  0.65417232  0.43358894
   0.50866006  0.48174272  0.59719376
   0.04088566  0.47836544  0.48034880
   0.33011734  0.48524553  0.45198903
   0.43527039  0.60896502  0.56193605
   0.77078396  0.41404838  0.51283152
   0.07426572  0.45708649  0.49870079
   0.65463950  0.46440152  0.44900707
   0.17463310  0.31371050  0.55200450
   0.96538708  0.55506516  0.42388324
   0.54673620  0.36128731  0.41928082
   0.48978698  0.46130826  0.57574083
   0.13832964  0.54805198  0.53866958
   0.02741786  0.58769087  0.50164820
   0.62741002  0.51458041  0.56044560
   0.32245587  0.73030195  0.52874230
   0.89570809  0.46076219  0.45872096
   0.97440138  0.59134049  0.49158734
   0.71472245  0.60986164  0.46895103
   0.49899336  0.48588559  0.45184012
   0.32960694  0.66387332  0.44932268
   0.13822193  0.65654938  0.38011005
   0.04949898  0.40142631  0.55742731
   0.92623595  0.42912297  0.54359332
   0.18546672  0.53239976  0.43884575
   0.00866484  0.32382448  0.49547054
   0.73556372  0.56769546  0.48076416
   0.84075108  0.35175576  0.39625017
   0.77020084  0.48172762  0.41765857
   0.18593733  0.82707185  0.40128825
   0.41081449  0.27274622  0.44258754
   0.79115187  0.48214335  0.63888703
   0.95014373  0.66810675  0.59962357
   0.36985021  0.81125224  0.54999717
   0.60049611  0.38163739  0.37635358
   0.24907512  0.07714220  0.40996482
   0.18334760  0.97418871  0.57797863
   0.81188338  0.26327641  0.41709217
   0.95444507  0.14062231  0.54514396
   0.64226508  0.28360934  0.64377514
   0.95380021  0.52211976  0.63822944
   0.18877059  0.22407452  0.52519110
   0.74105874  0.07806901  0.56502701
   0.47786739  0.75375010  0.36121089
   0.71812511  0.02474959  0.41493737
   0.02318142  0.94091677  0.45400455
   0.61603444  0.14618525  0.39343421
   0.81966284  0.97942304  0.62111176
   0.57594827  0.64312535  0.64098662
   0.11938247  0.71765175  0.46253969
   0.84167034  0.62019309  0.53884698
   0.39728687  0.26081429  0.35816902
   0.55461033  0.26656450  0.58018901
   0.61513850  0.30399440  0.51057305
   0.93924974  0.79202312  0.35622486
   0.16923961  0.64638737  0.53439737
   0.86021345  0.73935055  0.48437770
   0.39881395  0.29711569  0.59822040
   0.41230726  0.43441424  0.46591314
   0.42197808  0.86075540  0.41704337
   0.78252861  0.33057217  0.61755521
   0.56499940  0.65124988  0.40667687
   0.86107783  0.47064430  0.51062649
   0.18531854  0.95149519  0.45468494
   0.42431535  0.63735250  0.61195857
   0.20115872  0.13434524  0.59060289
   0.35670265  0.77830959  0.62961343
   0.47404832  0.11298945  0.35804858
   0.05893552  0.37715837  0.38269745
   0.51751794  0.79838252  0.51984060
   0.32482333  0.52313507  0.63685120
   0.29525383  0.40735695  0.58063643
   0.96776071  0.01247478  0.59876792
   0.09136681  0.73227769  0.59292013
   0.28835796  0.18580355  0.47124191
   0.00562324  0.80487912  0.49512786
   0.69953398  0.26446597  0.36104949
   0.52593609  0.65168276  0.48199919
   0.84944980  0.69792184  0.40042690
   0.97512856  0.51259781  0.37717422
   0.72477264  0.60974502  0.60905605
   0.04704289  0.23229577  0.49299621
   0.93284232  0.05771214  0.47318512
   0.54735224  0.19231662  0.46297251
   0.36416997  0.14063123  0.59017791
   0.38148441  0.99917032  0.38576536
   0.04228116  0.40502654  0.61007022
   0.15710599  0.14662979  0.35764918
   0.04252209  0.87919560  0.56490696
   0.75744774  0.85811423  0.49328760
   0.04780588  0.89675084  0.37680855
   0.05942719  0.22319641  0.40497696
   0.64295179  0.85650894  0.55861496
   0.76963144  0.29457261  0.49309595
   0.69678304  0.74417326  0.38990188
   0.00077321  0.24362813  0.62068465
   0.66996860  0.88311963  0.42295991
   0.52150509  0.05228360  0.49669916
   0.18786298  0.36319719  0.63572482
   0.81499791  0.21895201  0.56051150
   0.37470311  0.08041039  0.51588330
   0.16764050  0.43010947  0.43496646
   0.53600274  0.90807702  0.46203350
   0.29012035  0.94620598  0.51715573
   0.92157102  0.15231757  0.40655753
   0.78275500  0.01230966  0.49059846
   0.59610284  0.01771000  0.56582958
   0.74238275  0.84232892  0.62150040

 position of ions in cartesian coordinates  (Angst):
   3.63556000  5.75470000 11.47019680
   6.28836000  8.94134000 13.70373680
   4.96371000 12.01610000 12.43975680
   5.17443000  9.45300000 11.94101680
   8.21783000  2.39374000 16.16686680
   4.91744000  7.71751000 10.74285480
   6.01645000  6.40856000 14.58916680
   2.60868000  5.49307000 13.43765680
   8.48258000  8.80555000 14.55896680
   3.96003000  9.22019000 15.19821680
   3.88789000  6.41589000 15.01712680
   9.79557000  6.63747000 13.29720680
  10.71180000  9.44732000 15.51257680
   9.38534000  6.73060000 15.66798680
   8.12697000  5.60052000 13.95791680
  11.48220000  7.68024000 11.66554680
   3.43159000  8.42007000 17.64978680
   0.95325200  9.53577000 12.17177680
   7.41466000  7.02229000 16.76451680
   0.59598400  6.97306000 13.48442680
   4.81207000  7.07335000 12.68830680
   6.34487000  8.87679000 15.77475680
  11.23560000  6.03552000 14.39628680
   1.08256000  6.66288000 13.99960680
   9.54258000  6.76951000 12.60459680
   2.54560000  4.57291000 15.49595680
  14.07230000  8.09110000 11.89931680
   7.96969000  5.26643000 11.77011680
   7.13955000  6.72442000 16.16228680
   2.01641000  7.98887000 15.12161680
   0.39966600  8.56668000 14.08234680
   9.14566000  7.50096000 15.73291680
   4.70039000 10.64550000 14.84293680
  13.05660000  6.71646000 12.87728680
  14.20370000  8.61988000 13.79991680
  10.41840000  8.88986000 13.16446680
   7.27375000  7.08268000 12.68412680
   4.80463000  9.67718000 12.61345680
   2.01484000  9.57042000 10.67050880
   0.72153900  5.85153000 15.64818680
  13.50160000  6.25526000 15.25983680
   2.70352000  7.76071000 12.31934680
   0.12630600  4.72034000 13.90892680
  10.72220000  8.27521000 13.49608680
  12.25550000  5.12749000 11.12359680
  11.22710000  7.02207000 11.72457680
   2.71038000 12.05610000 11.26502680
   5.98838000  3.97578000 12.42438680
  11.53250000  7.02813000 17.93493680
  13.85010000  9.73889000 16.83272680
   5.39125000 11.82550000 15.43960680
   8.75334000  5.56307000 10.56505680
   3.63073000  1.12449000 11.50859680
   2.67263000 14.20060000 16.22510680
  11.83470000  3.83774000 11.70867680
  13.91280000  2.04983000 15.30336680
   9.36220000  4.13413000 18.07215680
  13.90340000  7.61086000 17.91647680
   2.75168000  3.26630000 14.74324680
  10.80230000  1.13800000 15.86152680
   6.96580000 10.98730000 10.13996880
  10.46800000  0.36077100 11.64818680
   0.33791200 13.71560000 12.74488680
   8.97984000  2.13092000 11.04454680
  11.94810000 14.27690000 17.43594680
   8.39551000  9.37474000 17.99387680
   1.74022000 10.46110000 12.98448680
  12.26890000  9.04046000 15.12659680
   5.79119000  3.80185000 10.05457680
   8.08447000  3.88567000 16.28715680
   8.96678000  4.43128000 14.33288680
  13.69130000 11.54520000 10.00000000
   2.46698000  9.42229000 15.00168680
  12.53920000 10.77740000 13.59752680
   5.81345000  4.33101000 16.79333680
   6.01014000  6.33239000 13.07918680
   6.15111000 12.54710000 11.70730680
  11.40680000  4.81870000 17.33610680
   8.23591000  9.49317000 11.41629680
  12.55180000  6.86051000 14.33438680
   2.70136000 13.86980000 12.76398680
   6.18518000  9.29059000 17.17899680
   2.93226000  1.95833000 16.57949680
   5.19960000 11.34530000 17.67460680
   6.91013000  1.64703000 10.05119580
   0.85909400  5.49778000 10.74314280
   7.54378000 11.63790000 14.59304680
   4.73490000  7.62566000 17.87778680
   4.30387000  5.93798000 16.29971680
  14.10690000  0.18184300 16.80870680
   1.33184000 10.67430000 16.64454680
   4.20335000  2.70843000 13.22877680
   0.08196910 11.73260000 13.89930680
  10.19700000  3.85508000 10.13543780
   7.66649000  9.49948000 13.53075680
  12.38230000 10.17350000 11.24084680
  14.21430000  7.47206000 10.58809380
  10.56490000  8.88816000 17.09751680
   0.68573700  3.38614000 13.83946680
  13.59790000  0.84126100 13.28332680
   7.97867000  2.80337000 12.99663680
   5.30845000  2.04996000 16.56756680
   5.56084000 14.56475314 10.82926580
   0.61632600  5.90401000 17.12598680
   2.29011000  2.13740000 10.03998380
   0.61983800 12.81590000 15.85815680
  11.04120000 12.50860000 13.84764680
   0.69685900 13.07180000 10.57782880
   0.86626100  3.25350000 11.36857680
   9.37221000 12.48520000 15.68152680
  11.21880000  4.29394000 13.84226680
  10.15690000 10.84770000 10.94538680
   0.01127100  3.55133000 17.42395680
   9.76603000 12.87310000 11.87339680
   7.60190000  0.76213000 13.94341680
   2.73845000  5.29427000 17.84616680
  11.88010000  3.19163000 15.73476680
   5.46199000  1.17213000 14.48195680
   2.44367000  6.26964000 12.21044680
   7.81323000 13.23690000 12.97027680
   4.22904000 13.79270000 14.51767680
  13.43360000  2.22031000 11.41294680
  11.41010000  0.17943600 13.77215680
   8.68930000  0.25815600 15.88405680
  10.82160000 12.27850000 17.44685680



--------------------------------------------------------------------------------------------------------


 k-point     1 :   0.0000 0.0000 0.0000  plane waves:  563111
 k-point     2 :   0.5000 0.0000 0.0000  plane waves:  563054
 k-point     3 :   0.0000 0.5000 0.0000  plane waves:  563054
 k-point     4 :   0.5000 0.5000 0.0000  plane waves:  563060

 maximum and minimum number of plane-waves per node :     35290    35102

 maximum number of plane-waves:    563111
 maximum index in each direction: 
   IXMAX=   41   IYMAX=   41   IZMAX=   79
   IXMIN=  -41   IYMIN=  -41   IZMIN=  -79


 parallel 3D FFT for wavefunctions:
    minimum data exchange during FFTs selected (reduces bandwidth)
 parallel 3D FFT for charge:
    minimum data exchange during FFTs selected (reduces bandwidth)


 total amount of memory used by VASP MPI-rank0   381356. kBytes
=======================================================================

   base                                    :      30000. kBytes
   nonl-proj                               :      88482. kBytes
   fftplans                                :     108864. kBytes
   grid                                    :      83991. kBytes
   one-center                              :         24. kBytes
   wavefun                                 :      69995. kBytes

     INWAV:  cpu time     20.6608: real time     20.6736
 Broyden mixing: mesh for mixing (old mesh)
   NGX = 83   NGY = 83   NGZ =159
  (NGX  =336   NGY  =336   NGZ  =640)
  gives a total of ****** points

 initial charge density was supplied:
 number of electron     361.9999999 magnetization 
 keeping initial charge density in first step


--------------------------------------------------------------------------------------------------------


 Maximum index for augmentation-charges        11331 (set IRDMAX)


--------------------------------------------------------------------------------------------------------


 First call to EWALD:  gamma=   0.098
 Maximum number of real-space cells   3x   3x   2
 Maximum number of reciprocal cells   2x   2x   4

    FEWALD:  cpu time      0.0218: real time      0.0218


--------------------------------------- Ionic step        1  -------------------------------------------




--------------------------------------- Iteration      1(   1)  ---------------------------------------


    POTLOK:  cpu time      2.1745: real time      2.1754
    SETDIJ:  cpu time      1.9103: real time      1.9116
    EDDIAG:  cpu time     41.3800: real time     41.4066
     EDDAV:  cpu time    196.6990: real time    196.8011
       DOS:  cpu time      0.0095: real time      0.0100
    CHARGE:  cpu time     24.0449: real time     24.0651
    MIXING:  cpu time      0.0510: real time      0.0512
    --------------------------------------------
      LOOP:  cpu time    266.2693: real time    266.4210

 eigenvalue-minimisations  :  2016
 total energy-change (2. order) :-0.9310895E+03  (-0.1061399E+01)
 number of electron     361.9999999 magnetization 
 augmentation part      -17.2732283 magnetization 

 Broyden mixing:
  rms(total) = 0.10834E+01    rms(broyden)= 0.27044E+02
  rms(prec ) = 0.11218E+01
  weight for this iteration     100.00
  WARNING: grid for Broyden might be to small

 Free energy of the ion-electron system (eV)
  ---------------------------------------------------
  alpha Z        PSCENC =        47.14944627
  Ewald energy   TEWEN  =     54929.78002075
  -Hartree energ DENC   =    -62488.28105800
  -exchange      EXHF   =         0.00000000
  -V(xc)+E(xc)   XCENC  =      -249.90182338
  PAW double counting   =     30544.46579291   -29757.58252360
  entropy T*S    EENTRO =        -0.22597499
  eigenvalues    EBANDS =     -2673.23801964
  atomic energy  EATOM  =      8716.74468240
  Solvation  Ediel_sol  =         0.00000000
  ---------------------------------------------------
  free energy    TOTEN  =      -931.08945729 eV

  energy without entropy =     -930.86348230  energy(sigma->0) =     -930.97646979


--------------------------------------------------------------------------------------------------------




--------------------------------------- Iteration      1(   2)  ---------------------------------------


    POTLOK:  cpu time      2.1319: real time      2.1521
    SETDIJ:  cpu time      1.9065: real time      1.9072
    EDDIAG:  cpu time     41.4021: real time     41.4277
     EDDAV:  cpu time    194.8296: real time    194.9349
       DOS:  cpu time      0.0021: real time      0.0021
    CHARGE:  cpu time     23.9356: real time     23.9572
    MIXING:  cpu time      0.0460: real time      0.0460
    --------------------------------------------
      LOOP:  cpu time    264.2538: real time    264.4272

 eigenvalue-minimisations  :  1984
 total energy-change (2. order) : 0.6628268E+02  (-0.1206445E+01)
 number of electron     361.9999999 magnetization 
 augmentation part      -17.2913083 magnetization 

 Broyden mixing:
  rms(total) = 0.87439E+00    rms(broyden)= 0.15461E+02
  rms(prec ) = 0.93461E+00
  weight for this iteration     100.00
  WARNING: grid for Broyden might be to small

 eigenvalues of (default mixing * dielectric matrix)
  average eigenvalue GAMMA=   0.6364
  0.6364

 Free energy of the ion-electron system (eV)
  ---------------------------------------------------
  alpha Z        PSCENC =        47.14944627
  Ewald energy   TEWEN  =     54929.78002075
  -Hartree energ DENC   =    -62476.57915164
  -exchange      EXHF   =         0.00000000
  -V(xc)+E(xc)   XCENC  =      -243.50503070
  PAW double counting   =     36182.92033894   -35395.77670420
  entropy T*S    EENTRO =        -0.20744183
  eigenvalues    EBANDS =     -2625.33294158
  atomic energy  EATOM  =      8716.74468240
  Solvation  Ediel_sol  =         0.00000000
  ---------------------------------------------------
  free energy    TOTEN  =      -864.80678158 eV

  energy without entropy =     -864.59933976  energy(sigma->0) =     -864.70306067


--------------------------------------------------------------------------------------------------------




--------------------------------------- Iteration      1(   3)  ---------------------------------------


    POTLOK:  cpu time      2.1338: real time      2.1562
    SETDIJ:  cpu time      1.9108: real time      1.9118
    EDDIAG:  cpu time     41.4941: real time     41.5197
     EDDAV:  cpu time    197.1734: real time    197.2759
       DOS:  cpu time      0.0026: real time      0.0026
    CHARGE:  cpu time     23.9744: real time     23.9949
    MIXING:  cpu time      0.0423: real time      0.0423
    --------------------------------------------
      LOOP:  cpu time    266.7314: real time    266.9034

 eigenvalue-minimisations  :  2024
 total energy-change (2. order) :-0.1821800E+01  (-0.8650984E+00)
 number of electron     361.9999999 magnetization 
 augmentation part      -17.1602612 magnetization 

 Broyden mixing:
  rms(total) = 0.62165E+00    rms(broyden)= 0.27025E+01
  rms(prec ) = 0.66325E+00
  weight for this iteration     100.00
  WARNING: grid for Broyden might be to small

 eigenvalues of (default mixing * dielectric matrix)
  average eigenvalue GAMMA=   0.6182
  0.6476  0.5887

 Free energy of the ion-electron system (eV)
  ---------------------------------------------------
  alpha Z        PSCENC =        47.14944627
  Ewald energy   TEWEN  =     54929.78002075
  -Hartree energ DENC   =    -62479.26455566
  -exchange      EXHF   =         0.00000000
  -V(xc)+E(xc)   XCENC  =      -245.93266347
  PAW double counting   =     39338.71783526   -38551.70809446
  entropy T*S    EENTRO =        -0.18874885
  eigenvalues    EBANDS =     -2621.92650407
  atomic energy  EATOM  =      8716.74468240
  Solvation  Ediel_sol  =         0.00000000
  ---------------------------------------------------
  free energy    TOTEN  =      -866.62858183 eV

  energy without entropy =     -866.43983298  energy(sigma->0) =     -866.53420740


--------------------------------------------------------------------------------------------------------




--------------------------------------- Iteration      1(   4)  ---------------------------------------


    POTLOK:  cpu time      2.1331: real time      2.1538
    SETDIJ:  cpu time      1.9090: real time      1.9104
    EDDIAG:  cpu time     41.5575: real time     41.5823
     EDDAV:  cpu time    214.0051: real time    214.1125
       DOS:  cpu time      0.0033: real time      0.0033
    CHARGE:  cpu time     23.9779: real time     23.9998
    MIXING:  cpu time      0.0417: real time      0.0426
    --------------------------------------------
      LOOP:  cpu time    283.6276: real time    283.8048

 eigenvalue-minimisations  :  2328
 total energy-change (2. order) :-0.7517223E+00  (-0.2594748E+00)
 number of electron     361.9999999 magnetization 
 augmentation part      -17.1498530 magnetization 

 Broyden mixing:
  rms(total) = 0.45877E+00    rms(broyden)= 0.13172E+02
  rms(prec ) = 0.60228E+00
  weight for this iteration     100.00
  WARNING: grid for Broyden might be to small

 eigenvalues of (default mixing * dielectric matrix)
  average eigenvalue GAMMA=   0.6245
  0.9201  0.6331  0.3202

 Free energy of the ion-electron system (eV)
  ---------------------------------------------------
  alpha Z        PSCENC =        47.14944627
  Ewald energy   TEWEN  =     54929.78002075
  -Hartree energ DENC   =    -62477.23461581
  -exchange      EXHF   =         0.00000000
  -V(xc)+E(xc)   XCENC  =      -245.64674507
  PAW double counting   =     45949.54237134   -45162.64611038
  entropy T*S    EENTRO =        -0.21561231
  eigenvalues    EBANDS =     -2624.85374133
  atomic energy  EATOM  =      8716.74468240
  Solvation  Ediel_sol  =         0.00000000
  ---------------------------------------------------
  free energy    TOTEN  =      -867.38030414 eV

  energy without entropy =     -867.16469183  energy(sigma->0) =     -867.27249798


--------------------------------------------------------------------------------------------------------




--------------------------------------- Iteration      1(   5)  ---------------------------------------


    POTLOK:  cpu time      2.1271: real time      2.1476
    SETDIJ:  cpu time      1.8971: real time      1.8981
    EDDIAG:  cpu time     41.5237: real time     41.5512
     EDDAV:  cpu time    212.4989: real time    212.6131
       DOS:  cpu time      0.0027: real time      0.0027
    CHARGE:  cpu time     23.8867: real time     23.9078
    MIXING:  cpu time      0.0434: real time      0.0434
    --------------------------------------------
      LOOP:  cpu time    281.9795: real time    282.1639

 eigenvalue-minimisations  :  2304
 total energy-change (2. order) : 0.4761161E+00  (-0.2118814E+00)
 number of electron     361.9999999 magnetization 
 augmentation part      -17.1434246 magnetization 

 Broyden mixing:
  rms(total) = 0.37466E+00    rms(broyden)= 0.78897E+01
  rms(prec ) = 0.51171E+00
  weight for this iteration     100.00
  WARNING: grid for Broyden might be to small

 eigenvalues of (default mixing * dielectric matrix)
  average eigenvalue GAMMA=   0.7419
  1.5469  0.6337  0.4894  0.2975

 Free energy of the ion-electron system (eV)
  ---------------------------------------------------
  alpha Z        PSCENC =        47.14944627
  Ewald energy   TEWEN  =     54929.78002075
  -Hartree energ DENC   =    -62479.55806516
  -exchange      EXHF   =         0.00000000
  -V(xc)+E(xc)   XCENC  =      -246.11875169
  PAW double counting   =     47007.83307652   -46220.93673829
  entropy T*S    EENTRO =        -0.19740061
  eigenvalues    EBANDS =     -2621.60045827
  atomic energy  EATOM  =      8716.74468240
  Solvation  Ediel_sol  =         0.00000000
  ---------------------------------------------------
  free energy    TOTEN  =      -866.90418808 eV

  energy without entropy =     -866.70678747  energy(sigma->0) =     -866.80548778


--------------------------------------------------------------------------------------------------------




--------------------------------------- Iteration      1(   6)  ---------------------------------------


    POTLOK:  cpu time      2.1334: real time      2.1553
    SETDIJ:  cpu time      1.9100: real time      1.9112
    EDDIAG:  cpu time     41.5249: real time     41.5520
     EDDAV:  cpu time    208.0968: real time    208.2128
       DOS:  cpu time      0.0044: real time      0.0044
    CHARGE:  cpu time     23.9425: real time     23.9618
    MIXING:  cpu time      0.0433: real time      0.0439
    --------------------------------------------
      LOOP:  cpu time    277.6553: real time    277.8415

 eigenvalue-minimisations  :  2224
 total energy-change (2. order) : 0.2471696E+00  (-0.9950058E-01)
 number of electron     361.9999999 magnetization 
 augmentation part      -17.1677197 magnetization 

 Broyden mixing:
  rms(total) = 0.11891E+00    rms(broyden)= 0.60106E+00
  rms(prec ) = 0.15662E+00
  weight for this iteration     100.00
  WARNING: grid for Broyden might be to small

 eigenvalues of (default mixing * dielectric matrix)
  average eigenvalue GAMMA=   0.8467
  2.1754  0.7048  0.6164  0.4249  0.3120

 Free energy of the ion-electron system (eV)
  ---------------------------------------------------
  alpha Z        PSCENC =        47.14944627
  Ewald energy   TEWEN  =     54929.78002075
  -Hartree energ DENC   =    -62481.03336210
  -exchange      EXHF   =         0.00000000
  -V(xc)+E(xc)   XCENC  =      -246.13605129
  PAW double counting   =     47628.60885494   -46841.69894320
  entropy T*S    EENTRO =        -0.22862865
  eigenvalues    EBANDS =     -2619.84303762
  atomic energy  EATOM  =      8716.74468240
  Solvation  Ediel_sol  =         0.00000000
  ---------------------------------------------------
  free energy    TOTEN  =      -866.65701851 eV

  energy without entropy =     -866.42838986  energy(sigma->0) =     -866.54270418


--------------------------------------------------------------------------------------------------------




--------------------------------------- Iteration      1(   7)  ---------------------------------------


    POTLOK:  cpu time      2.1330: real time      2.1560
    SETDIJ:  cpu time      1.9058: real time      1.9067
    EDDIAG:  cpu time     41.5024: real time     41.5279
     EDDAV:  cpu time    202.2150: real time    202.3281
       DOS:  cpu time      0.0021: real time      0.0021
    CHARGE:  cpu time     23.9819: real time     24.0019
    MIXING:  cpu time      0.0428: real time      0.0436
    --------------------------------------------
      LOOP:  cpu time    271.7830: real time    271.9663

 eigenvalue-minimisations  :  2112
 total energy-change (2. order) :-0.1884646E+00  (-0.2523309E-01)
 number of electron     361.9999999 magnetization 
 augmentation part      -17.1836719 magnetization 

 Broyden mixing:
  rms(total) = 0.68397E-01    rms(broyden)= 0.16560E+00
  rms(prec ) = 0.77200E-01
  weight for this iteration     100.00
  WARNING: grid for Broyden might be to small

 eigenvalues of (default mixing * dielectric matrix)
  average eigenvalue GAMMA=   0.8556
  2.4470  0.7124  0.6267  0.5310  0.5310  0.2857

 Free energy of the ion-electron system (eV)
  ---------------------------------------------------
  alpha Z        PSCENC =        47.14944627
  Ewald energy   TEWEN  =     54929.78002075
  -Hartree energ DENC   =    -62478.34170182
  -exchange      EXHF   =         0.00000000
  -V(xc)+E(xc)   XCENC  =      -246.15684881
  PAW double counting   =     47662.15911052   -46875.23540587
  entropy T*S    EENTRO =        -0.23532101
  eigenvalues    EBANDS =     -2622.70946554
  atomic energy  EATOM  =      8716.74468240
  Solvation  Ediel_sol  =         0.00000000
  ---------------------------------------------------
  free energy    TOTEN  =      -866.84548312 eV

  energy without entropy =     -866.61016211  energy(sigma->0) =     -866.72782261


--------------------------------------------------------------------------------------------------------




--------------------------------------- Iteration      1(   8)  ---------------------------------------


    POTLOK:  cpu time      2.1349: real time      2.1556
    SETDIJ:  cpu time      1.9867: real time      1.9875
    EDDIAG:  cpu time     41.5898: real time     41.6129
     EDDAV:  cpu time    204.3225: real time    204.4345
       DOS:  cpu time      0.0032: real time      0.0032
    CHARGE:  cpu time     23.9853: real time     24.0066
    MIXING:  cpu time      0.0446: real time      0.0446
    --------------------------------------------
      LOOP:  cpu time    274.0670: real time    274.2448

 eigenvalue-minimisations  :  2152
 total energy-change (2. order) :-0.4101757E-01  (-0.6222790E-02)
 number of electron     361.9999999 magnetization 
 augmentation part      -17.1870275 magnetization 

 Broyden mixing:
  rms(total) = 0.88654E-01    rms(broyden)= 0.21097E+00
  rms(prec ) = 0.97951E-01
  weight for this iteration     100.00
  WARNING: grid for Broyden might be to small

 eigenvalues of (default mixing * dielectric matrix)
  average eigenvalue GAMMA=   0.7998
  2.4816  0.6302  0.6302  0.6182  0.6182  0.3101  0.3101

 Free energy of the ion-electron system (eV)
  ---------------------------------------------------
  alpha Z        PSCENC =        47.14944627
  Ewald energy   TEWEN  =     54929.78002075
  -Hartree energ DENC   =    -62477.25624168
  -exchange      EXHF   =         0.00000000
  -V(xc)+E(xc)   XCENC  =      -246.21258150
  PAW double counting   =     47685.85684448   -46898.93210044
  entropy T*S    EENTRO =        -0.22975855
  eigenvalues    EBANDS =     -2623.78681241
  atomic energy  EATOM  =      8716.74468240
  Solvation  Ediel_sol  =         0.00000000
  ---------------------------------------------------
  free energy    TOTEN  =      -866.88650069 eV

  energy without entropy =     -866.65674214  energy(sigma->0) =     -866.77162141


--------------------------------------------------------------------------------------------------------




--------------------------------------- Iteration      1(   9)  ---------------------------------------


    POTLOK:  cpu time      2.1340: real time      2.1563
    SETDIJ:  cpu time      1.9062: real time      1.9074
    EDDIAG:  cpu time     41.5857: real time     41.6091
     EDDAV:  cpu time    210.1584: real time    210.2734
       DOS:  cpu time      0.0046: real time      0.0046
    CHARGE:  cpu time     23.9801: real time     24.0000
    MIXING:  cpu time      0.0671: real time      0.0678
    --------------------------------------------
      LOOP:  cpu time    279.8362: real time    280.0187

 eigenvalue-minimisations  :  2256
 total energy-change (2. order) :-0.1572727E-01  (-0.1955599E-02)
 number of electron     361.9999999 magnetization 
 augmentation part      -17.1750160 magnetization 

 Broyden mixing:
  rms(total) = 0.53213E-01    rms(broyden)= 0.49966E+00
  rms(prec ) = 0.65021E-01
  weight for this iteration     100.00
  WARNING: grid for Broyden might be to small

 eigenvalues of (default mixing * dielectric matrix)
  average eigenvalue GAMMA=   0.8157
  2.5584  0.8860  0.6691  0.6691  0.6255  0.2876  0.4151  0.4151

 Free energy of the ion-electron system (eV)
  ---------------------------------------------------
  alpha Z        PSCENC =        47.14944627
  Ewald energy   TEWEN  =     54929.78002075
  -Hartree energ DENC   =    -62476.88932559
  -exchange      EXHF   =         0.00000000
  -V(xc)+E(xc)   XCENC  =      -246.22754662
  PAW double counting   =     47711.85700708   -46924.93360715
  entropy T*S    EENTRO =        -0.21783186
  eigenvalues    EBANDS =     -2624.16507323
  atomic energy  EATOM  =      8716.74468240
  Solvation  Ediel_sol  =         0.00000000
  ---------------------------------------------------
  free energy    TOTEN  =      -866.90222796 eV

  energy without entropy =     -866.68439610  energy(sigma->0) =     -866.79331203


--------------------------------------------------------------------------------------------------------




--------------------------------------- Iteration      1(  10)  ---------------------------------------


    POTLOK:  cpu time      2.1461: real time      2.1574
    SETDIJ:  cpu time      1.9235: real time      1.9252
    EDDIAG:  cpu time     41.6061: real time     41.6311
     EDDAV:  cpu time    199.0763: real time    199.1809
       DOS:  cpu time      0.0099: real time      0.0103
    CHARGE:  cpu time     23.9927: real time     24.0129
    MIXING:  cpu time      0.0464: real time      0.0464
    --------------------------------------------
      LOOP:  cpu time    268.8009: real time    268.9640

 eigenvalue-minimisations  :  2056
 total energy-change (2. order) : 0.1001312E-01  (-0.1292531E-02)
 number of electron     361.9999999 magnetization 
 augmentation part      -17.1806078 magnetization 

 Broyden mixing:
  rms(total) = 0.24204E-01    rms(broyden)= 0.10968E+00
  rms(prec ) = 0.26310E-01
  weight for this iteration     100.00
  WARNING: grid for Broyden might be to small

 eigenvalues of (default mixing * dielectric matrix)
  average eigenvalue GAMMA=   0.8053
  2.5688  0.8188  0.8188  0.8497  0.6306  0.5340  0.2846  0.3710  0.3710

 Free energy of the ion-electron system (eV)
  ---------------------------------------------------
  alpha Z        PSCENC =        47.14944627
  Ewald energy   TEWEN  =     54929.78002075
  -Hartree energ DENC   =    -62475.81897023
  -exchange      EXHF   =         0.00000000
  -V(xc)+E(xc)   XCENC  =      -246.19865690
  PAW double counting   =     47665.65075252   -46878.72096328
  entropy T*S    EENTRO =        -0.22329827
  eigenvalues    EBANDS =     -2625.25522808
  atomic energy  EATOM  =      8716.74468240
  Solvation  Ediel_sol  =         0.00000000
  ---------------------------------------------------
  free energy    TOTEN  =      -866.89221484 eV

  energy without entropy =     -866.66891656  energy(sigma->0) =     -866.78056570


--------------------------------------------------------------------------------------------------------




--------------------------------------- Iteration      1(  11)  ---------------------------------------


    POTLOK:  cpu time      2.1326: real time      2.1559
    SETDIJ:  cpu time      1.9025: real time      1.9037
    EDDIAG:  cpu time     41.6274: real time     41.6527
     EDDAV:  cpu time    200.4701: real time    200.5750
       DOS:  cpu time      0.0026: real time      0.0026
    CHARGE:  cpu time     23.9795: real time     24.0007
    MIXING:  cpu time      0.0469: real time      0.0469
    --------------------------------------------
      LOOP:  cpu time    270.1617: real time    270.3375

 eigenvalue-minimisations  :  2080
 total energy-change (2. order) :-0.3341984E-02  (-0.6813781E-03)
 number of electron     361.9999999 magnetization 
 augmentation part      -17.1824807 magnetization 

 Broyden mixing:
  rms(total) = 0.40598E-01    rms(broyden)= 0.71349E-01
  rms(prec ) = 0.45116E-01
  weight for this iteration     100.00
  WARNING: grid for Broyden might be to small

 eigenvalues of (default mixing * dielectric matrix)
  average eigenvalue GAMMA=   0.8088
  2.5844  1.0697  0.7423  0.7423  0.6502  0.6502  0.6063  0.2851  0.3788  0.3788

 Free energy of the ion-electron system (eV)
  ---------------------------------------------------
  alpha Z        PSCENC =        47.14944627
  Ewald energy   TEWEN  =     54929.78002075
  -Hartree energ DENC   =    -62475.06855365
  -exchange      EXHF   =         0.00000000
  -V(xc)+E(xc)   XCENC  =      -246.07333778
  PAW double counting   =     47650.86862080   -46863.93110241
  entropy T*S    EENTRO =        -0.22598907
  eigenvalues    EBANDS =     -2626.13934413
  atomic energy  EATOM  =      8716.74468240
  Solvation  Ediel_sol  =         0.00000000
  ---------------------------------------------------
  free energy    TOTEN  =      -866.89555682 eV

  energy without entropy =     -866.66956775  energy(sigma->0) =     -866.78256228


--------------------------------------------------------------------------------------------------------




--------------------------------------- Iteration      1(  12)  ---------------------------------------


    POTLOK:  cpu time      2.1357: real time      2.1597
    SETDIJ:  cpu time      1.9086: real time      1.9103
    EDDIAG:  cpu time     41.5354: real time     41.5604
     EDDAV:  cpu time    201.2556: real time    201.3610
       DOS:  cpu time      0.0026: real time      0.0026
    CHARGE:  cpu time     23.9883: real time     24.0097
    MIXING:  cpu time      0.0478: real time      0.0478
    --------------------------------------------
      LOOP:  cpu time    270.8741: real time    271.0515

 eigenvalue-minimisations  :  2096
 total energy-change (2. order) :-0.2838380E-02  (-0.5047940E-03)
 number of electron     361.9999999 magnetization 
 augmentation part      -17.1770554 magnetization 

 Broyden mixing:
  rms(total) = 0.18664E-01    rms(broyden)= 0.31442E-01
  rms(prec ) = 0.22316E-01
  weight for this iteration     100.00
  WARNING: grid for Broyden might be to small

 eigenvalues of (default mixing * dielectric matrix)
  average eigenvalue GAMMA=   0.8481
  2.5884  1.3050  0.7782  0.7782  0.8289  0.8289  0.6082  0.5864  0.2850  0.3710
  0.3710

 Free energy of the ion-electron system (eV)
  ---------------------------------------------------
  alpha Z        PSCENC =        47.14944627
  Ewald energy   TEWEN  =     54929.78002075
  -Hartree energ DENC   =    -62473.93262393
  -exchange      EXHF   =         0.00000000
  -V(xc)+E(xc)   XCENC  =      -246.01039559
  PAW double counting   =     47657.19366335   -46870.25069026
  entropy T*S    EENTRO =        -0.22282192
  eigenvalues    EBANDS =     -2627.34967626
  atomic energy  EATOM  =      8716.74468240
  Solvation  Ediel_sol  =         0.00000000
  ---------------------------------------------------
  free energy    TOTEN  =      -866.89839520 eV

  energy without entropy =     -866.67557328  energy(sigma->0) =     -866.78698424


--------------------------------------------------------------------------------------------------------




--------------------------------------- Iteration      1(  13)  ---------------------------------------


    POTLOK:  cpu time      2.1336: real time      2.1558
    SETDIJ:  cpu time      1.9127: real time      1.9138
    EDDIAG:  cpu time     41.5733: real time     41.5992
     EDDAV:  cpu time    198.5223: real time    198.6251
       DOS:  cpu time      0.0021: real time      0.0021
    CHARGE:  cpu time     23.9874: real time     24.0082
    MIXING:  cpu time      0.0491: real time      0.0491
    --------------------------------------------
      LOOP:  cpu time    268.1806: real time    268.3535

 eigenvalue-minimisations  :  2048
 total energy-change (2. order) : 0.1046157E-02  (-0.3358883E-03)
 number of electron     361.9999999 magnetization 
 augmentation part      -17.1775415 magnetization 

 Broyden mixing:
[...]
   -.499E+01 0.169E+02 -.354E+03   0.659E+01 -.160E+02 0.355E+03   -.121E+01 -.116E+01 0.609E+00   0.846E-05 0.659E-05 0.531E-04
   -.632E+01 -.706E-01 -.178E+03   0.562E+01 -.347E+00 0.176E+03   0.111E+01 0.245E+00 0.190E+01   -.281E-04 0.257E-04 0.299E-04
   -.542E+00 0.141E+02 -.660E+02   0.107E+01 -.141E+02 0.659E+02   -.927E+00 -.268E+00 -.411E-01   0.350E-04 0.261E-04 0.346E-04
   -.119E+02 -.319E+02 0.187E+03   0.167E+02 0.297E+02 -.189E+03   -.349E+01 0.248E+01 0.394E+00   -.197E-03 -.969E-04 0.303E-04
   0.378E+01 0.363E+01 0.100E+03   -.556E+01 -.591E+01 -.101E+03   0.205E+01 0.294E+01 0.113E+01   0.612E-04 0.194E-04 0.696E-05
   -.366E+01 0.319E+02 -.689E+02   0.274E+01 -.298E+02 0.702E+02   0.106E+01 -.281E+01 -.272E+00   0.230E-04 0.209E-04 0.290E-04
   0.918E+01 0.227E+02 0.286E+03   -.792E+01 -.217E+02 -.284E+03   -.210E+01 -.170E+01 -.164E+01   -.528E-04 0.407E-04 -.337E-04
   -.902E+01 -.188E+01 0.223E+02   0.966E+01 0.822E+00 -.235E+02   -.377E+00 0.149E+01 0.119E+01   -.194E-04 0.179E-04 -.572E-05
   0.335E+02 0.102E+02 -.241E+03   -.330E+02 -.104E+02 0.239E+03   -.562E+00 -.850E-01 0.197E+01   0.234E-04 0.306E-04 0.240E-04
   -.123E+01 0.205E+02 -.330E+03   0.150E+01 -.208E+02 0.330E+03   0.166E+00 -.802E+00 0.689E+00   0.407E-05 -.328E-04 0.444E-04
 -----------------------------------------------------------------------------------------------
   -.199E+02 -.820E+00 -.723E+01   -.799E-13 -.959E-13 0.000E+00   0.199E+02 0.811E+00 0.725E+01   0.367E-04 0.496E-04 0.243E-02


 POSITION                                       TOTAL-FORCE (eV/Angst)
 -----------------------------------------------------------------------------------
      3.63556      5.75470     11.47020         0.004649      0.014362     -0.350783
      6.28836      8.94134     13.70374         0.435955      0.186634      0.028391
      4.96371     12.01610     12.43976         0.088961      0.001884      0.093896
      5.17443      9.45300     11.94102        -1.014296      0.316769      1.088957
      8.21783      2.39374     16.16687        -0.318502     -0.510421      0.457423
      4.91744      7.71751     10.74285         0.183525      0.081899      0.004867
      6.01645      6.40856     14.58917         0.206703     -0.069847     -0.264610
      2.60868      5.49307     13.43766        -0.037075     -0.074984      0.508733
      8.48258      8.80555     14.55897         0.108230     -0.179699     -0.201991
      3.96003      9.22019     15.19822        -0.729013      0.047503     -0.050100
      3.88789      6.41589     15.01713        -0.176273      0.050473     -1.073703
      9.79557      6.63747     13.29721        -0.244546      0.088279     -0.262606
     10.71180      9.44732     15.51258         0.315762     -0.346724     -0.166784
      9.38534      6.73060     15.66799        -0.341089      1.359180     -0.005972
      8.12697      5.60052     13.95792         0.421727     -0.022109     -0.017874
     11.48220      7.68024     11.66555         0.517619      1.315648     -0.420006
      3.43159      8.42007     17.64979         0.376771     -0.128169      0.434116
      0.95325      9.53577     12.17178        -0.253753     -0.422163     -0.186034
      7.41466      7.02229     16.76452         0.323833      0.208074      0.736550
      0.59598      6.97306     13.48443         0.521328     -0.572533      0.491077
      4.81207      7.07335     12.68831        -0.059894      0.210332     -0.108895
      6.34487      8.87679     15.77476        -0.063446     -0.043045     -0.382685
     11.23560      6.03552     14.39629         0.159231     -0.125156     -0.018242
      1.08256      6.66288     13.99961        -0.674235      0.261267     -0.477302
      9.54258      6.76951     12.60460        -0.040311      0.032639      0.051169
      2.54560      4.57291     15.49596         0.492311      0.092014     -0.191665
     14.07230      8.09110     11.89932         0.494565      0.052267      0.895979
      7.96969      5.26643     11.77012        -0.078549     -0.283245      0.524451
      7.13955      6.72442     16.16229        -0.254803     -0.374285     -0.593109
      2.01641      7.98887     15.12162        -0.194111      0.353524      0.025382
      0.39967      8.56668     14.08235        -1.969947      0.292870     -0.490572
      9.14566      7.50096     15.73292         0.630254     -1.579533     -0.249064
      4.70039     10.64550     14.84294         0.184252      0.353764     -0.319667
     13.05660      6.71646     12.87729        -0.389428      0.055608      1.174929
     14.20370      8.61988     13.79992         1.643561      0.062070      0.650891
     10.41840      8.88986     13.16447         0.070211     -0.173763      0.115466
      7.27375      7.08268     12.68413        -0.674981     -0.448271     -0.060125
      4.80463      9.67718     12.61346         0.514681     -0.257610     -1.306583
      2.01484      9.57042     10.67051        -0.058372      0.308020      0.037961
      0.72154      5.85153     15.64819         0.079456      0.425042     -0.096331
     13.50160      6.25526     15.25984        -0.051781     -0.247350      0.068462
      2.70352      7.76071     12.31935        -0.293409     -0.652507      0.143877
      0.12631      4.72034     13.90893        -0.392381      0.580282      0.175132
     10.72220      8.27521     13.49609        -0.341097      0.545088     -0.220162
     12.25550      5.12749     11.12360         0.748192      0.443223      0.256515
     11.22710      7.02207     11.72458        -0.487011     -1.350545     -0.192570
      2.71038     12.05610     11.26503        -0.273987     -1.286886      0.036010
      5.98838      3.97578     12.42439         0.095174      0.660440     -0.207686
     11.53250      7.02813     17.93494         1.775684     -0.340410      0.462405
     13.85010      9.73889     16.83273        -0.909754     -1.746495      0.273127
      5.39125     11.82550     15.43961        -0.377786      0.616424     -0.644451
      8.75334      5.56307     10.56506        -0.433969      0.623298     -0.842706
      3.63073      1.12449     11.50860         0.085762     -0.624849      1.005185
      2.67263     14.20060     16.22511        -0.913799     -0.223241     -0.826919
     11.83470      3.83774     11.70868         0.192225      0.252594     -0.742563
     13.91280      2.04983     15.30337         0.435546      0.489006      0.765073
      9.36220      4.13413     18.07216         1.200872      0.272512      1.540988
     13.90340      7.61086     17.91648        -1.860515      0.922997     -0.680020
      2.75168      3.26630     14.74325        -1.036430      0.604218      0.977247
     10.80230      1.13800     15.86153         0.150217     -0.483957      0.443854
      6.96580     10.98730     10.13997         0.482405     -0.340315     -0.419613
     10.46800      0.36077     11.64819         0.694564      1.982617     -0.263251
      0.33791     13.71560     12.74489         0.933381     -0.459230      0.192092
      8.97984      2.13092     11.04455         0.209176     -0.772256     -0.667428
     11.94810     14.27690     17.43595        -0.264433      0.434214     -0.774235
      8.39551      9.37474     17.99388         1.003579     -0.015105      0.669187
      1.74022     10.46110     12.98449         1.133919      0.506847     -0.558938
     12.26890      9.04046     15.12660         0.796726      0.710477      0.528274
      5.79119      3.80185     10.05458         0.026937     -0.339070     -0.013765
      8.08447      3.88567     16.28716        -1.354316      0.103681     -0.076093
      8.96678      4.43128     14.33289        -0.245291      0.185803     -1.215700
     13.69130     11.54520     10.00000         0.183733      0.247427      0.166954
      2.46698      9.42229     15.00169         0.582640     -0.632296     -0.188430
     12.53920     10.77740     13.59753         0.410045      0.388769     -0.544371
      5.81345      4.33101     16.79334         0.794183     -1.933503     -0.515319
      6.01014      6.33239     13.07919         0.730303     -0.403104      0.446306
      6.15111     12.54710     11.70731        -1.108130     -0.624098     -1.048108
     11.40680      4.81870     17.33611        -0.121371     -0.199721      0.228139
      8.23591      9.49317     11.41630         0.815281      0.321062     -1.700169
     12.55180      6.86051     14.33439         0.402203     -0.108457     -0.776253
      2.70136     13.86980     12.76399         0.084344      0.513788     -0.078078
      6.18518      9.29059     17.17900         0.394835      0.407310     -0.277603
      2.93226      1.95833     16.57950        -0.321167     -0.323557      1.018014
      5.19960     11.34530     17.67461        -0.085762      0.195043      0.786631
      6.91013      1.64703     10.05120        -0.356218      0.316878      0.621890
      0.85909      5.49778     10.74314        -0.497958     -0.124654      0.311008
      7.54378     11.63790     14.59305        -0.072864     -0.697044     -0.008230
      4.73490      7.62566     17.87779        -1.414416     -0.272972      0.078574
      4.30387      5.93798     16.29972         0.000554      0.316348      0.899673
     14.10690      0.18184     16.80871        -0.009395     -0.816633     -0.127596
      1.33184     10.67430     16.64455        -0.044924      0.722541     -0.090539
      4.20335      2.70843     13.22878         1.934534     -0.768196     -1.508879
      0.08197     11.73260     13.89931        -0.828306      0.218490     -0.075080
     10.19700      3.85508     10.13544        -0.214017     -0.472761     -0.489128
      7.66649      9.49948     13.53076        -0.613349      0.074939      2.174663
     12.38230     10.17350     11.24085         0.087959     -0.074171      0.102085
     14.21430      7.47206     10.58809        -0.011304      0.342255     -1.394530
     10.56490      8.88816     17.09752        -1.300916      1.273061      0.686734
      0.68574      3.38614     13.83947        -0.597477     -0.647013     -0.694602
     13.59790      0.84126     13.28333        -1.088880      1.054831      0.064819
      7.97867      2.80337     12.99664        -0.210478      0.576566     -0.002542
      5.30845      2.04996     16.56757        -0.708151      1.436627      0.728038
      5.56084     14.56475     10.82927        -0.129168      1.009451     -0.355619
      0.61633      5.90401     17.12599         0.371466     -0.966692      0.061209
      2.29011      2.13740     10.03998         0.388397      0.007458     -1.393527
      0.61984     12.81590     15.85816         1.208517      1.296627      1.233777
     11.04120     12.50860     13.84765        -0.780500     -0.410338      0.791001
      0.69686     13.07180     10.57783        -0.211327     -0.418463     -0.459739
      0.86626      3.25350     11.36858         0.102719      0.837201      0.413349
      9.37221     12.48520     15.68153         0.456582      0.794799     -0.336005
     11.21880      4.29394     13.84227        -0.649995      0.213240      0.732359
     10.15690     10.84770     10.94539        -0.765410     -0.701675     -0.043119
      0.01127      3.55133     17.42396         0.114509     -0.219814     -0.214647
      9.76603     12.87310     11.87340         0.026104     -1.244780     -0.082915
      7.60190      0.76213     13.94342         0.407968     -0.303321     -0.100583
      2.73845      5.29427     17.84617         0.283491     -0.244409      0.635871
     11.88010      3.19163     15.73477         0.465939     -0.171996     -0.008154
      5.46199      1.17213     14.48196        -0.451828     -0.368911     -0.161052
      2.44367      6.26964     12.21045         1.138503      0.373269     -0.950867
      7.81323     13.23690     12.97028         0.369019      0.793948      0.594849
      4.22904     13.79270     14.51768         0.157551     -0.779139      1.017594
     13.43360      2.22031     11.41295        -0.925184     -0.707468      0.287075
     11.41010      0.17944     13.77216         0.243252      0.475736     -0.040868
      8.68930      0.25816     15.88406         0.019954     -0.246711      0.178134
     10.82160     12.27850     17.44686         0.414555     -0.935831      0.190935
 -----------------------------------------------------------------------------------
    total drift:                               -0.002300     -0.009767      0.020468


--------------------------------------------------------------------------------------------------------



  FREE ENERGIE OF THE ION-ELECTRON SYSTEM (eV)
  ---------------------------------------------------
  free  energy   TOTEN  =      -866.89841362 eV

  energy  without entropy=     -866.67474847  energy(sigma->0) =     -866.78658104



--------------------------------------------------------------------------------------------------------


    POTLOK:  cpu time      4.0476: real time      4.0530


--------------------------------------------------------------------------------------------------------


     LOOP+:  cpu time   7996.0459: real time   8001.2369
    4ORBIT:  cpu time      0.0000: real time      0.0000



 total charge

# of ion       s       p       d       tot
------------------------------------------
    1        0.574   0.016   0.000   0.590
    2        0.569   0.017   0.000   0.586
    3        0.558   0.018   0.000   0.576
    4        0.569   0.027   0.000   0.596
    5        0.560   0.019   0.000   0.579
    6        0.386   0.001   0.000   0.387
    7        0.578   0.015   0.000   0.593
    8        0.593   0.018   0.000   0.611
    9        0.580   0.016   0.000   0.596
   10        0.556   0.017   0.000   0.573
   11        0.596   0.020   0.000   0.616
   12        0.618   0.034   0.000   0.652
   13        0.547   0.021   0.000   0.569
   14        0.576   0.025   0.000   0.601
   15        0.573   0.018   0.000   0.591
   16        0.643   0.041   0.000   0.684
   17        0.545   0.014   0.000   0.559
   18        0.569   0.020   0.000   0.589
   19        0.633   0.037   0.000   0.670
   20        0.600   0.033   0.000   0.633
   21        0.577   0.019   0.000   0.596
   22        0.572   0.018   0.000   0.590
   23        0.564   0.021   0.000   0.585
   24        0.597   0.034   0.000   0.631
   25        0.612   0.035   0.000   0.647
   26        0.546   0.019   0.000   0.565
   27        0.588   0.020   0.000   0.608
   28        0.582   0.021   0.000   0.603
   29        0.625   0.038   0.000   0.663
   30        0.565   0.015   0.000   0.580
   31        0.552   0.029   0.000   0.581
   32        0.565   0.028   0.000   0.593
   33        0.562   0.019   0.000   0.582
   34        0.542   0.016   0.000   0.558
   35        0.576   0.026   0.000   0.601
   36        0.599   0.033   0.000   0.632
   37        0.563   0.015   0.000   0.579
   38        0.582   0.025   0.000   0.607
   39        0.372   0.002   0.000   0.375
   40        0.566   0.018   0.000   0.584
   41        0.582   0.020   0.000   0.602
   42        0.556   0.015   0.000   0.570
   43        0.584   0.019   0.000   0.603
   44        0.611   0.033   0.000   0.645
   45        0.567   0.017   0.000   0.584
   46        0.645   0.040   0.000   0.685
   47        0.825   0.778   0.000   1.603
   48        0.755   0.918   0.000   1.672
   49        0.779   0.873   0.000   1.651
   50        0.777   0.851   0.000   1.628
   51        0.754   0.972   0.000   1.726
   52        0.838   0.794   0.000   1.632
   53        0.757   0.937   0.000   1.694
   54        0.814   0.798   0.000   1.612
   55        0.752   1.002   0.000   1.754
   56        0.749   0.913   0.000   1.662
   57        0.864   0.793   0.000   1.657
   58        0.787   0.840   0.000   1.627
   59        0.765   1.012   0.000   1.777
   60        0.761   0.922   0.000   1.683
   61        0.873   0.725   0.000   1.598
   62        0.794   0.884   0.000   1.678
   63        0.777   0.947   0.000   1.724
   64        0.764   0.930   0.000   1.694
   65        0.794   0.870   0.000   1.663
   66        0.865   0.723   0.000   1.588
   67        0.770   0.934   0.000   1.704
   68        0.772   0.867   0.000   1.640
   69        0.864   0.706   0.000   1.570
   70        0.764   1.014   0.000   1.778
   71        0.755   1.022   0.000   1.777
   72        0.836   0.784   0.000   1.620
   73        0.746   0.954   0.000   1.700
   74        0.763   0.937   0.000   1.699
   75        0.773   0.885   0.000   1.659
   76        0.746   0.970   0.000   1.716
   77        0.761   1.003   0.000   1.764
   78        0.777   0.891   0.000   1.668
   79        0.785   0.895   0.000   1.679
   80        0.753   0.973   0.000   1.727
   81        0.770   0.904   0.000   1.674
   82        0.758   0.976   0.000   1.734
   83        0.787   0.863   0.000   1.650
   84        0.873   0.750   0.000   1.623
   85        0.785   0.866   0.000   1.652
   86        0.794   0.888   0.000   1.683
   87        0.763   0.964   0.000   1.728
   88        0.790   0.868   0.000   1.659
   89        0.759   0.979   0.000   1.738
   90        0.805   0.808   0.000   1.613
   91        0.804   0.851   0.000   1.655
   92        0.768   0.973   0.000   1.741
   93        0.768   0.958   0.000   1.726
   94        0.813   0.903   0.000   1.716
   95        0.752   1.007   0.000   1.759
   96        0.801   0.845   0.000   1.646
   97        0.854   0.759   0.000   1.614
   98        0.808   0.790   0.000   1.599
   99        0.766   0.941   0.000   1.707
  100        0.774   0.947   0.000   1.720
  101        0.765   0.955   0.000   1.720
  102        0.798   0.859   0.000   1.657
  103        0.779   0.904   0.000   1.683
  104        0.746   0.976   0.000   1.722
  105        0.865   0.787   0.000   1.652
  106        0.760   0.879   0.000   1.639
  107        0.769   0.921   0.000   1.690
  108        0.803   0.874   0.000   1.677
  109        0.769   0.938   0.000   1.706
  110        0.764   0.907   0.000   1.671
  111        0.792   0.897   0.000   1.689
  112        0.783   0.852   0.000   1.635
  113        0.901   0.631   0.000   1.532
  114        0.767   0.990   0.000   1.757
  115        0.756   1.009   0.000   1.765
  116        0.837   0.773   0.000   1.610
  117        0.757   0.939   0.000   1.696
  118        0.773   0.967   0.000   1.740
  119        0.742   1.002   0.000   1.744
  120        0.767   1.005   0.000   1.771
  121        0.761   0.938   0.000   1.699
  122        0.797   0.888   0.000   1.685
  123        0.768   0.933   0.000   1.701
  124        0.811   0.852   0.000   1.664
  125        0.841   0.764   0.000   1.605
--------------------------------------------------
tot         88.452  71.616   0.000 160.068


 total amount of memory used by VASP MPI-rank0   381356. kBytes
=======================================================================

   base                                    :      30000. kBytes
   nonl-proj                               :      88482. kBytes
   fftplans                                :     108864. kBytes
   grid                                    :      83991. kBytes
   one-center                              :         24. kBytes
   wavefun                                 :      69995. kBytes

  
  
 General timing and accounting informations for this job:
 ========================================================
  
                  Total CPU time used (sec):     8149.672
                            User time (sec):     7263.657
                          System time (sec):      886.016
                         Elapsed time (sec):     8154.919
  
                   Maximum memory used (kb):      654120.
                   Average memory used (kb):          N/A
  
                          Minor page faults:     11448280
                          Major page faults:         1205
                 Voluntary context switches:         4012
