LAMMPS data file via write_data, version 2 Apr 2025, timestep = 6110000, units = metal

1000 atoms
2 atom types

-0.4779849367771831 26.46927025446228 xlo xhi
-0.4779849367771831 26.46927025446228 ylo yhi
-0.4779849367771831 26.46927025446228 zlo zhi

Atom Type Labels

1 H
2 Si

Masses

1 1.00784
2 28.0855

Atoms # atomic

791 2 0.5751026909313006 2.7332018820593555 0.53732876479924 0 0 0
981 2 2.804091754550149 1.6424360971213732 0.9874140767093074 1 1 0
83 1 1.0826523546728992 0.9519857214161407 3.457660587094523 0 0 1
714 2 2.74112790296494 3.794206911661391 4.443725305627392 0 0 1
247 2 11.994371046881131 12.069844334759294 1.8320545003049946 0 0 1
934 2 3.7697674080896126 2.6006037649396236 2.704388442444212 0 1 0
129 2 6.922642173146292 0.6776771710980851 1.7329874580589415 0 0 1
567 2 5.651076373047718 1.6561522461586868 3.518515582233791 0 0 0
975 2 6.349283127263031 3.484033176523684 4.925890646408033 0 0 1
867 2 5.742353109104524 0.1530832157601213 5.50907787818952 0 1 0
193 2 8.433616850267864 2.261829055566991 1.3022869482750257 0 1 0
671 2 5.016747045283176 8.953990470200848 6.198585562709497 0 0 0
929 2 11.633659884429663 -0.22145999544064549 5.315282074109985 0 1 0
566 2 9.530358855461207 2.3783985347537344 3.379725842573404 0 0 0
112 2 12.097669144968258 2.7416866380324096 0.486643031737538 0 0 0
187 2 9.462738269850645 0.2525981888954102 4.477787224046089 0 0 1
656 2 11.360195414802025 3.6260212456890706 2.6500958572405833 0 0 0
560 2 12.665789600816998 3.5057902348166405 4.602513814328249 0 1 1
470 2 9.79975088696438 9.229981511093607 3.4858059731938082 0 0 0
281 2 3.3930561528580006 7.412402063855638 -0.2610735776982806 1 0 0
268 2 1.0342043099786014 4.8823321919597324 0.03089633686904636 1 0 0
489 2 0.713153765318383 4.940538802764416 3.9146326656956427 1 0 0
516 2 1.2240287465593669 6.1256827540403815 1.9140448713188825 0 0 0
890 2 3.1124337983695805 7.4572718667562325 2.100033003975665 0 0 0
218 2 0.6359369881650119 6.880455168685128 5.305837068370901 0 0 1
346 2 0.19743701863975993 8.64787213084116 4.032011384611316 1 0 1
826 2 10.633232320329192 12.717480918619609 3.6566199794967655 0 0 0
338 2 12.965659265927865 10.112412386794524 4.691787364957947 0 0 0
490 2 7.145228087704619 4.111100602011209 0.849215746873017 0 0 1
468 2 4.721214712056154 4.3825086525563774 1.2850473082285898 1 1 1
598 2 4.736284435412029 5.192459007494722 4.660998689929207 0 0 0
565 2 5.020796653245352 6.358292117901718 2.6138581212056886 1 0 0
364 2 7.191481628162467 7.402900204674689 2.1195847721340892 0 0 0
931 2 8.264774719831026 8.037697236469805 0.11172882526114591 0 0 0
673 2 8.317948312628753 5.480127824039216 2.448729690310685 0 0 1
886 2 8.49866716906463 4.304998616235356 4.410659245427228 0 1 0
936 2 10.87969931046193 7.188239254724987 3.9745442390646337 0 0 1
815 2 10.486672591119088 5.789415879744549 2.106563098752238 0 0 0
212 2 9.852041737240446 5.73323785415717 5.711884384720099 0 0 1
150 2 10.499527630852395 7.139341539553178 0.14571335764648485 0 1 0
705 2 1.3389630672053057 12.763327771378352 3.433183774147573 1 0 1
640 2 3.224913295332141 11.351854048741446 0.1161596688121358 1 0 0
283 2 2.4241639235767662 9.37078703959564 3.449923854529395 0 0 0
896 2 1.6595808574304027 10.917537037498027 1.901147885092843 1 0 0
362 2 0.299270299998724 9.854582953740126 0.532234565777089 0 0 0
785 2 3.1626764841932573 10.32611195856932 5.432889683756845 0 0 0
540 2 3.115725298591149 12.548657253825384 4.81154463487658 0 0 0
167 2 7.2757436563626925 9.005967579104665 5.9340261617478065 0 0 0
970 2 5.526216074843743 11.684543076882179 0.8670754176006443 0 0 1
823 2 7.653314865221487 9.086388266454799 3.5997370145413106 0 0 1
667 2 7.607205896251639 11.184907313302292 2.2865074518334025 1 0 0
186 2 10.763941654950521 10.677343855171836 4.899744433646989 0 0 0
118 2 12.234059124835456 8.751642183010567 0.43855103715784294 0 0 0
725 2 8.890531973938183 10.284857534155888 0.4954805248355669 0 0 0
816 2 11.97125681813728 12.926997452840988 -0.3337237290948702 0 0 1
453 2 10.874872970174268 10.081133299003431 1.6221067298382659 0 0 1
325 2 -0.31456922694059886 0.8890789491206841 3.6025234671182496 1 1 1
630 2 9.949092682710283 1.9484885166359684 -0.36692824891450615 0 1 0
126 2 -0.47580915702105386 7.933394005986674 1.7234764852648556 0 0 0
610 2 1.7302749352491946 1.2400508506442633 11.0402466716658 1 0 0
226 2 1.2391282220045916 -0.013912672593039521 8.994629087921787 0 0 0
42 1 1.2291644932730164 2.7016745094402204 10.927645145647116 0 -1 -1
353 2 1.0139437800087077 0.6167000341545419 6.600517285648094 1 0 0
227 2 2.647044909831369 2.5846259534150695 6.434992640599655 1 0 1
284 2 -0.47166006304717906 11.631493820976607 11.442606148222406 0 0 0
710 2 9.48246290210022 11.254332006154199 10.986069110237596 0 0 0
968 2 8.183389577268255 2.5031573803524507 12.677721047762915 0 1 0
506 2 4.159711999178756 1.3615597257768788 11.341246990802023 0 0 0
907 2 4.658742366540988 1.6600818729476732 6.97597503059893 0 0 0
961 2 4.931070873642202 0.5984100031427124 9.159070895744243 0 1 0
301 2 7.228239411275026 1.0281001079976302 9.559466938197138 0 0 0
958 2 7.25093315623023 3.1385138150270473 10.662255050194464 0 1 0
647 2 6.313531563810176 3.275318468851933 7.235340657793236 0 0 0
213 2 4.9945528609091445 3.6283795092051605 11.305492958433076 0 0 0
901 2 8.178969150782322 1.9066236229671225 7.636212134267618 0 0 0
80 1 -0.2301560146138698 2.8147602777441287 9.395714637052885 1 1 0
617 2 9.957173834785701 9.106477024099714 10.194729834279814 0 0 0
893 2 12.080707216895583 1.8948823658074465 11.833563116495057 0 0 0
964 2 10.260891232028392 2.9986456597370403 8.383672079784017 0 0 0
408 2 11.546338069877592 1.2624294022739764 9.503849440427377 0 1 0
120 2 11.344997343212052 12.39960445786256 8.004421756142492 0 0 0
34 1 11.428866630745972 -0.1602405970336403 6.829477440867525 -2 0 0
820 2 0.07035308081354785 4.10495247604541 8.86010991788342 1 0 1
774 2 -0.3679439607776084 5.742046670340666 10.344501006310312 1 0 0
635 2 2.11451718336177 4.184734232823609 7.960945938054811 1 0 0
191 2 1.2036057054979532 6.595052623073698 12.048064027176714 0 0 0
753 2 2.1847279911181707 6.428743061049156 7.010552905854651 0 1 0
531 2 3.2900964216016013 6.651198868937077 10.913832839277923 0 0 0
558 2 4.4611446487386095 6.736788446077779 6.346851987253702 0 0 0
871 2 3.9688648966290616 4.9407159327433225 9.546307255221727 0 0 0
342 2 5.6979053989925905 5.453957110909659 7.964136245956274 0 0 0
631 2 7.786161969676705 6.154542812250986 8.791809548214818 0 1 1
813 2 7.738746464566381 8.032560387302691 10.209899452357385 0 0 0
454 2 6.728607065089994 7.912561904125747 12.382537742792255 1 0 0
270 2 10.690283063421099 8.564533532936702 7.981341828172782 0 0 0
513 2 11.683813960889571 4.309324362603104 6.701868193112933 0 0 0
377 2 8.87593668026673 7.397195684634763 6.938721457572836 0 0 0
604 2 8.936938234929304 4.504408098552994 9.861492532369295 0 0 0
299 2 9.992805300519613 5.1986467999453 11.79144161201598 0 0 0
113 2 12.10209966450683 5.66349572976123 11.303180487183669 0 0 0
980 2 11.816042830340791 8.113209504246239 11.101082008173355 0 1 0
496 2 1.6102345837435008 8.323643381035748 8.219412918835145 1 0 1
332 2 0.6647242593397937 8.858667247777849 12.327154690567859 1 0 0
554 2 3.380969165405336 8.7998513558912 9.800752380117268 0 0 0
681 2 1.416253695889631 12.087441902929283 10.306801208515713 0 0 0
870 2 1.146477313673795 12.209605629552565 8.070662784051521 0 0 0
199 2 2.4706596365999203 10.19069972209187 11.436034733678309 1 0 0
448 2 1.212089092635865 10.215901153493666 6.884966172364041 0 0 1
833 2 10.243848755557188 10.608179540341208 7.14917353650935 0 0 0
141 2 5.058090962232633 12.274199016464344 8.245975835330613 1 0 1
204 2 7.976507591530478 10.781521133477257 7.3361955981946805 0 0 0
351 2 4.931947190561527 9.992679362310069 8.494082809091402 1 0 0
242 2 7.105995594349813 11.523001883085247 11.337439404384206 0 0 0
300 2 7.054683314769152 10.129304695038526 9.29873318693195 0 0 0
771 2 1.097663389175841 -0.29867554389627093 12.542366040315509 0 1 0
90 1 0.695500445702242 5.0626540916354985 11.660267078665436 -1 1 0
363 2 4.668503453513225 6.883002724164762 12.987289500238271 1 0 0
726 2 10.442309506056315 3.2396135815848246 12.862172388595365 0 0 0
844 2 7.940262495448531 0.07025080065162181 6.280436067694803 0 0 1
517 2 3.0762375642119317 0.9031635762570622 18.564394550295173 0 0 0
908 2 1.0004176264868765 1.6735953204061254 17.880494296372305 1 1 0
780 2 1.3978926790659376 2.2614786503925934 15.623866952474877 0 0 0
974 2 3.642032991517927 3.3754550742450142 15.217236851049826 0 0 0
261 2 1.068377750394114 -0.041740674581766946 14.888293472657285 1 0 -1
273 2 4.220792623741325 -0.1697915237936789 16.850080625384003 0 1 0
348 2 4.933185444643176 1.5038138594892678 15.463546296446253 0 0 0
769 2 6.569531509573436 2.263570338301478 16.96308195314051 0 0 -1
142 2 7.5895523453974345 0.42689435004030807 17.82532817302151 0 1 -1
449 2 5.3862552156845505 3.448773384915082 18.58709158722574 0 0 0
97 1 8.25030977810782 0.45236570458452596 19.361695382789065 -1 0 -1
267 2 8.01695449662643 4.01498172304168 16.097074672720765 0 1 -1
501 2 5.1752855228659005 0.4570091539615819 13.343864625745654 0 1 0
396 2 12.574157330872888 0.929264234030174 15.151278003463792 0 0 0
36 1 8.289393449374346 2.4965784817456638 18.89068336267721 0 1 1
289 2 10.917555412594256 1.629145226172073 16.47254545988297 0 0 0
136 2 11.92436811025024 2.479884199274963 18.501875940326183 0 1 0
790 2 10.26553142292802 3.516277963381728 15.350210608755624 0 0 0
571 2 12.395167316028008 12.792312446791204 19.345335888135736 0 0 0
797 2 9.454750595499815 -0.2065779533604719 16.53446800002056 0 0 0
22 1 1.0352810263033267 4.447154255188437 17.976518267868894 1 0 0
279 2 10.692221005730312 4.126539296473832 19.563862218721408 0 0 0
923 2 1.7297352416595015 6.944298911967287 19.32467324703599 0 0 0
260 2 1.9009830565639279 5.492402274557263 17.580217253939825 0 0 0
92 1 1.0467982321512783 6.239388545327607 16.553854854316985 0 0 1
62 1 2.597357759530434 6.911914927995611 15.222838025650505 0 0 1
960 2 3.896972334745361 7.621155570801298 15.177465852112412 0 0 0
984 2 3.896320167718274 7.923198489534128 19.470219960568084 0 0 0
658 2 4.120168132650024 4.857117498980088 17.072513657230747 0 0 0
139 2 6.27670623667158 10.218066129734318 13.031132290487989 0 0 0
994 2 -0.35078776595786987 8.183307635857648 19.382157939685833 1 0 -1
544 2 7.051898577802603 4.89593333007564 19.48086838726449 0 0 0
682 2 4.966517907273484 4.623883124472567 13.297438888857206 1 0 0
177 2 7.251182827911036 4.395063628876229 13.968348745698938 0 0 0
225 2 4.730044562686713 7.033898866909103 17.31247380108667 0 0 -1
798 2 6.985262683652495 7.793527698062899 16.85452278187091 0 0 0
677 2 8.055920350604865 5.812220581023695 17.572816762752815 0 0 0
763 2 8.50448808332388 6.4912165550640735 13.384714092070357 0 0 0
572 2 11.995630058915813 8.285227050753047 13.37730795505979 0 0 0
44 1 1.1195617474414798 6.2638662183255365 13.560634054781774 0 1 1
645 2 10.15902788461512 6.141582018782388 18.363200106502138 0 0 0
211 2 12.161500296091758 4.802743217139844 15.626803196388416 0 0 0
583 2 11.471528872099842 6.816538201879013 16.438066811452504 0 0 0
272 2 10.104617941587358 7.858107814814758 14.72689889124726 0 0 0
145 2 0.2893207482983665 12.148667281202139 13.580808526076693 0 0 0
904 2 0.9630654310142837 10.113716400344869 14.357187343639813 0 0 0
933 2 0.7675271441661897 11.633525045819415 17.84292384685703 0 0 0
773 2 2.710014802885499 11.600572039088187 16.41746548963401 0 0 0
788 2 3.1838895754952663 9.89883935652096 14.936834376750681 1 0 0
53 1 -0.3451460364151132 4.890687050408951 15.210420316496576 0 0 -1
162 2 8.191640572885508 12.93177199119468 18.286702065670564 0 0 0
361 2 7.8668277150219055 9.037879257412131 18.769546100213702 0 0 0
306 2 6.446855937679718 11.97892801823597 16.808767251996972 0 0 0
767 2 7.075459683737194 10.10060692592484 15.379062796377914 0 0 0
891 2 4.412715235939883 11.810401798124442 18.028890975002227 0 0 0
91 1 10.842003671785132 9.371128193710552 17.805092764868892 -1 1 1
311 2 10.581298787522911 12.664267885814139 17.71910139118622 0 0 0
533 2 10.839188713964267 10.525174010289602 16.922619853949758 0 0 0
166 2 10.170916784921996 11.460351643577802 13.313433227075311 0 0 0
971 2 12.326153664108924 10.432244846247187 13.831835895844446 0 0 0
180 2 9.316453896878397 10.142646127801843 15.154464221222074 0 1 0
475 2 7.432451057537061 0.37136630477074273 13.098026373607237 0 1 0
103 2 -0.4242781181407126 3.4993146369666888 14.824465250018648 0 0 0
694 2 12.148219098952875 -0.09508048801066415 13.178408488195128 0 0 0
85 1 -0.44053179181733326 3.3815482882786765 13.302774601919959 1 0 1
374 2 3.985338131673105 10.962964689932573 13.083318471417478 0 1 0
594 2 2.8688017301575033 1.0518656716177905 23.907649663555578 0 0 -1
123 2 1.991712293374019 3.167995002121079 23.466842369545272 0 0 -1
174 2 2.108420916962133 3.502727155627325 21.035150840430347 1 0 0
144 2 0.7650051073312527 0.08184561023222947 23.233023847834637 1 1 0
581 2 0.5270514617304265 0.39078744026749823 20.965119971554426 1 1 -1
932 2 -0.2506932132919121 3.614887925227821 23.88612563454876 1 0 0
764 2 4.073745142057415 2.37215789302817 20.282393411810105 0 1 0
511 2 -0.3932960892429779 1.1706491268251644 26.0704184759349 0 1 0
662 2 4.174340367644979 1.689245659475937 25.959469814308832 1 0 0
713 2 4.770643833428794 12.7774799262123 22.392701585299392 0 0 0
397 2 4.518110841371822 0.9276846924797864 22.153584283281038 0 1 0
159 2 6.512123962137393 1.4085384270500403 23.106259906273415 0 0 0
485 2 5.509639133976827 3.036061715191621 24.70217252543253 0 0 0
474 2 8.297476752001264 2.160015699358726 22.0077381029934 0 0 -1
625 2 7.516385690011927 -0.08742886509087894 24.670789218863458 0 0 0
973 2 9.374654844287585 10.342095964248129 23.666062677975212 0 0 0
690 2 11.208369955539794 -0.21118109670104857 21.40592544311124 0 1 0
663 2 8.89660003306662 0.09960130315081606 21.077634991922533 0 0 0
834 2 10.954908862893353 0.7446599961144131 23.531829850034807 0 1 0
596 2 10.304234062672773 2.9899179333817147 23.140455373626178 0 1 0
529 2 9.767315965814186 -0.12715684450899412 25.371932331180258 1 1 0
751 2 9.451054686312101 3.707301324390487 25.087028124873893 0 0 -1
852 2 12.544087803389303 0.6165879658886684 19.74166844019439 0 1 -1
414 2 11.814329654850992 8.792435157433166 20.540678205247243 0 1 0
465 2 1.6566803956651275 7.499911942409605 22.704085076880435 0 -1 0
838 2 0.16432678598892614 7.483696423603311 24.402661359249137 1 0 -1
201 2 1.3258632921184743 5.743671431596261 21.182779182392714 1 0 0
224 2 3.742205720716391 4.570026661709706 24.222896853672772 0 0 -1
606 2 3.8442806982963837 6.800234585630211 23.477402784670936 0 0 -1
591 2 8.57649716165086 11.555461489648003 25.380340193895307 1 1 0
78 1 6.688719076365106 5.294125006788176 22.53108865750316 1 2 0
877 2 7.262531624678173 4.415416738378935 25.448611923022938 0 0 0
850 2 5.0470155685996785 7.451587980670992 21.495833372561364 1 0 -1
965 2 7.166475353588807 6.846744357583423 25.028748090202306 0 0 -1
427 2 5.0353194977047275 7.765757583540914 25.22325511781786 0 0 0
228 2 6.855481757866404 6.082008282493132 21.368628560086346 0 0 0
576 2 7.939643509584709 8.488193648482397 23.361195692905316 0 0 0
393 2 11.667259670530374 4.4202516408543975 21.763426399924338 0 0 0
389 2 8.923653141725174 7.027501864379325 21.926657474761715 0 0 0
876 2 10.819057322893487 5.64902326732076 25.338377074180382 0 0 -1
873 2 10.869203638917126 6.200947311449783 23.069049637573197 0 0 0
982 2 12.210044753751976 8.025703759856981 22.801578008913594 0 0 -1
739 2 9.756565466819143 7.9653369329464 19.81850790569424 0 0 0
655 2 12.787999050447478 4.451797977418572 26.103689142083763 0 0 0
700 2 1.3856485629785866 12.800623366728098 19.841213794064572 0 0 0
319 2 1.5901433509147118 8.704990012616275 25.800508020933126 0 0 -1
509 2 2.6136745273430604 11.85643812693878 22.724711225180084 1 0 -1
799 2 0.5928861718149439 9.269057323852572 21.4506541717139 0 0 -1
801 2 2.7682552814910464 10.455357341195997 24.763063750207024 0 0 -1
523 2 2.2786307053703294 10.835678235704258 20.828151685779357 1 0 0
487 2 5.893020483249671 11.174028141142262 21.004786915030408 0 0 0
221 2 6.024091656168311 9.390536731111993 22.476175620847947 1 0 -1
482 2 6.358861882787145 11.601343818279753 25.68887376235884 0 0 -1
378 2 5.02474734909083 9.893462962394866 24.56965072760454 0 0 0
207 2 11.70218133148565 11.159436555130696 20.863518058919784 0 0 -1
855 2 0.3623061322193143 2.496618296096094 20.003235692339718 1 0 0
985 2 7.869330357122372 11.053153840758634 19.760476067808817 1 0 -1
290 2 11.783125616008116 9.981190151287025 23.959549521839282 0 1 -1
222 2 12.94118288492164 10.762424419858487 25.97796680779199 0 0 -1
758 2 9.500318686873698 11.424515054772005 21.428681368261177 0 0 -1
783 2 8.615942701004904 3.325189580599944 20.120492436401186 0 0 -1
317 2 4.192063444415801 10.260046645159354 19.791008681295395 1 0 0
803 2 3.4322469373232054 5.15629245717643 26.44336769837603 1 1 0
254 2 5.889143610342391 0.17261475174645102 26.46748829225455 0 0 0
172 2 1.5177759670231785 14.979229518849499 2.5678876160183877 1 0 0
809 2 2.2729191578058403 15.039599576061821 0.34970789803895486 0 0 0
534 2 3.4790286026506547 15.956114602925705 3.754485286536279 1 0 1
756 2 3.553240661066792 17.59108281997093 5.456499701880822 1 0 0
718 2 10.48696344673832 23.211885319532843 4.060716361163722 0 -1 0
695 2 4.459688932633651 15.55132015992103 0.4659395238056291 0 0 1
495 2 6.799439636608753 14.011961611444198 5.144815360500728 0 0 0
644 2 7.218391219174895 16.450620681444157 5.022833343175101 0 0 0
124 2 6.920673903995056 17.0285497158162 2.871683366303332 0 -1 0
899 2 5.5203785328360855 13.872699073387572 1.5997928098015959 0 0 1
320 2 4.843436100619252 14.013802058737772 3.836125687056499 1 0 0
638 2 7.689357072110996 14.89685337442214 1.7924285970506557 0 0 1
814 2 4.683279463136143 17.118600453290647 2.0834339861197573 0 0 0
734 2 12.852572085489925 17.92564740105269 3.5795906024585262 0 0 0
861 2 11.918043635329969 14.375817831059175 4.539000931358877 0 0 0
889 2 10.94904870331143 16.531980856521 3.9977354056359093 0 0 1
30 1 10.14040396812288 16.329420255100533 2.852238117661917 0 0 1
202 2 9.384065419817617 17.307906705837922 5.445086599471026 1 0 1
676 2 9.037356368882072 15.405631761747895 -0.07857036704350412 0 0 0
810 2 9.895181647526007 20.857478792394833 -0.16765980929867325 0 0 0
196 2 -0.18146657212674716 19.20666462569149 1.783909066263064 0 0 1
481 2 1.6978228714615828 18.881026525723904 0.44932581956052675 0 0 1
411 2 3.240953293566775 19.84711868436306 4.808702422069188 0 0 1
643 2 0.8867615638967872 20.088631552919388 4.896716620408682 0 0 1
707 2 0.05005464445181618 21.225522269621315 3.0704068974176058 0 0 0
76 1 0.2945776849511822 18.63037944110424 4.783034273536331 2 -1 1
293 2 3.92773440682787 19.234723078783933 1.0609669573091278 1 0 0
608 2 4.587159210530758 20.501880673008216 2.978779858354582 1 0 0
796 2 7.0643975358018425 20.483141558198255 3.095337444011584 0 0 0
906 2 7.331625645307892 20.748297883360767 5.330392093217911 0 -1 0
504 2 8.188109957290084 18.718410974527767 2.0020642266187125 0 0 1
315 2 10.675699459351922 17.18512222642157 -0.25417515582455485 0 0 0
11 1 0.37790534532702547 20.657987230527088 6.2228388178008975 1 0 0
577 2 9.586515861411467 19.826089904250946 5.773796640845978 0 -1 0
438 2 10.324111720482682 19.051060152881583 1.1373900583963925 0 -1 1
519 2 11.119025510143915 20.914639423391435 4.336929878837428 0 0 0
435 2 12.145922121054065 19.75791805365164 2.469722230883855 0 0 0
541 2 8.291291675820741 13.192864074142454 3.4338895060072687 1 0 0
65 1 1.743977207960512 25.801411565278116 0.4022990170411739 0 -1 0
997 2 1.9195121625798524 23.00964338604944 0.14659484073645201 0 -1 0
503 2 1.6350308668245979 22.920884223560236 2.563485809921443 0 0 1
615 2 1.5008065315677739 25.206236325614515 3.307669560417299 1 -1 1
715 2 1.7241105477944698 25.58913623670532 5.8370976283502705 1 0 1
488 2 2.4841069980642607 26.2740548642547 1.5037489096396588 0 0 0
345 2 3.852004974817607 22.745577156613866 3.224425863590832 0 -1 0
556 2 12.347139172349362 24.530435737266266 4.862604381615453 0 0 0
287 2 4.405860456583401 23.139065797836064 5.448978539215345 0 0 0
266 2 6.764139769162423 23.018859525822236 5.63995204963298 0 0 0
418 2 5.408032918004331 24.2233341968151 2.3617581468369573 0 0 1
494 2 6.78907732919706 24.96158577568994 4.067698980773067 0 -1 0
717 2 4.523464153917512 25.46556567483012 0.40158805820084964 0 0 0
848 2 7.069995323525875 22.812960080651465 1.652342575468035 0 0 1
897 2 10.312235412692985 23.185499671822594 0.17407616233904855 0 -1 0
478 2 6.066786851294429 22.222312476155217 -0.3366027670629174 0 0 1
39 1 9.392727795522735 23.285991278490133 5.228566465511457 0 0 1
992 2 9.185341206113042 23.76290252489531 2.130776716589821 0 -1 0
735 2 8.368649913415599 25.97316096534747 2.715081975189472 0 -1 0
755 2 12.718041220069361 22.892424009483495 0.18598663337293342 0 0 1
747 2 7.461756400789488 18.611712959397984 -0.3392715474275082 0 0 1
58 1 -0.3076765773388898 23.082678218886855 6.055633960669049 -1 -1 -2
40 1 12.184772843282856 26.16937219061117 2.1398723911020148 1 -1 -1
668 2 4.100758155523279 25.243830652107775 6.252095958926661 0 -1 0
428 2 5.507800002144345 19.89237809096388 -0.47135243791957393 0 -1 0
404 2 2.644813044461288 15.424606263112857 10.447838120018277 0 0 0
185 2 3.193518534787025 15.219425326215205 8.204766813411979 1 0 0
443 2 0.28051582880061343 15.743670606168855 10.127536059465296 0 0 0
952 2 3.106943893497831 13.411703233359361 11.411170623686923 0 0 0
724 2 2.1062211211367585 16.962145474779017 7.324989886115059 0 0 0
498 2 3.1453233857930485 13.246464878611382 7.115902098510655 0 0 0
665 2 10.141650081434152 26.188258916602386 9.77533043985491 0 0 0
407 2 -0.04283578851828734 16.728312677299748 8.002343229996995 1 0 1
236 2 6.6641703651063695 15.229265890325369 9.83075456146222 0 0 0
666 2 7.216848738360126 16.519436322516007 11.612805666788468 1 0 0
759 2 5.097281935271616 16.368795475203537 8.548502783227342 0 0 0
480 2 8.471685108169279 14.384089003178538 8.645525728379809 0 0 0
87 1 8.56389429382474 16.260773683917932 12.083688036162455 -1 0 -1
335 2 5.4506610389075325 13.213341607399792 10.32516038613497 0 0 0
416 2 11.507952503343542 15.069909813285847 10.397963697853546 0 0 0
924 2 9.561828346038729 15.924637718554017 7.2999327971180925 0 0 1
652 2 10.976867190102618 16.97798556013818 8.84968085371782 0 0 1
811 2 11.364801005131364 14.459454848226736 6.657893062276188 0 0 0
940 2 11.213005015057231 15.677907240935387 12.623812101479789 0 0 0
399 2 10.213750723292105 13.25787960072951 9.845205378821763 0 0 0
250 2 9.132982145704773 22.820163091666213 10.925245369004319 0 -1 0
383 2 3.7048382079823536 17.454838752102923 10.364257154244177 1 0 0
197 2 2.2284485000041645 18.795761506054028 9.052233291634977 0 0 0
233 2 3.1348755719527786 20.917258894767702 8.874976945162329 1 0 0
599 2 10.863646681725449 24.429591064653593 11.24323018014368 0 -1 0
122 2 5.618360561411287 17.57521086847417 6.488108649138181 1 0 0
551 2 3.976507449737195 21.01467095545456 6.623961396985053 1 0 0
232 2 4.1400115148379495 18.18079981120314 12.588356750357956 1 0 0
862 2 7.432687165504579 19.751090915018946 12.577335680538882 1 0 0
648 2 5.987805445601716 19.896337559510748 6.898659174250124 1 -1 0
550 2 6.886978103913135 20.28414134343551 9.073765744379326 0 0 1
922 2 7.769356806136912 18.66232482328953 10.583260176851121 0 0 0
559 2 5.025376559854053 21.570881103260714 9.968105924865794 0 -1 0
698 2 8.77727089868508 21.748696763788775 8.957143549797882 0 0 0
265 2 9.206587387283745 21.307476402310733 12.610733981539662 0 0 0
505 2 10.08391429796396 18.863932200501118 9.954581958537947 1 -1 0
429 2 10.454485838763171 20.36534573582138 8.066285972757589 0 0 0
716 2 10.737799346528087 19.673121481430083 11.959382688550459 0 -1 0
484 2 12.408999117412677 21.683745627607845 7.8551221614070705 0 -1 0
920 2 -0.36016889330203433 18.69331880382825 9.242285426915082 0 0 0
737 2 -0.033856037632373825 23.43313318136444 9.033275910011191 0 0 0
446 2 1.8253540666139734 22.642327098896928 9.942926523503324 0 -1 0
375 2 2.054492596427897 22.72014033324912 12.240508996382092 1 -1 0
321 2 2.467582602432072 24.960432198208068 9.69039300832502 1 0 0
743 2 2.4908032075067412 24.949581550888045 11.976019666163072 0 0 0
570 2 0.7676438477218479 23.688202208852054 6.790962594760817 0 0 -1
157 2 9.014619772340966 25.442170218419996 7.551891766951281 0 -1 0
543 2 4.445339846808779 21.950306013102296 12.262418489015875 0 -1 0
935 2 7.3251704787821525 24.240949460818353 11.092163254201566 1 0 0
463 2 5.906312304811743 23.798991665492867 9.387479998320709 0 0 0
288 2 4.392072559019157 25.365766774174634 8.615503605494482 0 0 0
385 2 7.6196614625361505 23.46822431250037 7.791351297802876 0 0 0
6 1 -0.3147619024425325 14.442481732752979 9.921442765847207 1 0 0
12 1 1.862110790653571 22.645415418855407 6.888010055468361 -1 -1 -1
436 2 5.831935196962738 23.68591292870299 12.903336745512632 1 0 0
47 1 4.920929781072342 15.11920505576592 12.59920052654043 0 -1 0
745 2 12.840622816045506 20.4868162600793 12.456492026169553 0 0 0
588 2 8.121919114179875 26.44054088303964 11.0236621074131 0 0 0
602 2 7.12945814565425 13.010976229351213 7.264858071883292 0 0 0
843 2 2.927250524701222 15.12960489601139 17.37901508270786 0 0 0
442 2 0.6579138812880674 15.46173416185766 17.38748936726813 1 0 0
333 2 3.4331944049060446 13.698484270297683 19.13532581581058 0 0 -1
741 2 0.887211152183526 15.954049547119304 13.594372969306749 1 0 0
831 2 1.9704662767216172 13.681589647715958 13.526267861769897 1 0 0
510 2 3.328289124759482 13.727042799452295 15.51725781541139 0 0 0
143 2 -0.05171566282015444 16.27558692921209 19.351913948185842 1 0 0
274 2 11.09963812547576 23.575039747087335 15.094452098248714 0 0 0
916 2 5.5235044702377625 16.391987129789463 13.20748630820119 0 0 0
359 2 4.353656581489692 16.84635019654361 17.005803667845644 0 -1 0
433 2 6.029392970409386 16.093691734742723 15.474636901888537 0 0 0
691 2 5.664235292042223 13.723847528726836 15.28509914551793 0 0 0
579 2 8.15927510349471 17.021728850063337 16.204340611088355 0 0 0
286 2 9.212013162272816 22.313845096184785 14.652289500036659 0 -1 0
967 2 10.566217657128233 25.02955182744909 13.4922316417522 0 0 0
68 1 8.859901238719093 14.091980803832154 13.702563104749606 0 -1 0
158 2 10.302092758313535 13.822424897228105 13.91310878908417 1 0 0
339 2 10.356919814772153 16.280640776713245 16.84354340300513 0 0 0
184 2 11.229180124299642 14.172298533746849 16.024379742738567 0 0 0
323 2 10.138658084247483 16.15559370715183 19.254405274043094 0 0 0
911 2 9.72270607900615 23.126491727731867 18.296215386295888 0 0 0
358 2 0.3045605402882613 19.461685373344558 13.233822379797285 1 -1 1
305 2 2.1042190765802724 18.010409907052697 13.922259794186852 1 0 0
646 2 1.7639443321048134 19.308819513310954 17.88143827814551 0 0 0
963 2 3.0972829114687315 18.60395136575302 16.169740064636354 1 0 0
59 1 2.3263134965953283 20.43314687438015 18.656514269825145 1 1 -1
344 2 -0.039828770646671896 20.15986321753768 16.79700614080178 0 0 -1
430 2 0.35295254968997203 21.743375644800388 13.359499076273607 0 0 0
310 2 -0.3040071057365318 16.384993663148514 15.566887549535679 0 0 0
466 2 5.51915621339182 17.583495049425093 18.90942411627777 0 -1 0
173 2 4.185068008075201 21.3555053874722 19.5313571240741 0 0 0
412 2 4.858204660923248 20.31548816253325 15.914354607281528 1 0 0
603 2 7.646921304594951 18.291374768076587 18.11274569761896 1 0 -1
854 2 7.0452352583111475 20.23154175254204 17.106105508310495 0 0 0
976 2 5.2315178511981655 20.12527976449725 13.449607957464066 0 0 0
807 2 8.352046980430323 18.459681958260582 14.276369658035058 0 0 0
130 2 10.4211342089143 17.84178376298538 13.395584189432729 0 0 0
605 2 11.510786950499325 17.89588801460683 15.441109986480354 0 0 0
979 2 8.981425199598808 20.192181979873137 15.765456674352802 0 0 0
456 2 11.178733520039632 20.158830802498954 16.322544572702302 0 -1 0
285 2 11.579511748384773 21.527728720088362 18.242209439778645 0 0 -1
209 2 0.17273297325858383 22.10357313231208 15.580463414083276 1 0 0
368 2 1.4424680904064722 24.027200704940213 19.007412872046395 0 0 0
991 2 2.154540070205258 23.395912713804464 16.599278722953535 0 -1 0
653 2 2.954604313314797 25.344453483523182 15.473682506545721 1 -1 0
406 2 4.291566011335567 22.39706363918912 16.897294894906707 1 0 -1
894 2 4.302908489878494 25.29836110951289 13.460237610272241 1 -1 0
253 2 7.531046965659492 22.38800662162396 18.100184038220334 0 0 0
765 2 7.242115804060274 23.792365561852993 14.74333361816424 0 -1 0
525 2 5.967675977828167 25.666724766870257 17.99860323667449 0 0 -1
650 2 6.205412908474631 23.645141809144647 16.821479083939863 0 0 0
536 2 8.505415777388336 25.823544076106007 14.459224253914954 0 0 0
421 2 12.573518687814502 25.670862353853085 18.41544780104891 0 0 0
693 2 10.72085434541277 24.846476397233758 17.10733231091972 0 0 0
7 1 6.168294627353542 13.46249415425609 13.925742162629035 1 0 0
483 2 1.032210056133736 15.357146616934019 22.783534055425733 0 0 -1
688 2 3.28936406004708 16.352487093871144 22.356280524724152 0 -1 0
163 2 0.06569146558345562 16.75332306074532 24.309913455167187 1 0 0
178 2 1.7049836025907035 16.906411994786183 26.006316469559184 0 0 0
752 2 0.09294509194688094 14.431763285244442 20.727321412905138 0 0 -1
626 2 3.7092394720520545 17.078068126886283 24.41409830605306 1 0 -1
298 2 2.9331746967078836 13.337361805474735 25.746466498551726 0 0 -1
249 2 2.2223306780400716 26.099554059296278 19.810655482804858 0 -1 0
291 2 4.513359624987469 14.805824450246929 21.208310491631483 0 0 0
872 2 6.466025718266291 15.917386667649215 20.355451170560364 0 0 0
568 2 7.408890219633255 16.3878549780907 25.64404752890614 0 0 0