 vasp.6.5.0 16Dec24 (build Jan 20 2025 08:32:48) complex                         
 executed on        HPECrayEX_GCC date 2025.07.28  18:03:23
 running  128 mpi-ranks, with    1 threads/rank, on    1 nodes
 distrk:  each k-point on  128 cores,    1 groups
 distr:  one band on NCORE=  16 cores,    8 groups


--------------------------------------------------------------------------------------------------------


 INCAR:
   SYSTEM = a-Si SPC
   NCORE = 16
   ISTART = 1
   ICHARG = 1
   ISPIN = 1
   ISYM = 1
   EDIFF = 1E-6
   NELM = 150
   EDIFFG = -0.01
   NSW = 0
   ISIF = 2
   IBRION = -1
   PREC = Accurate
   ENCUT = 1200
   KSPACING = 0.23
   KGAMMA = .TRUE.
   METAGGA = SCAN
   LASPH = .TRUE.
   LDIAG = .FALSE.
   LMIXTAU = .TRUE.
   ADDGRID = .TRUE.
   ALGO = Normal
   ISMEAR = 0
   SIGMA = 0.1
   LORBIT = 11
   NEDOS = 2000
   LWAVE = .FALSE.
   LCHARG = .FALSE.

 POTCAR:    PAW_PBE H 15Jun2001                   
 POTCAR:    PAW_PBE Si 05Jan2001                  
 POTCAR:    PAW_PBE H 15Jun2001                   
   SHA256 =  030f79b5d3ab3cf0e668861823c8fb652ff669f3e15e46930bd03bfd63a607b6 H/POTCAR              
   COPYR  = (c) Copyright 15Jun2001 Georg Kresse                                                    
   COPYR  = This file is part of the software VASP. Any use, copying, and all other rights are regul
   COPYR  = If you do not have a valid VASP license, you may not use, copy or distribute this file. 
   VRHFIN =H: ultrasoft test                                                                        
   LEXCH  = PE                                                                                      
   EATOM  =    12.4884 eV,    0.9179 Ry                                                             
                                                                                                    
   TITEL  = PAW_PBE H 15Jun2001                                                                     
   LULTRA =        F    use ultrasoft PP ?                                                          
   IUNSCR =        0    unscreen: 0-lin 1-nonlin 2-no                                               
   RPACOR =    0.000    partial core radius                                                         
   POMASS =    1.000; ZVAL   =    1.000    mass and valenz                                          
   RCORE  =    1.100    outmost cutoff radius                                                       
   RWIGS  =    0.700; RWIGS  =    0.370    wigner-seitz radius (au A)                               
   ENMAX  =  250.000; ENMIN  =  200.000 eV                                                          
   RCLOC  =    0.701    cutoff for local pot                                                        
   LCOR   =        T    correct aug charges                                                         
   LPAW   =        T    paw PP                                                                      
   EAUG   =  400.000                                                                                
   RMAX   =    1.123    core radius for proj-oper                                                   
   RAUG   =    1.200    factor for augmentation sphere                                              
   RDEP   =    1.112    radius for radial grids                                                     
   RDEPT  =    0.926    core radius for aug-charge                                                  
                                                                                                    
   Atomic configuration                                                                             
    2 entries                                                                                       
     n  l   j            E        occ.                                                              
     1  0  0.50        -6.4927   1.0000                                                             
     2  1  0.50        -3.4015   0.0000                                                             
   Description                                                                                      
     l       E           TYP  RCUT    TYP  RCUT                                                     
     0     -6.4927494     23  1.100                                                                 
     0      6.8029130     23  1.100                                                                 
     1     -4.0817478     23  1.100                                                                 
  local pseudopotential read in
  atomic valenz-charges read in
  non local Contribution for L=           0  read in
    real space projection operators read in
  non local Contribution for L=           0  read in
    real space projection operators read in
  non local Contribution for L=           1  read in
    real space projection operators read in
    PAW grid and wavefunctions read in

   number of l-projection  operators is LMAX  =           3
   number of lm-projection operators is LMMAX =           5

 POTCAR:    PAW_PBE Si 05Jan2001                  
   SHA256 =  79d9987ad8750f624c4d6acb2a16d13abf6a777132adc04dc6c8399be72b42bb Si/POTCAR             
   COPYR  = (c) Copyright 05Jan2001 Georg Kresse                                                    
   COPYR  = This file is part of the software VASP. Any use, copying, and all other rights are regul
   COPYR  = If you do not have a valid VASP license, you may not use, copy or distribute this file. 
   VRHFIN =Si: s2p2                                                                                 
   LEXCH  = PE                                                                                      
   EATOM  =   103.0669 eV,    7.5752 Ry                                                             
                                                                                                    
   TITEL  = PAW_PBE Si 05Jan2001                                                                    
   LULTRA =        F    use ultrasoft PP ?                                                          
   IUNSCR =        1    unscreen: 0-lin 1-nonlin 2-no                                               
   RPACOR =    1.500    partial core radius                                                         
   POMASS =   28.085; ZVAL   =    4.000    mass and valenz                                          
   RCORE  =    1.900    outmost cutoff radius                                                       
   RWIGS  =    2.480; RWIGS  =    1.312    wigner-seitz radius (au A)                               
   ENMAX  =  245.345; ENMIN  =  184.009 eV                                                          
   ICORE  =        2    local potential                                                             
   LCOR   =        T    correct aug charges                                                         
   LPAW   =        T    paw PP                                                                      
   EAUG   =  322.069                                                                                
   DEXC   =    0.000                                                                                
   RMAX   =    1.950    core radius for proj-oper                                                   
   RAUG   =    1.300    factor for augmentation sphere                                              
   RDEP   =    1.993    radius for radial grids                                                     
   RDEPT  =    1.837    core radius for aug-charge                                                  
                                                                                                    
   Atomic configuration                                                                             
    6 entries                                                                                       
     n  l   j            E        occ.                                                              
     1  0  0.50     -1785.8828   2.0000                                                             
     2  0  0.50      -139.4969   2.0000                                                             
     2  1  1.50       -95.5546   6.0000                                                             
     3  0  0.50       -10.8127   2.0000                                                             
     3  1  0.50        -4.0811   2.0000                                                             
     3  2  1.50        -4.0817   0.0000                                                             
   Description                                                                                      
     l       E           TYP  RCUT    TYP  RCUT                                                     
     0    -10.8127223     23  1.900                                                                 
     0     -7.6451159     23  1.900                                                                 
     1     -4.0811372     23  1.900                                                                 
     1      2.4879257     23  1.900                                                                 
     2     -4.0817478      7  1.900                                                                 
  local pseudopotential read in
  partial core-charges read in
  partial kinetic energy density read in
  atomic valenz-charges read in
  non local Contribution for L=           0  read in
    real space projection operators read in
  non local Contribution for L=           0  read in
    real space projection operators read in
  non local Contribution for L=           1  read in
    real space projection operators read in
  non local Contribution for L=           1  read in
    real space projection operators read in
    PAW grid and wavefunctions read in

   number of l-projection  operators is LMAX  =           4
   number of lm-projection operators is LMMAX =           8

 -----------------------------------------------------------------------------
|                                                                             |
|               ----> ADVICE to this user running VASP <----                  |
|                                                                             |
|     You have a (more or less) 'large supercell' and for larger cells it     |
|     might be more efficient to use real-space projection operators.         |
|     Therefore, try LREAL= Auto in the INCAR file.                           |
|     Mind: For very accurate calculation, you might also keep the            |
|     reciprocal projection scheme (i.e. LREAL=.FALSE.).                      |
|                                                                             |
 -----------------------------------------------------------------------------

 -----------------------------------------------------------------------------
|                                                                             |
|               ----> ADVICE to this user running VASP <----                  |
|                                                                             |
|     You enforced a specific xc type in the INCAR file but a different       |
|     type was found in the POTCAR file.                                      |
|     I HOPE YOU KNOW WHAT YOU ARE DOING!                                     |
|                                                                             |
 -----------------------------------------------------------------------------

  PAW_PBE H 15Jun2001                   :
 energy of atom  1       EATOM=  -12.4884
 kinetic energy error for atom=    0.0000 (will be added to EATOM!!)
  PAW_PBE Si 05Jan2001                  :
 energy of atom  2       EATOM= -103.0669
 kinetic energy error for atom=    0.0001 (will be added to EATOM!!)


 POSCAR:  H Si
  positions in cartesian coordinates
  No initial velocities read in


 exchange-correlation table for SCAN
   RHO(1)=    0.500       N(1)  =     2000
   RHO(2)=  100.500       N(2)  =     4000



--------------------------------------------------------------------------------------------------------


 ion  position               nearest neighbor table
   1  0.269  0.844  0.518-  92 1.50
   2  0.033  0.682  0.685-  84 1.48
   3  0.958  0.065  0.418-  13 2.35  26 2.36  71 2.39  63 2.39
   4  0.595  0.153  0.595-  49 2.33  43 2.35  86 2.42  69 2.49
   5  0.076  0.441  0.598-  91 2.36  31 2.39   6 2.40  54 2.50
   6  0.912  0.428  0.605-  74 2.37  73 2.39   5 2.40
   7  0.635  0.680  0.463-  82 2.36  80 2.37  39 2.37  42 2.42
   8  0.795  0.806  0.623-  12 2.23  89 2.24  52 2.28
   9  0.541  0.891  0.497-  42 2.34  18 2.36  21 2.36  66 2.37
  10  0.935  0.206  0.515-  71 2.35  83 2.36  56 2.39  73 2.40
  11  0.234  0.533  0.378-  35 2.34  61 2.40  79 2.80  72 2.85  20 3.13
  12  0.934  0.860  0.642-   8 2.23  84 2.30  22 2.36
  13  0.089  0.023  0.461-  46 2.30  29 2.35   3 2.35  36 2.38  63 3.01
  14  0.487  0.200  0.384-  44 2.31  41 2.37  75 2.42
  15  0.724  0.113  0.377-  75 2.29  26 2.34  59 2.36
  16  0.829  0.535  0.395-  80 2.33  19 2.41  87 2.42  58 2.46
  17  0.608  0.891  0.382-  42 2.37  24 2.39  75 2.52
  18  0.517  0.042  0.469-  75 2.35  86 2.35   9 2.36  67 2.37
  19  0.968  0.485  0.433-  45 2.38  61 2.39  16 2.41  76 2.41
  20  0.446  0.510  0.395-  35 2.33  51 2.36  25 2.97  11 3.13
  21  0.694  0.888  0.525-  38 2.30  52 2.36   9 2.36  39 2.37
  22  0.977  0.933  0.571-  62 2.31  12 2.36  50 2.37  56 2.39
  23  0.706  0.495  0.520-  65 2.30  80 2.34  74 2.35  82 2.37
  24  0.761  0.847  0.404-  39 2.37  17 2.39  26 2.42  58 2.64
  25  0.417  0.396  0.481-  37 2.35  53 2.37  79 2.39  41 2.39  20 2.97
  26  0.808  0.004  0.420-  15 2.34   3 2.36  38 2.40  24 2.42
  27  0.162  0.288  0.452-  79 2.35  83 2.36  45 2.38  93 2.48
  28  0.353  0.214  0.588-  37 2.32  47 2.32  49 2.32  68 2.35
  29  0.148  0.086  0.531-  83 2.29  62 2.31  68 2.31  13 2.35
  30  0.012  0.151  0.628-  62 2.41  88 2.43  91 2.44
  31  0.094  0.561  0.541-  76 2.35  77 2.37   5 2.39  72 2.41
  32  0.225  0.927  0.626-  48 2.35  90 2.37  62 2.40
  33  0.925  0.724  0.479-  76 2.35  50 2.39  57 2.39  39 2.42
  34  0.547  0.804  0.623-  66 2.33  52 2.41  78 2.41
  35  0.330  0.403  0.379-  20 2.33  11 2.34  79 2.37  44 2.40
  36  0.194  0.028  0.397-  93 2.36  63 2.37  13 2.38  55 2.43  67 3.08  46 3.13  85 3.13
  37  0.435  0.338  0.557-  28 2.32  69 2.34  25 2.35  40 2.36
  38  0.756  0.025  0.499-  21 2.30  56 2.33  86 2.39  26 2.40
  39  0.765  0.774  0.478-  24 2.37  21 2.37   7 2.37  33 2.42
  40  0.386  0.481  0.588-  37 2.36  70 2.39  53 2.42  54 2.44
  41  0.533  0.320  0.436-  51 2.32  60 2.33  14 2.37  25 2.39
  42  0.526  0.791  0.432-   9 2.34  17 2.37  64 2.37   7 2.42
  43  0.709  0.064  0.633-   4 2.35  88 2.40  52 2.49
  44  0.345  0.244  0.357-  14 2.31  93 2.34  35 2.40
  45  0.023  0.335  0.415-  71 2.31  27 2.38  19 2.38
  46  0.132  0.871  0.465-  13 2.30  85 2.30  50 2.37  55 2.39  36 3.13
  47  0.245  0.292  0.633-  91 2.28  54 2.32  28 2.32
  48  0.229  0.768  0.612-  92 2.31  77 2.32  32 2.35
  49  0.450  0.106  0.621-  28 2.32   4 2.33  90 2.34  68 3.11
  50  0.033  0.811  0.524-  77 2.37  22 2.37  46 2.37  33 2.39
  51  0.596  0.445  0.396-  41 2.32  80 2.34  87 2.35  20 2.36
  52  0.676  0.903  0.607-   8 2.28  21 2.36  34 2.41  43 2.49
  53  0.430  0.547  0.513-  82 2.36  81 2.37  25 2.37  40 2.42
  54  0.239  0.451  0.626-  47 2.32  40 2.44   5 2.50
  55  0.283  0.914  0.440-  46 2.39  36 2.43  64 2.49  67 2.49
  56  0.886  0.060  0.545-  88 2.32  38 2.33  10 2.39  22 2.39
  57  0.990  0.718  0.402-  85 2.28  58 2.34  33 2.39  61 2.46
  58  0.842  0.697  0.371-  57 2.34  16 2.46  24 2.64
  59  0.765  0.256  0.411-  15 2.36  71 2.36  60 2.37  87 2.47
  60  0.661  0.261  0.475-  65 2.30  86 2.32  41 2.33  59 2.37
  61  0.092  0.584  0.411-  72 2.38  19 2.39  11 2.40  57 2.46
  62  0.098  0.020  0.600-  29 2.31  22 2.31  32 2.40  30 2.41
  63  0.052  0.999  0.358-  85 2.34  36 2.37   3 2.39  13 3.01
  64  0.366  0.768  0.422-  42 2.37  81 2.41  55 2.49
  65  0.704  0.342  0.541-  60 2.30  23 2.30  69 2.32  73 2.38
  66  0.449  0.855  0.563-  92 2.33  34 2.33  90 2.37   9 2.37
  67  0.355  0.062  0.465-  68 2.30  18 2.37  93 2.47  55 2.49  36 3.08
  68  0.306  0.090  0.540-  67 2.30  29 2.31  90 2.34  28 2.35  49 3.11
  69  0.581  0.324  0.592-  65 2.32  37 2.34   4 2.49  70 2.62
  70  0.537  0.489  0.621-  40 2.39  78 2.54  69 2.62  82 3.11
  71  0.917  0.222  0.433-  45 2.31  10 2.35  59 2.36   3 2.39
  72  0.197  0.563  0.475-  61 2.38  81 2.39  31 2.41  79 2.41  11 2.85
  73  0.847  0.291  0.572-  65 2.38   6 2.39  10 2.40  88 2.42
  74  0.836  0.546  0.562-  89 2.34  76 2.35  23 2.35   6 2.37
  75  0.578  0.061  0.393-  15 2.29  18 2.35  14 2.42  17 2.52
  76  0.949  0.572  0.505-  74 2.35  31 2.35  33 2.35  19 2.41
  77  0.097  0.707  0.579-  84 2.30  48 2.32  50 2.37  31 2.37
  78  0.598  0.650  0.605-  82 2.31  89 2.33  34 2.41  70 2.54
  79  0.262  0.416  0.455-  27 2.35  35 2.37  25 2.39  72 2.41  11 2.80
  80  0.697  0.536  0.440-  16 2.33  23 2.34  51 2.34   7 2.37  87 2.91
  81  0.328  0.661  0.484-  92 2.35  53 2.37  72 2.39  64 2.41
  82  0.581  0.597  0.529-  78 2.31  53 2.36   7 2.36  23 2.37  70 3.11
  83  0.094  0.233  0.522-  29 2.29  91 2.31  10 2.36  27 2.36
  84  0.992  0.713  0.640-   2 1.48  12 2.30  77 2.30
  85  0.068  0.852  0.392-  57 2.28  46 2.30  63 2.34  36 3.13
  86  0.626  0.123  0.513-  60 2.32  18 2.35  38 2.39   4 2.42
  87  0.742  0.402  0.368-  51 2.35  16 2.42  59 2.47  80 2.91
  88  0.847  0.143  0.612-  56 2.32  43 2.40  73 2.42  30 2.43
  89  0.758  0.661  0.605-   8 2.24  78 2.33  74 2.34
  90  0.364  0.981  0.593-  49 2.34  68 2.34  66 2.37  32 2.37
  91  0.102  0.281  0.600-  47 2.28  83 2.31   5 2.36  30 2.44
  92  0.318  0.769  0.545-   1 1.50  48 2.31  66 2.33  81 2.35
  93  0.263  0.170  0.417-  44 2.34  36 2.36  67 2.47  27 2.48

  LATTYP: Found a simple tetragonal cell.
 ALAT       =    14.5237936979
 C/A-ratio  =     1.9568326011
  
  Lattice vectors:
  
 A1 = (  14.5237936979,   0.0000000000,   0.0000000000)
 A2 = (   0.0000000000,  14.5237936979,   0.0000000000)
 A3 = (   0.0000000000,   0.0000000000,  28.4206330000)


Analysis of symmetry for initial positions (statically):
=====================================================================
 Subroutine PRICEL returns:
 Original cell was already a primitive cell.
 

 Routine SETGRP: Setting up the symmetry group for a 
 simple tetragonal supercell.


 Subroutine GETGRP returns: Found  1 space group operations
 (whereof  1 operations were pure point group operations)
 out of a pool of 16 trial point group operations.


The static configuration has the point symmetry C_1 .


Analysis of symmetry for dynamics (positions and initial velocities):
=====================================================================
 Subroutine PRICEL returns:
 Original cell was already a primitive cell.
 

 Routine SETGRP: Setting up the symmetry group for a 
 simple tetragonal supercell.


 Subroutine GETGRP returns: Found  1 space group operations
 (whereof  1 operations were pure point group operations)
 out of a pool of 16 trial point group operations.


The dynamic configuration has the point symmetry C_1 .


 Subroutine INISYM returns: Found  1 space group operations
 (whereof  1 operations are pure point group operations),
 and found     1 'primitive' translations


----------------------------------------------------------------------------------------

                                     Primitive cell                                     

  volume of cell :    5995.0649

  direct lattice vectors                    reciprocal lattice vectors
    14.523793698  0.000000000  0.000000000     0.068852534  0.000000000  0.000000000
     0.000000000 14.523793698  0.000000000     0.000000000  0.068852534  0.000000000
     0.000000000  0.000000000 28.420633000     0.000000000  0.000000000  0.035185705

  length of vectors
    14.523793698 14.523793698 28.420633000     0.068852534  0.068852534  0.035185705

  position of ions in fractional coordinates (direct lattice)
     0.268992350  0.844149608  0.518407767
     0.032832053  0.682489702  0.685140903
     0.957942257  0.064984072  0.417528084
     0.595355314  0.152959209  0.595241699
     0.075967318  0.441311898  0.598095460
     0.911575607  0.427802363  0.604764318
     0.634693872  0.680320699  0.463242898
     0.795106941  0.806314533  0.623231869
     0.540515076  0.891101125  0.496606273
     0.934921471  0.205707410  0.514821784
     0.234419751  0.533264325  0.377865204
     0.933913618  0.860104391  0.642154121
     0.089166039  0.022814278  0.460830025
     0.487448848  0.199833780  0.384147563
     0.723641032  0.112715572  0.377482818
     0.829160465  0.534521006  0.394543297
     0.608273027  0.891293377  0.381757336
     0.516819942  0.041976038  0.468599274
     0.967874438  0.484549141  0.433262425
     0.446109269  0.509700340  0.395170117
     0.693542463  0.888441820  0.524833586
     0.977066188  0.932895531  0.571344463
     0.706493261  0.495406611  0.519937303
     0.760520701  0.846844752  0.403936099
     0.416876421  0.396474640  0.480954133
     0.807698215  0.003825414  0.420020082
     0.161768175  0.288185784  0.452258708
     0.352707133  0.214392147  0.587615664
     0.148283016  0.085534199  0.530668121
     0.011731179  0.150845355  0.627818843
     0.093513711  0.560937777  0.541291777
     0.224605411  0.926937236  0.626044191
     0.924589265  0.724042459  0.478809611
     0.546734768  0.803967514  0.623230906
     0.329951836  0.403144016  0.379242394
     0.193903659  0.027636748  0.396529169
     0.434759257  0.337644423  0.557448913
     0.756077026  0.025302444  0.499410010
     0.765425445  0.773976581  0.478347656
     0.386276528  0.481042829  0.587620702
     0.532707041  0.319608667  0.435706906
     0.526064441  0.791111481  0.432272950
     0.708890115  0.063836352  0.632860747
     0.344542848  0.244371296  0.356727154
     0.023088923  0.334670641  0.414526359
     0.132402558  0.870701152  0.465222136
     0.244730557  0.292171581  0.632738454
     0.229018298  0.767526368  0.612450252
     0.450280936  0.105861380  0.620917226
     0.032849669  0.810638233  0.523915601
     0.595528929  0.445038559  0.396432826
     0.675811595  0.903222616  0.607092217
     0.429824639  0.546865057  0.512818633
     0.238963296  0.450855167  0.625534305
     0.283066270  0.914277668  0.439739677
     0.885592002  0.059752549  0.544710796
     0.990199789  0.717933213  0.401827233
     0.842083956  0.697390507  0.371404194
     0.764534450  0.255711112  0.410620381
     0.660655697  0.260689375  0.475047863
     0.091760719  0.583833652  0.411483778
     0.098115969  0.020040890  0.600059368
     0.052344610  0.998560471  0.357508014
     0.365702396  0.768251063  0.422089042
     0.703678434  0.342285604  0.540810066
     0.449241314  0.854792459  0.563403000
     0.355106492  0.062209944  0.464613707
     0.306146782  0.089973700  0.540336562
     0.580736853  0.323528329  0.591936337
     0.537092577  0.489038422  0.620815904
     0.917082873  0.221578193  0.432952144
     0.196849020  0.563258110  0.474954260
     0.847387984  0.290657604  0.571617223
     0.835861798  0.546314990  0.562318333
     0.577667157  0.060660596  0.392733067
     0.948861766  0.572165780  0.504613205
     0.096680314  0.706533275  0.579225333
     0.598231472  0.650038569  0.605238871
     0.261865230  0.415556836  0.454644740
     0.696572974  0.536247638  0.440485477
     0.328000942  0.660975495  0.483722671
     0.580623870  0.597475894  0.528996072
     0.094208121  0.232760231  0.522358702
     0.992103621  0.713249728  0.639925713
     0.068286287  0.852469223  0.391646607
     0.626448305  0.123265731  0.512871557
     0.741517225  0.402482685  0.367998212
     0.847340253  0.143358289  0.611653132
     0.758405375  0.660818917  0.604884984
     0.364449253  0.981132024  0.593131791
     0.102252595  0.280930540  0.599606566
     0.318350424  0.769498650  0.545077655
     0.262596351  0.169634552  0.416500207

  ion indices of the primitive-cell ions
   primitive index   ion index
                 1           1
                 2           2
                 3           3
                 4           4
                 5           5
                 6           6
                 7           7
                 8           8
                 9           9
                10          10
                11          11
                12          12
                13          13
                14          14
                15          15
                16          16
                17          17
                18          18
                19          19
                20          20
                21          21
                22          22
                23          23
                24          24
                25          25
                26          26
                27          27
                28          28
                29          29
                30          30
                31          31
                32          32
                33          33
                34          34
                35          35
                36          36
                37          37
                38          38
                39          39
                40          40
                41          41
                42          42
                43          43
                44          44
                45          45
                46          46
                47          47
                48          48
                49          49
                50          50
                51          51
                52          52
                53          53
                54          54
                55          55
                56          56
                57          57
                58          58
                59          59
                60          60
                61          61
                62          62
                63          63
                64          64
                65          65
                66          66
                67          67
                68          68
                69          69
                70          70
                71          71
                72          72
                73          73
                74          74
                75          75
                76          76
                77          77
                78          78
                79          79
                80          80
                81          81
                82          82
                83          83
                84          84
                85          85
                86          86
                87          87
                88          88
                89          89
                90          90
                91          91
                92          92
                93          93

----------------------------------------------------------------------------------------


 -----------------------------------------------------------------------------
|                                                                             |
|           W    W    AA    RRRRR   N    N  II  N    N   GGGG   !!!           |
|           W    W   A  A   R    R  NN   N  II  NN   N  G    G  !!!           |
|           W    W  A    A  R    R  N N  N  II  N N  N  G       !!!           |
|           W WW W  AAAAAA  RRRRR   N  N N  II  N  N N  G  GGG   !            |
|           WW  WW  A    A  R   R   N   NN  II  N   NN  G    G                |
|           W    W  A    A  R    R  N    N  II  N    N   GGGG   !!!           |
|                                                                             |
|     The requested file  could not be found or opened for reading            |
|     k-point information. Automatic k-point generation is used as a          |
|     fallback, which may lead to unwanted results.                           |
|                                                                             |
 -----------------------------------------------------------------------------



Automatic generation of k-mesh.
 Grid dimensions derived from KSPACING:
 generate k-points for:    2    2    1

 Generating k-lattice:

  Cartesian coordinates                     Fractional coordinates (reciprocal lattice)
     0.034426267  0.000000000  0.000000000     0.500000000  0.000000000  0.000000000
     0.000000000  0.034426267  0.000000000     0.000000000  0.500000000  0.000000000
     0.000000000  0.000000000  0.035185705     0.000000000  0.000000000  1.000000000

  Length of vectors
     0.034426267  0.034426267  0.035185705

  Shift w.r.t. Gamma in fractional coordinates (k-lattice)
     0.000000000  0.000000000  0.000000000

 
 Subroutine IBZKPT returns following result:
 ===========================================
 
 Found      4 irreducible k-points:
 
 Following reciprocal coordinates:
            Coordinates               Weight
  0.000000  0.000000  0.000000      1.000000
  0.500000  0.000000  0.000000      1.000000
  0.000000  0.500000  0.000000      1.000000
  0.500000  0.500000  0.000000      1.000000
 
 Following cartesian coordinates:
            Coordinates               Weight
  0.000000  0.000000  0.000000      1.000000
  0.034426  0.000000  0.000000      1.000000
  0.000000  0.034426  0.000000      1.000000
  0.034426  0.034426  0.000000      1.000000
 


--------------------------------------------------------------------------------------------------------




 Dimension of arrays:
   k-points           NKPTS =      4   k-points in BZ     NKDIM =      4   number of bands    NBANDS=    232
   number of dos      NEDOS =   2000   number of ions     NIONS =     93
   non local maximal  LDIM  =      4   non local SUM 2l+1 LMDIM =      8
   total plane-waves  NPLWV = ******
   max r-space proj   IRMAX =      1   max aug-charges    IRDMAX= 408152
   dimension x,y,z NGX =   168 NGY =  168 NGZ =  324
   dimension x,y,z NGXF=   336 NGYF=  336 NGZF=  648
   support grid    NGXF=   672 NGYF=  672 NGZF= 1296
   ions per type =               2  91
   NGX,Y,Z   is equivalent  to a cutoff of  19.23, 19.23, 18.95 a.u.
   NGXF,Y,Z  is equivalent  to a cutoff of  38.46, 38.46, 37.90 a.u.

 SYSTEM =  a-Si SPC                                
 POSCAR =   H Si                                   

 Startparameter for this run:
   NWRITE =      2    write-flag & timer
   PREC   = accura    normal or accurate (medium, high low for compatibility)
   ISTART =      1    job   : 0-new  1-cont  2-samecut
   ICHARG =      1    charge: 1-file 2-atom 10-const
   ISPIN  =      1    spin polarized calculation?
   LNONCOLLINEAR =      F non collinear calculations
   LSORBIT =      F    spin-orbit coupling
   INIWAV =      1    electr: 0-lowe 1-rand  2-diag
   LASPH  =      T    aspherical Exc in radial PAW
 Electronic Relaxation 1
   ENCUT  = 1200.0 eV  88.20 Ry    9.39 a.u.  41.02 41.02 80.28*2*pi/ulx,y,z
   ENINI  = 1200.0     initial cutoff
   ENAUG  =  400.0 eV  augmentation charge cutoff
   NELM   =    150;   NELMIN=  2; NELMDL=  0     # of ELM steps 
   EDIFF  = 0.1E-05   stopping-criterion for ELM
   LREAL  =      F    real-space projection
   NLSPLINE    = F    spline interpolate recip. space projectors
   LCOMPAT=      F    compatible to vasp.4.4
   GGA_COMPAT  = T    GGA compatible to vasp.4.4-vasp.4.6
   LMAXPAW     = -100 max onsite density
   LMAXMIX     =    2 max onsite mixed and CHGCAR
   VOSKOWN=      0    Vosko Wilk Nusair interpolation
   ROPT   =    0.00000   0.00000
 Ionic relaxation
   EDIFFG = -.1E-01   stopping-criterion for IOM
   NSW    =      0    number of steps for IOM
   NBLOCK =      1;   KBLOCK =      1    inner block; outer block 
   IBRION =     -1    ionic relax: 0-MD 1-quasi-New 2-CG
   NFREE  =      0    steps in history (QN), initial steepest desc. (CG)
   ISIF   =      2    stress and relaxation
   IWAVPR =     10    prediction:  0-non 1-charg 2-wave 3-comb
   ISYM   =      1    0-nonsym 1-usesym 2-fastsym
   LCORR  =      T    Harris-Foulkes like correction to forces

   POTIM  = 0.5000    time-step for ionic-motion
   TEIN   =    0.0    initial temperature
   TEBEG  =    0.0;   TEEND  =   0.0 temperature during run
   SMASS  =  -3.00    Nose mass-parameter (am)
   estimated Nose-frequenzy (Omega)   =  0.10E-29 period in steps = 0.13E+47 mass=  -0.482E-26a.u.
   SCALEE = 1.0000    scale energy and forces
   NPACO  =    256;   APACO  = 10.0  distance and # of slots for P.C.
   PSTRESS=    0.0 pullay stress

  Mass of Ions in am
   POMASS =   1.00 28.09
  Ionic Valenz
   ZVAL   =   1.00  4.00
  Atomic Wigner-Seitz radii
   RWIGS  =  -1.00 -1.00
  virtual crystal weights 
   VCA    =   1.00  1.00
   NELECT =     366.0000    total number of electrons
   NUPDOWN=      -1.0000    fix difference up-down

 DOS related values:
   EMIN   =  10.00;   EMAX   =-10.00  energy-range for DOS
   EFERMI =   0.00;   METHOD = LEGACY      
   ISMEAR =     0;   SIGMA  =   0.10  broadening in eV -4-tet -1-fermi 0-gaus
   EFERMI_NEDOS =   21; number of points for ismear=-14 and -15

 Electronic relaxation 2 (details)
   IALGO  =     38    algorithm
   LDIAG  =      F    sub-space diagonalisation (order eigenvalues)
   LSUBROT=      F    optimize rotation matrix (better conditioning)
   TURBO    =      0    0=normal 1=particle mesh
   IRESTART =      0    0=no restart 2=restart with 2 vectors
   NREBOOT  =      0    no. of reboots
   NMIN     =      0    reboot dimension
   EREF     =   0.00    reference energy to select bands
   IMIX   =      4    mixing-type and parameters
     AMIX     =   0.40;   BMIX     =  1.00
     AMIX_MAG =   1.60;   BMIX_MAG =  1.00
     AMIN     =   0.10
     WC   =   100.;   INIMIX=   1;  MIXPRE=   1;  MAXMIX= -45

 Intra band minimization:
   WEIMIN = 0.0000     energy-eigenvalue tresh-hold
   EBREAK =  0.11E-08  absolut break condition
   DEPER  =   0.30     relativ break condition  

   TIME   =   0.40     timestep for ELM

  volume/ion in A,a.u.               =      64.46       435.02
  Fermi-wavevector in a.u.,A,eV,Ry     =   0.644620  1.218156  5.653699  0.415535
  Thomas-Fermi vector in A             =   1.712008

 Write flags
   LWAVE        =      F    write WAVECAR
   LDOWNSAMPLE  =      F    k-point downsampling of WAVECAR
   LCHARG       =      F    write CHGCAR
   LVTOT        =      F    write LOCPOT, total local potential
   LVHAR        =      F    write LOCPOT, Hartree potential only
   WRT_POTENTIAL= false  ! write potential to hdf5 file
   LELF         =      F    write electronic localiz. function (ELF)
   LORBIT       =     11    0 simple, 1 ext, 2 COOP (PROOUT), +10 PAW based schemes


 Python interface
   PLUGINS active      =      F    recompile with -DPLUGINS to activate

 Dipole corrections
   LMONO      =      F    monopole corrections only (constant potential shift)
   LDIPOL     =      F    correct potential (dipole corrections)
   IDIPOL     =      0    1-x, 2-y, 3-z, 4-all directions 
   EPSILON    =  1.0000000 bulk dielectric constant
   LVACPOTAV  =      F  vacuum potentials using an averaging scheme for the charge density
   VACPOTFLAT =  0.1000000 required flatness to determine vacuum potential

Coulomb truncation method
  LTRUNCATE          =      F  Coulomb kernel truncation to be used
  IDIMENSIONALITY    =      3  Dimensionality of cutoff (0 molecules / 2 surfaces)
  ISURFACE           =     -1  Direction of surface normal
  LCOARSEN           =      F  Coarsen the charge grid before padding, preferred


 Exchange correlation treatment:
   METAGGA = SCAN    functional components
   XC_C    = 1    coefficients multiplying the functional components
   LIBXC   =     F    Libxc                    
   VOSKOWN =     0    Vosko Wilk Nusair interpolation
   LHFCALC =     F    Hartree Fock is set to
   LHFONE  =     F    Hartree Fock one center treatment
   AEXX    =    0.0000 exact exchange contribution

 Parameters of functionals:
   SCAN:
     P1 =  0.000000E+00
     P2 =  0.000000E+00
     P3 =  0.000000E+00

 Accuracy and mixing parameters for tau-dependent meta-GGA functionals:
   LMAXTAU = 6
   LMIXTAU = T

 Van der Waals corrections
   IVDW    =     0    specifies the selected vdW correction

 Linear response parameters
   LEPSILON=     F    determine dielectric tensor
   LRPA    =     F    only Hartree local field effects (RPA)
   LNABLA  =     F    use nabla operator in PAW spheres
   LVEL    =     F    velocity operator in full k-point grid
   CSHIFT  =0.1000    complex shift for real part using Kramers Kronig
   OMEGAMAX=  -1.0    maximum frequency
   DEG_THRESHOLD= 0.2000000E-02 threshold for treating states as degnerate
   RTIME   =   -0.100 relaxation time in fs
  (WPLASMAI=    0.000 imaginary part of plasma frequency in eV, 0.658/RTIME)
   DFIELD  = 0.0000000 0.0000000 0.0000000 field for delta impulse in time

  Optional k-point grid parameters
   LKPOINTS_OPT  =     F    use optional k-point grid
   KPOINTS_OPT_MODE=     1    mode for optional k-point grid

 Orbital magnetization related:
   ORBITALMAG=     F  switch on orbital magnetization
   LCHIMAG   =     F  perturbation theory with respect to B field
   DQ        =  0.001000  dq finite difference perturbation B field
   LLRAUG    =     F  two centre corrections for induced B field
   LBONE     =     F  B-component reconstruction in AE one-centre
   LVGVCALC  =     T  calculate vGv susceptibility
   LVGVAPPL  =     F  apply vGv susceptibility instead of pGv for G=0

 Random number generation:
   RANDOM_GENERATOR = DEFAULT
   PCG_SEED         = not used


--------------------------------------------------------------------------------------------------------


 Static calculation
 charge density and potential will be updated during run
 non-spin polarized calculation
 Variant of blocked Davidson
 perform Loewdin sub-space diagonalisation
    ordering is kept fixed
    before iterative eigenvector-optimisation
 modified Broyden-mixing scheme, WC =      100.0
 initial mixing is a Kerker type mixing with AMIX =  0.4000 and BMIX =      1.0000
 Hartree-type preconditioning will be used
 using additional bands           49
 reciprocal scheme for non local part
 use partial core corrections
 calculate Harris-corrections to forces   (improved forces if not selfconsistent)
 use gradient corrections 
 use of overlap-Matrix (Vanderbilt PP)
 Gauss-broadening in eV      SIGMA  =   0.10


--------------------------------------------------------------------------------------------------------


  energy-cutoff  :     1200.00
  volume of cell :     5995.06
      direct lattice vectors                 reciprocal lattice vectors
    14.523793698  0.000000000  0.000000000     0.068852534  0.000000000  0.000000000
     0.000000000 14.523793698  0.000000000     0.000000000  0.068852534  0.000000000
     0.000000000  0.000000000 28.420633000     0.000000000  0.000000000  0.035185705

  length of vectors
    14.523793698 14.523793698 28.420633000     0.068852534  0.068852534  0.035185705



 old parameters found on file WAVECAR:
  energy-cutoff  :     1200.00
  volume of cell :     5995.06
      direct lattice vectors                 reciprocal lattice vectors
    14.523793698  0.000000000  0.000000000     0.068852534  0.000000000  0.000000000
     0.000000000 14.523793698  0.000000000     0.000000000  0.068852534  0.000000000
     0.000000000  0.000000000 28.420633000     0.000000000  0.000000000  0.035185705

  length of vectors


 k-points in units of 2pi/SCALE and weight: read from INCAR                         
   0.00000000  0.00000000  0.00000000       0.250
   0.03442627  0.00000000  0.00000000       0.250
   0.00000000  0.03442627  0.00000000       0.250
   0.03442627  0.03442627  0.00000000       0.250

 k-points in reciprocal lattice and weights: read from INCAR                         
   0.00000000  0.00000000  0.00000000       0.250
   0.50000000  0.00000000  0.00000000       0.250
   0.00000000  0.50000000  0.00000000       0.250
   0.50000000  0.50000000  0.00000000       0.250

 position of ions in fractional coordinates (direct lattice) 
   0.26899235  0.84414961  0.51840777
   0.03283205  0.68248970  0.68514090
   0.95794226  0.06498407  0.41752808
   0.59535531  0.15295921  0.59524170
   0.07596732  0.44131190  0.59809546
   0.91157561  0.42780236  0.60476432
   0.63469387  0.68032070  0.46324290
   0.79510694  0.80631453  0.62323187
   0.54051508  0.89110113  0.49660627
   0.93492147  0.20570741  0.51482178
   0.23441975  0.53326432  0.37786520
   0.93391362  0.86010439  0.64215412
   0.08916604  0.02281428  0.46083003
   0.48744885  0.19983378  0.38414756
   0.72364103  0.11271557  0.37748282
   0.82916046  0.53452101  0.39454330
   0.60827303  0.89129338  0.38175734
   0.51681994  0.04197604  0.46859927
   0.96787444  0.48454914  0.43326243
   0.44610927  0.50970034  0.39517012
   0.69354246  0.88844182  0.52483359
   0.97706619  0.93289553  0.57134446
   0.70649326  0.49540661  0.51993730
   0.76052070  0.84684475  0.40393610
   0.41687642  0.39647464  0.48095413
   0.80769822  0.00382541  0.42002008
   0.16176817  0.28818578  0.45225871
   0.35270713  0.21439215  0.58761566
   0.14828302  0.08553420  0.53066812
   0.01173118  0.15084535  0.62781884
   0.09351371  0.56093778  0.54129178
   0.22460541  0.92693724  0.62604419
   0.92458926  0.72404246  0.47880961
   0.54673477  0.80396751  0.62323091
   0.32995184  0.40314402  0.37924239
   0.19390366  0.02763675  0.39652917
   0.43475926  0.33764442  0.55744891
   0.75607703  0.02530244  0.49941001
   0.76542544  0.77397658  0.47834766
   0.38627653  0.48104283  0.58762070
   0.53270704  0.31960867  0.43570691
   0.52606444  0.79111148  0.43227295
   0.70889011  0.06383635  0.63286075
   0.34454285  0.24437130  0.35672715
   0.02308892  0.33467064  0.41452636
   0.13240256  0.87070115  0.46522214
   0.24473056  0.29217158  0.63273845
   0.22901830  0.76752637  0.61245025
   0.45028094  0.10586138  0.62091723
   0.03284967  0.81063823  0.52391560
   0.59552893  0.44503856  0.39643283
   0.67581159  0.90322262  0.60709222
   0.42982464  0.54686506  0.51281863
   0.23896330  0.45085517  0.62553430
   0.28306627  0.91427767  0.43973968
   0.88559200  0.05975255  0.54471080
   0.99019979  0.71793321  0.40182723
   0.84208396  0.69739051  0.37140419
   0.76453445  0.25571111  0.41062038
   0.66065570  0.26068937  0.47504786
   0.09176072  0.58383365  0.41148378
   0.09811597  0.02004089  0.60005937
   0.05234461  0.99856047  0.35750801
   0.36570240  0.76825106  0.42208904
   0.70367843  0.34228560  0.54081007
   0.44924131  0.85479246  0.56340300
   0.35510649  0.06220994  0.46461371
   0.30614678  0.08997370  0.54033656
   0.58073685  0.32352833  0.59193634
   0.53709258  0.48903842  0.62081590
   0.91708287  0.22157819  0.43295214
   0.19684902  0.56325811  0.47495426
   0.84738798  0.29065760  0.57161722
   0.83586180  0.54631499  0.56231833
   0.57766716  0.06066060  0.39273307
   0.94886177  0.57216578  0.50461321
   0.09668031  0.70653327  0.57922533
   0.59823147  0.65003857  0.60523887
   0.26186523  0.41555684  0.45464474
   0.69657297  0.53624764  0.44048548
   0.32800094  0.66097550  0.48372267
   0.58062387  0.59747589  0.52899607
   0.09420812  0.23276023  0.52235870
   0.99210362  0.71324973  0.63992571
   0.06828629  0.85246922  0.39164661
   0.62644831  0.12326573  0.51287156
   0.74151723  0.40248269  0.36799821
   0.84734025  0.14335829  0.61165313
   0.75840538  0.66081892  0.60488498
   0.36444925  0.98113202  0.59313179
   0.10225259  0.28093054  0.59960657
   0.31835042  0.76949865  0.54507766
   0.26259635  0.16963455  0.41650021

 position of ions in cartesian coordinates  (Angst):
   3.90678940 12.26025476 14.73347689
   0.47684596  9.91233964 19.47213817
  13.91295571  0.94381525 11.86641243
   8.64681776  2.22154800 16.91714588
   1.10333366  6.40952296 16.99825156
  13.23953605  6.21331327 17.18778473
   9.21816286  9.88083748 13.16565638
  11.54796918 11.71074594 17.71264422
   7.85032946 12.94216891 14.11386463
  13.57860657  2.98765198 14.63156099
   3.40466410  7.74502104 10.73916828
  13.56396872 12.49197874 18.25042660
   1.29502916  0.33134986 13.09708103
   7.07960650  2.90234459 10.91771691
  10.51001306  1.63705771 10.72830062
  12.04255553  7.76327282 11.21317025
   8.83443196 12.94496113 10.84978515
   7.50618622  0.60965131 13.31788800
  14.05720866  7.03749176 12.31359238
   6.47919899  7.40278258 11.23098487
  10.07286766 12.90354570 14.91610274
  14.19070774 13.54918223 16.23797129
  10.26096237  7.19518342 14.77694726
  11.04564576 12.29939847 11.48011963
   6.05462713  5.75831588 13.66902091
  11.73084225  0.05555952 11.93723661
   2.34948760  4.18555087 12.85347875
   5.12264563  3.11378731 16.70040912
   2.15363194  1.24228106 15.08192390
   0.17038123  2.19084681 17.84300892
   1.35817384  8.14694455 15.38385494
   3.26212265 13.46264518 17.79257220
  13.42854374 10.51584331 13.60807224
   7.94066298 11.67665832 17.71261685
   4.79215239  5.85518052 10.77830889
   2.81621674  0.40139042 11.26961000
   6.31435376  4.90387795 15.84305096
  10.98110674  0.36748747 14.19354861
  11.11688125 11.24107619 13.59494319
   5.61020060  6.98656681 16.70055231
   7.73692717  4.64193034 12.38306607
   7.64045142 11.48993994 12.28547088
  10.29577378  0.92714601 17.98630304
   5.00406925  3.54919829 10.13841152
   0.33533876  4.86068734 11.78110151
   1.92298744 12.64588391 13.22190759
   3.55441612  4.24343976 17.98282740
   3.32621451 11.14739462 17.40622384
   6.53978742  1.53750884 17.64686061
   0.47710181 11.77354246 14.89001301
   8.64933931  6.46364822 11.26687185
   9.81534818 13.11821894 17.25394509
   6.24268438  7.94255527 14.57463016
   3.47065361  6.54812743 17.77808090
   4.11119611 13.27878023 12.49767998
  12.86215554  0.86783369 15.48102563
  14.38145746 10.42711387 11.42018431
  12.23025366 10.12875585 10.55554230
  11.10394063  3.71389544 11.67009115
   9.59522705  3.78619870 13.50116097
   1.33271375  8.47947951 11.69462943
   1.42501609  0.29106975 17.05406708
   0.76024232 14.50288628 10.16060406
   5.31138615 11.15791994 11.99603776
  10.22008041  4.97128550 15.37016441
   6.52468816 12.41482933 16.01226989
   5.15749343  0.90352439 13.20461564
   4.44641271  1.30675946 15.35670713
   8.43450224  4.69885871 16.82320539
   7.80062178  7.10269315 17.64398096
  13.31952245  3.21815596 12.30477398
   2.85899456  8.18064459 13.49850071
  12.30728826  4.22145108 16.24572330
  12.13988431  7.93456621 15.98144296
   8.38991862  0.88102198 11.16172236
  13.78107253  8.31001775 14.34142672
   1.40416494 10.26154352 16.46195061
   8.68859048  9.44102607 17.20127184
   3.80327658  6.03546175 12.92129131
  10.11688217  7.78835006 12.51887607
   4.76381801  9.59987173 13.74770450
   8.43286130  8.67761663 15.03440321
   1.36825931  3.38056157 14.84576495
  14.40910832 10.35909190 18.18709383
   0.99177595 12.38108713 11.13084447
   9.09840595  1.79028604 14.57613429
  10.76964320  5.84557549 10.45874214
  12.30659503  2.08210621 17.38356919
  11.01492321  9.59759762 17.19121413
   5.29318577 14.24975911 16.85718095
   1.48509559  4.08017720 17.04119816
   4.62365588 11.17603964 15.49145199
   3.81389523  2.46373724 11.83719953



--------------------------------------------------------------------------------------------------------


 k-point     1 :   0.0000 0.0000 0.0000  plane waves:  565641
 k-point     2 :   0.5000 0.0000 0.0000  plane waves:  565922
 k-point     3 :   0.0000 0.5000 0.0000  plane waves:  565922
 k-point     4 :   0.5000 0.5000 0.0000  plane waves:  565972

 maximum and minimum number of plane-waves per node :     35458    35293

 maximum number of plane-waves:    565972
 maximum index in each direction: 
   IXMAX=   41   IYMAX=   41   IZMAX=   80
   IXMIN=  -41   IYMIN=  -41   IZMIN=  -80


 parallel 3D FFT for wavefunctions:
    minimum data exchange during FFTs selected (reduces bandwidth)
 parallel 3D FFT for charge:
    minimum data exchange during FFTs selected (reduces bandwidth)


 total amount of memory used by VASP MPI-rank0   361802. kBytes
=======================================================================

   base                                    :      30000. kBytes
   nonl-proj                               :      70768. kBytes
   fftplans                                :     110216. kBytes
   grid                                    :      85039. kBytes
   one-center                              :         18. kBytes
   wavefun                                 :      65761. kBytes

     INWAV:  cpu time     18.9635: real time     18.9764
 Broyden mixing: mesh for mixing (old mesh)
   NGX = 83   NGY = 83   NGZ =161
  (NGX  =336   NGY  =336   NGZ  =648)
  gives a total of ****** points

 initial charge density was supplied:
 number of electron     365.9999999 magnetization 
 keeping initial charge density in first step


--------------------------------------------------------------------------------------------------------


 Maximum index for augmentation-charges        11385 (set IRDMAX)


--------------------------------------------------------------------------------------------------------


 First call to EWALD:  gamma=   0.098
 Maximum number of real-space cells   3x   3x   2
 Maximum number of reciprocal cells   2x   2x   4

    FEWALD:  cpu time      0.0137: real time      0.0137


--------------------------------------- Ionic step        1  -------------------------------------------




--------------------------------------- Iteration      1(   1)  ---------------------------------------


    POTLOK:  cpu time      2.1693: real time      2.1699
    SETDIJ:  cpu time      1.5917: real time      1.5924
    EDDIAG:  cpu time     37.4708: real time     37.4899
     EDDAV:  cpu time    174.5776: real time    174.6677
       DOS:  cpu time      0.0077: real time      0.0078
    CHARGE:  cpu time     22.0004: real time     22.0217
    MIXING:  cpu time      0.0525: real time      0.0530
    --------------------------------------------
      LOOP:  cpu time    237.8699: real time    238.0024

 eigenvalue-minimisations  :  1856
 total energy-change (2. order) :-0.9254304E+03  (-0.1036923E+01)
 number of electron     365.9999999 magnetization 
 augmentation part      -20.6315241 magnetization 

 Broyden mixing:
  rms(total) = 0.11648E+01    rms(broyden)= 0.28364E+02
  rms(prec ) = 0.12000E+01
  weight for this iteration     100.00
  WARNING: grid for Broyden might be to small

 Free energy of the ion-electron system (eV)
  ---------------------------------------------------
  alpha Z        PSCENC =        47.05192315
  Ewald energy   TEWEN  =     56596.85736673
  -Hartree energ DENC   =    -64946.04701195
  -exchange      EXHF   =         0.00000000
  -V(xc)+E(xc)   XCENC  =      -446.72398081
  PAW double counting   =     32864.26857453   -31956.57371406
  entropy T*S    EENTRO =        -0.15067909
  eigenvalues    EBANDS =     -2488.17168638
  atomic energy  EATOM  =      9404.05877982
  Solvation  Ediel_sol  =         0.00000000
  ---------------------------------------------------
  free energy    TOTEN  =      -925.43042806 eV

  energy without entropy =     -925.27974897  energy(sigma->0) =     -925.35508852


--------------------------------------------------------------------------------------------------------




--------------------------------------- Iteration      1(   2)  ---------------------------------------


    POTLOK:  cpu time      2.1316: real time      2.1560
    SETDIJ:  cpu time      1.5840: real time      1.5848
    EDDIAG:  cpu time     37.5082: real time     37.5289
     EDDAV:  cpu time    176.2431: real time    176.3414
       DOS:  cpu time      0.0060: real time      0.0060
    CHARGE:  cpu time     21.8600: real time     21.8791
    MIXING:  cpu time      0.0447: real time      0.0449
    --------------------------------------------
      LOOP:  cpu time    239.3776: real time    239.5410

 eigenvalue-minimisations  :  1888
 total energy-change (2. order) : 0.6485831E+02  (-0.9670401E+00)
 number of electron     365.9999999 magnetization 
 augmentation part      -20.5511408 magnetization 

 Broyden mixing:
  rms(total) = 0.79003E+00    rms(broyden)= 0.16349E+02
  rms(prec ) = 0.80792E+00
  weight for this iteration     100.00
  WARNING: grid for Broyden might be to small

 eigenvalues of (default mixing * dielectric matrix)
  average eigenvalue GAMMA=   0.6344
  0.6344

 Free energy of the ion-electron system (eV)
  ---------------------------------------------------
  alpha Z        PSCENC =        47.05192315
  Ewald energy   TEWEN  =     56596.85736673
  -Hartree energ DENC   =    -64933.29082234
  -exchange      EXHF   =         0.00000000
  -V(xc)+E(xc)   XCENC  =      -437.00134992
  PAW double counting   =     39334.25045394   -38426.32668592
  entropy T*S    EENTRO =        -0.13845343
  eigenvalues    EBANDS =     -2446.03333307
  atomic energy  EATOM  =      9404.05877982
  Solvation  Ediel_sol  =         0.00000000
  ---------------------------------------------------
  free energy    TOTEN  =      -860.57212103 eV

  energy without entropy =     -860.43366760  energy(sigma->0) =     -860.50289431


--------------------------------------------------------------------------------------------------------




--------------------------------------- Iteration      1(   3)  ---------------------------------------


    POTLOK:  cpu time      2.1319: real time      2.1542
    SETDIJ:  cpu time      1.5828: real time      1.5837
    EDDIAG:  cpu time     37.4957: real time     37.5154
     EDDAV:  cpu time    174.6452: real time    174.7418
       DOS:  cpu time      0.0035: real time      0.0035
    CHARGE:  cpu time     21.8907: real time     21.9100
    MIXING:  cpu time      0.0416: real time      0.0416
    --------------------------------------------
      LOOP:  cpu time    237.7915: real time    237.9503

 eigenvalue-minimisations  :  1856
 total energy-change (2. order) :-0.3733094E+01  (-0.8050625E+00)
 number of electron     365.9999999 magnetization 
 augmentation part      -20.4756720 magnetization 

 Broyden mixing:
  rms(total) = 0.33003E+00    rms(broyden)= 0.24120E+02
  rms(prec ) = 0.41423E+00
  weight for this iteration     100.00
  WARNING: grid for Broyden might be to small

 eigenvalues of (default mixing * dielectric matrix)
  average eigenvalue GAMMA=   0.7297
  0.8354  0.6240

 Free energy of the ion-electron system (eV)
  ---------------------------------------------------
  alpha Z        PSCENC =        47.05192315
  Ewald energy   TEWEN  =     56596.85736673
  -Hartree energ DENC   =    -64933.78088349
  -exchange      EXHF   =         0.00000000
  -V(xc)+E(xc)   XCENC  =      -440.93250781
  PAW double counting   =     46974.42703229   -46066.64018796
  entropy T*S    EENTRO =        -0.14912195
  eigenvalues    EBANDS =     -2445.19761607
  atomic energy  EATOM  =      9404.05877982
  Solvation  Ediel_sol  =         0.00000000
  ---------------------------------------------------
  free energy    TOTEN  =      -864.30521527 eV

  energy without entropy =     -864.15609333  energy(sigma->0) =     -864.23065430


--------------------------------------------------------------------------------------------------------




--------------------------------------- Iteration      1(   4)  ---------------------------------------


    POTLOK:  cpu time      2.1332: real time      2.1624
    SETDIJ:  cpu time      1.5957: real time      1.5964
    EDDIAG:  cpu time     37.4391: real time     37.4597
     EDDAV:  cpu time    184.8461: real time    184.9435
       DOS:  cpu time      0.0044: real time      0.0044
    CHARGE:  cpu time     21.8371: real time     21.8555
    MIXING:  cpu time      0.0412: real time      0.0412
    --------------------------------------------
      LOOP:  cpu time    247.8968: real time    248.0631

 eigenvalue-minimisations  :  2048
 total energy-change (2. order) : 0.3973354E+00  (-0.9432841E-01)
 number of electron     365.9999999 magnetization 
 augmentation part      -20.4679733 magnetization 

 Broyden mixing:
  rms(total) = 0.95881E-01    rms(broyden)= 0.20128E+01
  rms(prec ) = 0.14520E+00
  weight for this iteration     100.00
  WARNING: grid for Broyden might be to small

 eigenvalues of (default mixing * dielectric matrix)
  average eigenvalue GAMMA=   0.8606
  1.4114  0.6380  0.5324

 Free energy of the ion-electron system (eV)
  ---------------------------------------------------
  alpha Z        PSCENC =        47.05192315
  Ewald energy   TEWEN  =     56596.85736673
  -Hartree energ DENC   =    -64935.40687835
  -exchange      EXHF   =         0.00000000
  -V(xc)+E(xc)   XCENC  =      -441.92689826
  PAW double counting   =     52848.35735312   -51940.61140958
  entropy T*S    EENTRO =        -0.13751316
  eigenvalues    EBANDS =     -2442.15060338
  atomic energy  EATOM  =      9404.05877982
  Solvation  Ediel_sol  =         0.00000000
  ---------------------------------------------------
  free energy    TOTEN  =      -863.90787991 eV

  energy without entropy =     -863.77036675  energy(sigma->0) =     -863.83912333


--------------------------------------------------------------------------------------------------------




--------------------------------------- Iteration      1(   5)  ---------------------------------------


    POTLOK:  cpu time      2.1287: real time      2.1545
    SETDIJ:  cpu time      1.5871: real time      1.5878
    EDDIAG:  cpu time     37.4209: real time     37.4408
     EDDAV:  cpu time    195.3697: real time    195.4748
       DOS:  cpu time      0.0031: real time      0.0031
    CHARGE:  cpu time     21.9009: real time     21.9201
    MIXING:  cpu time      0.0415: real time      0.0415
    --------------------------------------------
      LOOP:  cpu time    258.4518: real time    258.6226

 eigenvalue-minimisations  :  2248
 total energy-change (2. order) :-0.2106271E-01  (-0.2150712E-01)
 number of electron     365.9999999 magnetization 
 augmentation part      -20.4680735 magnetization 

 Broyden mixing:
  rms(total) = 0.71993E-01    rms(broyden)= 0.12155E+01
  rms(prec ) = 0.11070E+00
  weight for this iteration     100.00
  WARNING: grid for Broyden might be to small

 eigenvalues of (default mixing * dielectric matrix)
  average eigenvalue GAMMA=   1.0312
  2.3582  0.7538  0.6217  0.3910

 Free energy of the ion-electron system (eV)
  ---------------------------------------------------
  alpha Z        PSCENC =        47.05192315
  Ewald energy   TEWEN  =     56596.85736673
  -Hartree energ DENC   =    -64935.71331930
  -exchange      EXHF   =         0.00000000
  -V(xc)+E(xc)   XCENC  =      -443.05708661
  PAW double counting   =     52565.65806590   -51657.88845174
  entropy T*S    EENTRO =        -0.14904843
  eigenvalues    EBANDS =     -2440.74717215
  atomic energy  EATOM  =      9404.05877982
  Solvation  Ediel_sol  =         0.00000000
  ---------------------------------------------------
  free energy    TOTEN  =      -863.92894262 eV

  energy without entropy =     -863.77989419  energy(sigma->0) =     -863.85441841


--------------------------------------------------------------------------------------------------------




--------------------------------------- Iteration      1(   6)  ---------------------------------------


    POTLOK:  cpu time      2.1265: real time      2.1505
    SETDIJ:  cpu time      1.5926: real time      1.5937
    EDDIAG:  cpu time     37.4338: real time     37.4545
     EDDAV:  cpu time    186.1386: real time    186.2408
       DOS:  cpu time      0.0051: real time      0.0051
    CHARGE:  cpu time     21.8703: real time     21.8895
    MIXING:  cpu time      0.0428: real time      0.0428
    --------------------------------------------
      LOOP:  cpu time    249.2096: real time    249.3769

 eigenvalue-minimisations  :  2072
 total energy-change (2. order) : 0.1206757E-01  (-0.1101600E-01)
 number of electron     365.9999999 magnetization 
 augmentation part      -20.4689441 magnetization 

 Broyden mixing:
  rms(total) = 0.32814E-01    rms(broyden)= 0.27287E+00
  rms(prec ) = 0.36567E-01
  weight for this iteration     100.00
  WARNING: grid for Broyden might be to small

 eigenvalues of (default mixing * dielectric matrix)
  average eigenvalue GAMMA=   0.9683
  2.5007  0.8033  0.6233  0.5548  0.3597

 Free energy of the ion-electron system (eV)
  ---------------------------------------------------
  alpha Z        PSCENC =        47.05192315
  Ewald energy   TEWEN  =     56596.85736673
  -Hartree energ DENC   =    -64935.98607414
  -exchange      EXHF   =         0.00000000
  -V(xc)+E(xc)   XCENC  =      -443.33914097
  PAW double counting   =     52230.89167728   -51323.09836025
  entropy T*S    EENTRO =        -0.14528299
  eigenvalues    EBANDS =     -2440.20776367
  atomic energy  EATOM  =      9404.05877982
  Solvation  Ediel_sol  =         0.00000000
  ---------------------------------------------------
  free energy    TOTEN  =      -863.91687505 eV

  energy without entropy =     -863.77159206  energy(sigma->0) =     -863.84423355


--------------------------------------------------------------------------------------------------------




--------------------------------------- Iteration      1(   7)  ---------------------------------------


    POTLOK:  cpu time      2.1490: real time      2.1609
    SETDIJ:  cpu time      1.5984: real time      1.5992
    EDDIAG:  cpu time     37.4466: real time     37.4664
     EDDAV:  cpu time    179.2181: real time    179.3175
       DOS:  cpu time      0.0050: real time      0.0050
    CHARGE:  cpu time     21.8966: real time     21.9155
    MIXING:  cpu time      0.0438: real time      0.0438
    --------------------------------------------
      LOOP:  cpu time    242.3576: real time    242.5084

 eigenvalue-minimisations  :  1944
 total energy-change (2. order) : 0.1068907E-02  (-0.2622728E-02)
 number of electron     365.9999999 magnetization 
 augmentation part      -20.4677851 magnetization 

 Broyden mixing:
  rms(total) = 0.19828E-01    rms(broyden)= 0.16979E+00
  rms(prec ) = 0.20843E-01
  weight for this iteration     100.00
  WARNING: grid for Broyden might be to small

 eigenvalues of (default mixing * dielectric matrix)
  average eigenvalue GAMMA=   0.9593
  2.5692  1.0129  0.6718  0.6294  0.5216  0.3511

 Free energy of the ion-electron system (eV)
  ---------------------------------------------------
  alpha Z        PSCENC =        47.05192315
  Ewald energy   TEWEN  =     56596.85736673
  -Hartree energ DENC   =    -64935.80396432
  -exchange      EXHF   =         0.00000000
  -V(xc)+E(xc)   XCENC  =      -443.25086163
  PAW double counting   =     52177.75974199   -51269.95150437
  entropy T*S    EENTRO =        -0.14403627
  eigenvalues    EBANDS =     -2440.49325125
  atomic energy  EATOM  =      9404.05877982
  Solvation  Ediel_sol  =         0.00000000
  ---------------------------------------------------
  free energy    TOTEN  =      -863.91580614 eV

  energy without entropy =     -863.77176987  energy(sigma->0) =     -863.84378800


--------------------------------------------------------------------------------------------------------




--------------------------------------- Iteration      1(   8)  ---------------------------------------


    POTLOK:  cpu time      2.1295: real time      2.1561
    SETDIJ:  cpu time      1.5920: real time      1.5930
    EDDIAG:  cpu time     37.4451: real time     37.4673
     EDDAV:  cpu time    181.0358: real time    181.1415
       DOS:  cpu time      0.0034: real time      0.0034
    CHARGE:  cpu time     21.8901: real time     21.9091
    MIXING:  cpu time      0.0448: real time      0.0448
    --------------------------------------------
      LOOP:  cpu time    244.1407: real time    244.3153

 eigenvalue-minimisations  :  1976
 total energy-change (2. order) :-0.1510897E-02  (-0.7869440E-03)
 number of electron     365.9999999 magnetization 
 augmentation part      -20.4654934 magnetization 

 Broyden mixing:
  rms(total) = 0.59002E-02    rms(broyden)= 0.83502E-01
  rms(prec ) = 0.64184E-02
  weight for this iteration     100.00
  WARNING: grid for Broyden might be to small

 eigenvalues of (default mixing * dielectric matrix)
  average eigenvalue GAMMA=   0.9910
  2.5525  1.3441  0.8499  0.3470  0.6442  0.6442  0.5550

 Free energy of the ion-electron system (eV)
  ---------------------------------------------------
  alpha Z        PSCENC =        47.05192315
  Ewald energy   TEWEN  =     56596.85736673
  -Hartree energ DENC   =    -64935.28550804
  -exchange      EXHF   =         0.00000000
  -V(xc)+E(xc)   XCENC  =      -443.01064841
  PAW double counting   =     52198.31654821   -51290.48746515
  entropy T*S    EENTRO =        -0.14421325
  eigenvalues    EBANDS =     -2441.27410010
  atomic energy  EATOM  =      9404.05877982
  Solvation  Ediel_sol  =         0.00000000
  ---------------------------------------------------
  free energy    TOTEN  =      -863.91731704 eV

  energy without entropy =     -863.77310379  energy(sigma->0) =     -863.84521041


--------------------------------------------------------------------------------------------------------




--------------------------------------- Iteration      1(   9)  ---------------------------------------


    POTLOK:  cpu time      2.1251: real time      2.1536
    SETDIJ:  cpu time      1.5854: real time      1.5864
    EDDIAG:  cpu time     37.4199: real time     37.4403
     EDDAV:  cpu time    195.8829: real time    195.9967
       DOS:  cpu time      0.0029: real time      0.0029
    CHARGE:  cpu time     21.8814: real time     21.9018
    MIXING:  cpu time      0.0460: real time      0.0460
    --------------------------------------------
      LOOP:  cpu time    258.9438: real time    259.1279

 eigenvalue-minimisations  :  2256
 total energy-change (2. order) :-0.3040176E-03  (-0.8941001E-04)
 number of electron     365.9999999 magnetization 
 augmentation part      -20.4657360 magnetization 

 Broyden mixing:
  rms(total) = 0.28460E-02    rms(broyden)= 0.57813E-01
  rms(prec ) = 0.32846E-02
  weight for this iteration     100.00
  WARNING: grid for Broyden might be to small

 eigenvalues of (default mixing * dielectric matrix)
  average eigenvalue GAMMA=   1.0846
  2.4841  2.2180  0.9551  0.3461  0.8060  0.5415  0.7002  0.6260

 Free energy of the ion-electron system (eV)
  ---------------------------------------------------
  alpha Z        PSCENC =        47.05192315
  Ewald energy   TEWEN  =     56596.85736673
  -Hartree energ DENC   =    -64935.08142375
  -exchange      EXHF   =         0.00000000
  -V(xc)+E(xc)   XCENC  =      -443.03099342
  PAW double counting   =     52229.16501102   -51321.33090648
  entropy T*S    EENTRO =        -0.14442179
  eigenvalues    EBANDS =     -2441.46295635
  atomic energy  EATOM  =      9404.05877982
  Solvation  Ediel_sol  =         0.00000000
  ---------------------------------------------------
  free energy    TOTEN  =      -863.91762105 eV

  energy without entropy =     -863.77319927  energy(sigma->0) =     -863.84541016


--------------------------------------------------------------------------------------------------------




--------------------------------------- Iteration      1(  10)  ---------------------------------------


    POTLOK:  cpu time      2.1257: real time      2.1559
    SETDIJ:  cpu time      1.5959: real time      1.5967
    EDDIAG:  cpu time     37.4423: real time     37.4637
     EDDAV:  cpu time    182.5627: real time    182.6630
       DOS:  cpu time      0.0029: real time      0.0029
    CHARGE:  cpu time     21.8966: real time     21.9157
    MIXING:  cpu time      0.0452: real time      0.0452
    --------------------------------------------
      LOOP:  cpu time    245.6712: real time    245.8428

 eigenvalue-minimisations  :  2008
 total energy-change (2. order) : 0.2191066E-04  (-0.5371422E-04)
 number of electron     365.9999999 magnetization 
 augmentation part      -20.4657806 magnetization 

 Broyden mixing:
  rms(total) = 0.17478E-02    rms(broyden)= 0.17433E-01
  rms(prec ) = 0.19474E-02
  weight for this iteration     100.00
  WARNING: grid for Broyden might be to small

 eigenvalues of (default mixing * dielectric matrix)
  average eigenvalue GAMMA=   1.1132
  2.6215  2.6215  1.0543  0.8661  0.3458  0.6766  0.6766  0.5401  0.6164

 Free energy of the ion-electron system (eV)
  ---------------------------------------------------
  alpha Z        PSCENC =        47.05192315
  Ewald energy   TEWEN  =     56596.85736673
  -Hartree energ DENC   =    -64934.87189901
  -exchange      EXHF   =         0.00000000
  -V(xc)+E(xc)   XCENC  =      -443.04051855
  PAW double counting   =     52232.20926780   -51324.37333129
  entropy T*S    EENTRO =        -0.14436638
  eigenvalues    EBANDS =     -2441.66482143
  atomic energy  EATOM  =      9404.05877982
  Solvation  Ediel_sol  =         0.00000000
  ---------------------------------------------------
  free energy    TOTEN  =      -863.91759914 eV

  energy without entropy =     -863.77323277  energy(sigma->0) =     -863.84541596


--------------------------------------------------------------------------------------------------------




--------------------------------------- Iteration      1(  11)  ---------------------------------------


    POTLOK:  cpu time      2.2164: real time      2.2208
    SETDIJ:  cpu time      1.5872: real time      1.5884
    EDDIAG:  cpu time     37.4431: real time     37.4630
     EDDAV:  cpu time    179.6817: real time    179.7832
       DOS:  cpu time      0.0021: real time      0.0021
    CHARGE:  cpu time     21.8842: real time     21.9036
    MIXING:  cpu time      0.0470: real time      0.0470
    --------------------------------------------
      LOOP:  cpu time    242.8617: real time    243.0082

 eigenvalue-minimisations  :  1952
 total energy-change (2. order) :-0.1055815E-03  (-0.2460634E-04)
 number of electron     365.9999999 magnetization 
 augmentation part      -20.4658784 magnetization 

 Broyden mixing:
  rms(total) = 0.89563E-03    rms(broyden)= 0.59775E-02
  rms(prec ) = 0.11238E-02
  weight for this iteration     100.00
  WARNING: grid for Broyden might be to small

 eigenvalues of (default mixing * dielectric matrix)
  average eigenvalue GAMMA=   1.1222
  2.6923  2.6923  1.0895  1.0895  0.8842  0.3457  0.6773  0.6341  0.5584  0.5584

 Free energy of the ion-electron system (eV)
  ---------------------------------------------------
  alpha Z        PSCENC =        47.05192315
  Ewald energy   TEWEN  =     56596.85736673
  -Hartree energ DENC   =    -64934.61275405
  -exchange      EXHF   =         0.00000000
  -V(xc)+E(xc)   XCENC  =      -443.05683912
  PAW double counting   =     52225.32537697   -51317.48807360
  entropy T*S    EENTRO =        -0.14447770
  eigenvalues    EBANDS =     -2441.90900693
  atomic energy  EATOM  =      9404.05877982
  Solvation  Ediel_sol  =         0.00000000
  ---------------------------------------------------
  free energy    TOTEN  =      -863.91770473 eV

  energy without entropy =     -863.77322703  energy(sigma->0) =     -863.84546588


--------------------------------------------------------------------------------------------------------




--------------------------------------- Iteration      1(  12)  ---------------------------------------


    POTLOK:  cpu time      2.1258: real time      2.1523
    SETDIJ:  cpu time      1.5907: real time      1.5921
    EDDIAG:  cpu time     37.4359: real time     37.4566
     EDDAV:  cpu time    179.4945: real time    179.5970
       DOS:  cpu time      0.0025: real time      0.0025
    CHARGE:  cpu time     21.9035: real time     21.9222
    MIXING:  cpu time      0.0481: real time      0.0481
    --------------------------------------------
      LOOP:  cpu time    242.6010: real time    242.7710

 eigenvalue-minimisations  :  1952
 total energy-change (2. order) :-0.6572864E-04  (-0.1893946E-04)
 number of electron     365.9999999 magnetization 
 augmentation part      -20.4659329 magnetization 

 Broyden mixing:
  rms(total) = 0.43438E-03    rms(broyden)= 0.39212E-02
  rms(prec ) = 0.61169E-03
  weight for this iteration     100.00
  WARNING: grid for Broyden might be to small

 eigenvalues of (default mixing * dielectric matrix)
  average eigenvalue GAMMA=   1.1380
  2.7705  2.7705  1.5430  1.0921  0.3457  0.7912  0.7912  0.6888  0.6221  0.5515
  0.5515

 Free energy of the ion-electron system (eV)
  ---------------------------------------------------
  alpha Z        PSCENC =        47.05192315
  Ewald energy   TEWEN  =     56596.85736673
  -Hartree energ DENC   =    -64934.37679462
  -exchange      EXHF   =         0.00000000
  -V(xc)+E(xc)   XCENC  =      -443.06201375
  PAW double counting   =     52223.47269921   -51315.63481342
  entropy T*S    EENTRO =        -0.14439215
  eigenvalues    EBANDS =     -2442.14052543
  atomic energy  EATOM  =      9404.05877982
  Solvation  Ediel_sol  =         0.00000000
  ---------------------------------------------------
  free energy    TOTEN  =      -863.91777045 eV

  energy without entropy =     -863.77337830  energy(sigma->0) =     -863.84557438


--------------------------------------------------------------------------------------------------------




--------------------------------------- Iteration      1(  13)  ---------------------------------------


    POTLOK:  cpu time      2.1313: real time      2.1534
    SETDIJ:  cpu time      1.5936: real time      1.5949
    EDDIAG:  cpu time     37.4412: real time     37.4630
     EDDAV:  cpu time    178.0590: real time    178.1608
       DOS:  cpu time      0.0091: real time      0.0093
    CHARGE:  cpu time     21.8770: real time     21.8974
    MIXING:  cpu time      0.0632: real time      0.0639
    --------------------------------------------
      LOOP:  cpu time    241.1743: real time    241.3428

 eigenvalue-minimisations  :  1920
 total energy-change (2. order) :-0.9925359E-04  (-0.1666446E-04)
 number of electron     365.9999999 magnetization 
 augmentation part      -20.4659755 magnetization 

 Broyden mixing:
  rms(total) = 0.28431E-03    rms(broyden)= 0.26038E-02
  rms(prec ) = 0.42326E-03
  weight for this iteration     100.00
  WARNING: grid for Broyden might be to small

 eigenvalues of (default mixing * dielectric matrix)
  average eigenvalue GAMMA=   1.1447
  2.8161  2.8161  1.7391  1.0387  1.0387  0.3457  0.8276  0.6749  0.6531  0.6531
  0.5666  0.5666

 Free energy of the ion-electron system (eV)
  ---------------------------------------------------
  alpha Z        PSCENC =        47.05192315
  Ewald energy   TEWEN  =     56596.85736673
  -Hartree energ DENC   =    -64934.17209326
  -exchange      EXHF   =         0.00000000
  -V(xc)+E(xc)   XCENC  =      -443.06755557
  PAW double counting   =     52224.32478281   -51316.48700060
  entropy T*S    EENTRO =        -0.14441288
  eigenvalues    EBANDS =     -2442.33965991
  atomic energy  EATOM  =      9404.05877982
  Solvation  Ediel_sol  =         0.00000000
  ---------------------------------------------------
  free energy    TOTEN  =      -863.91786971 eV

  energy without entropy =     -863.77345683  energy(sigma->0) =     -863.84566327


--------------------------------------------------------------------------------------------------------




--------------------------------------- Iteration      1(  14)  ---------------------------------------


    POTLOK:  cpu time      2.1327: real time      2.1564
    SETDIJ:  cpu time      1.6102: real time      1.6127
    EDDIAG:  cpu time     37.4249: real time     37.4457
     EDDAV:  cpu time    177.7784: real time    177.8792
       DOS:  cpu time      0.0026: real time      0.0027
    CHARGE:  cpu time     21.8897: real time     21.9085
    MIXING:  cpu time      0.0487: real time      0.0487
    --------------------------------------------
      LOOP:  cpu time    240.8873: real time    241.0537

 eigenvalue-minimisations  :  1920
 total energy-change (2. order) :-0.8805970E-04  (-0.1356649E-04)
 number of electron     365.9999999 magnetization 
 augmentation part      -20.4660188 magnetization 

 Broyden mixing:
  rms(total) = 0.18930E-03    rms(broyden)= 0.14851E-02
  rms(prec ) = 0.30952E-03
  weight for this iteration     100.00
  WARNING: grid for Broyden might be to small

 eigenvalues of (default mixing * dielectric matrix)
  average eigenvalue GAMMA=   1.1828
  3.0485  2.7546  2.1580  1.3253  1.0445  0.9136  0.3457  0.7804  0.6388  0.6388
  0.5837  0.5722  0.5722

 Free energy of the ion-electron system (eV)
  ---------------------------------------------------
  alpha Z        PSCENC =        47.05192315
  Ewald energy   TEWEN  =     56596.85736673
  -Hartree energ DENC   =    -64934.02443921
  -exchange      EXHF   =         0.00000000
  -V(xc)+E(xc)   XCENC  =      -443.07238997
  PAW double counting   =     52223.95363362   -51316.11613080
  entropy T*S    EENTRO =        -0.14440699
  eigenvalues    EBANDS =     -2442.48229412
  atomic energy  EATOM  =      9404.05877982
  Solvation  Ediel_sol  =         0.00000000
  ---------------------------------------------------
  free energy    TOTEN  =      -863.91795777 eV

  energy without entropy =     -863.77355077  energy(sigma->0) =     -863.84575427


--------------------------------------------------------------------------------------------------------




--------------------------------------- Iteration      1(  15)  ---------------------------------------


    POTLOK:  cpu time      2.1331: real time      2.1608
    SETDIJ:  cpu time      1.5930: real time      1.5937
    EDDIAG:  cpu time     37.4179: real time     37.4379
     EDDAV:  cpu time    177.7703: real time    177.8703
       DOS:  cpu time      0.0029: real time      0.0029
    CHARGE:  cpu time     21.8733: real time     21.8938
    MIXING:  cpu time      0.0504: real time      0.0504
    --------------------------------------------
      LOOP:  cpu time    240.8409: real time    241.0097

 eigenvalue-minimisations  :  1920
 total energy-change (2. order) :-0.1065785E-03  (-0.2139386E-04)
 number of electron     365.9999999 magnetization 
 augmentation part      -20.4660460 magnetization 

 Broyden mixing:
  rms(total) = 0.12971E-03    rms(broyden)= 0.15224E-02
  rms(prec ) = 0.20438E-03
  weight for this iteration     100.00
  WARNING: grid for Broyden might be to small

 eigenvalues of (default mixing * dielectric matrix)
  average eigenvalue GAMMA=   1.2040
  3.2654  2.7078  2.4452  1.3436  1.0502  1.0502  0.8812  0.3457  0.7544  0.6432
  0.6220  0.6220  0.5622  0.5622

 Free energy of the ion-electron system (eV)
  ---------------------------------------------------
  alpha Z        PSCENC =        47.05192315
  Ewald energy   TEWEN  =     56596.85736673
  -Hartree energ DENC   =    -64933.83440670
  -exchange      EXHF   =         0.00000000
  -V(xc)+E(xc)   XCENC  =      -443.07488602
  PAW double counting   =     52223.73556922   -51315.89831522
  entropy T*S    EENTRO =        -0.14441428
  eigenvalues    EBANDS =     -2442.66968105
  atomic energy  EATOM  =      9404.05877982
  Solvation  Ediel_sol  =         0.00000000
  ---------------------------------------------------
  free energy    TOTEN  =      -863.91806435 eV

  energy without entropy =     -863.77365006  energy(sigma->0) =     -863.84585720


--------------------------------------------------------------------------------------------------------




[...]
   0.205E+02 -.148E+02 -.284E+03   -.183E+02 0.115E+02 0.282E+03   -.213E+01 0.345E+01 0.190E+01   -.476E-05 0.122E-04 0.446E-05
   0.898E+01 -.246E+02 -.270E+02   -.906E+01 0.245E+02 0.276E+02   0.108E+00 0.286E+00 -.706E+00   0.139E-04 -.740E-05 0.183E-04
   -.667E+01 -.489E+02 -.315E+03   0.591E+01 0.455E+02 0.316E+03   0.611E+00 0.269E+01 -.733E+00   0.260E-04 0.522E-04 0.236E-04
   -.346E+02 0.288E+02 0.193E+03   0.338E+02 -.288E+02 -.193E+03   0.102E+01 0.859E-01 -.432E+00   0.217E-04 0.114E-04 -.824E-05
   -.569E-01 0.175E+02 -.100E+03   -.184E+01 -.161E+02 0.998E+02   0.207E+01 -.166E+01 -.268E+00   -.398E-04 -.180E-04 -.114E-04
   -.224E+02 0.689E+01 0.286E+03   0.204E+02 -.440E+01 -.285E+03   0.205E+01 -.271E+01 -.636E+00   0.469E-05 0.369E-05 -.210E-04
   0.204E+02 -.332E+01 0.353E+03   -.185E+02 0.331E+01 -.356E+03   -.179E+01 -.183E+00 0.301E+01   -.883E-05 0.400E-05 -.573E-05
   -.176E+02 -.197E+02 0.254E+03   0.176E+02 0.179E+02 -.253E+03   0.136E+00 0.200E+01 -.126E+01   -.423E-04 -.644E-04 -.224E-04
   -.643E+01 -.782E+01 0.727E+02   0.588E+01 0.749E+01 -.714E+02   0.501E+00 0.330E+00 -.114E+01   0.505E-05 -.279E-04 -.418E-04
   -.101E+02 -.117E+02 0.268E+03   0.931E+01 0.937E+01 -.267E+03   0.108E+00 0.210E+01 -.162E+01   0.258E-05 0.483E-05 -.202E-04
   -.183E+02 0.410E+01 -.284E+03   0.166E+02 -.442E+01 0.279E+03   0.160E+01 0.318E+00 0.466E+01   0.637E-05 -.212E-04 0.144E-05
   0.982E+01 -.861E+01 0.393E+03   -.984E+01 0.957E+01 -.394E+03   0.536E-01 -.892E+00 0.866E+00   -.187E-04 0.167E-04 -.227E-04
   0.908E+01 0.104E+02 0.261E+03   -.954E+01 -.119E+02 -.264E+03   0.142E+00 0.134E+01 0.238E+01   0.130E-04 0.768E-05 -.739E-05
   -.156E+02 -.911E+01 -.119E+03   0.137E+02 0.954E+01 0.118E+03   0.198E+01 -.245E+00 0.124E+01   -.226E-04 -.160E-04 -.994E-05
   0.912E+00 0.156E+02 -.165E+03   -.942E+00 -.166E+02 0.165E+03   0.226E-01 0.761E+00 -.260E+00   0.146E-04 0.966E-05 0.120E-04
   -.155E+02 -.571E+00 0.117E+03   0.150E+02 0.437E+00 -.116E+03   0.250E+00 0.203E+00 -.156E+01   0.211E-04 0.365E-05 -.191E-04
   -.107E+02 -.108E+02 -.934E+02   0.972E+01 0.100E+02 0.920E+02   0.104E+01 0.661E+00 0.110E+01   0.215E-04 -.161E-04 -.845E-05
   -.119E+02 -.875E+01 -.279E+03   0.120E+02 0.833E+01 0.275E+03   0.692E-01 0.530E+00 0.401E+01   -.315E-05 0.703E-06 0.632E-05
   -.127E+02 -.229E+01 -.337E+03   0.105E+02 0.249E+01 0.338E+03   0.186E+01 -.931E-01 -.167E+01   -.112E-04 0.422E-05 0.530E-05
   -.409E+01 -.207E+02 0.209E+03   0.509E+01 0.217E+02 -.207E+03   -.943E+00 -.919E+00 -.150E+01   -.574E-04 -.303E-04 -.256E-04
   -.321E+01 -.941E+01 0.604E+02   0.257E+01 0.107E+02 -.602E+02   0.684E+00 -.102E+01 -.898E-01   0.222E-04 0.421E-06 0.132E-04
   0.763E+01 -.281E+02 -.197E+03   -.731E+01 0.284E+02 0.196E+03   -.226E+00 -.293E-01 0.143E+01   -.400E-04 -.196E-04 -.267E-05
   -.612E+01 0.316E+01 -.176E+03   0.594E+01 -.491E+01 0.175E+03   0.211E+00 0.160E+01 0.116E+01   -.272E-04 0.842E-05 0.751E-05
   0.290E+02 0.182E+02 0.313E+03   -.251E+02 -.167E+02 -.309E+03   -.347E+01 -.170E+01 -.414E+01   0.517E-04 0.505E-04 -.841E-05
   0.403E+01 0.194E+02 -.820E+01   -.330E+01 -.186E+02 0.918E+01   -.733E+00 -.854E+00 -.926E+00   -.791E-05 0.309E-05 0.657E-05
   -.223E+02 0.248E+02 -.198E+03   0.212E+02 -.233E+02 0.199E+03   0.872E+00 -.165E+01 -.151E+01   0.111E-04 -.508E-05 0.290E-04
   0.256E+02 0.725E+01 -.294E+03   -.232E+02 -.633E+01 0.291E+03   -.202E+01 -.994E+00 0.342E+01   -.131E-04 -.825E-05 0.165E-04
   0.200E+02 0.155E+01 0.101E+03   -.199E+02 -.302E+01 -.101E+03   -.230E+00 0.134E+01 0.306E+00   0.253E-04 -.580E-05 -.252E-05
   -.255E+00 -.100E+02 0.175E+03   -.607E+00 0.105E+02 -.173E+03   0.568E+00 -.559E+00 -.115E+01   -.208E-04 -.189E-04 -.128E-04
   0.172E+01 -.337E+01 0.641E+02   -.121E+01 0.456E+01 -.628E+02   -.379E+00 -.108E+01 -.118E+01   0.144E-04 -.103E-05 0.122E-04
   0.196E+02 -.100E+02 -.730E+02   -.186E+02 0.104E+02 0.729E+02   -.107E+01 -.526E+00 0.351E-01   -.101E-04 -.663E-05 0.674E-05
   -.117E+02 -.413E+02 -.381E+02   0.116E+02 0.391E+02 0.397E+02   -.120E-01 0.232E+01 -.140E+01   -.108E-05 -.122E-04 -.194E-04
   0.788E+01 0.436E+02 -.328E+03   -.576E+01 -.398E+02 0.328E+03   -.223E+01 -.316E+01 -.120E+00   0.124E-04 -.393E-05 0.719E-05
   -.140E+02 0.300E+02 0.319E+03   0.133E+02 -.293E+02 -.316E+03   0.480E+00 -.340E+00 -.240E+01   -.620E-05 0.908E-05 -.224E-04
   0.132E+02 -.423E+01 -.413E+02   -.133E+02 0.499E+01 0.392E+02   -.161E-02 -.771E+00 0.180E+01   0.146E-04 -.163E-05 -.206E-04
   -.212E+02 0.763E+01 0.360E+03   0.202E+02 -.699E+01 -.362E+03   0.104E+01 -.732E+00 0.177E+01   -.262E-04 -.281E-04 0.144E-05
   0.177E+02 -.196E+02 -.319E+03   -.176E+02 0.193E+02 0.316E+03   0.356E-01 0.623E+00 0.383E+01   -.413E-04 -.172E-04 0.312E-05
   -.859E+01 0.285E+02 -.277E+03   0.754E+01 -.257E+02 0.276E+03   0.128E+01 -.252E+01 0.713E+00   -.227E-04 0.443E-06 0.106E-04
   -.116E+02 0.157E+02 -.255E+03   0.113E+02 -.146E+02 0.253E+03   0.373E+00 -.144E+01 0.235E+01   0.195E-04 -.109E-05 0.129E-04
   0.766E+01 -.158E+02 -.261E+03   -.484E+01 0.158E+02 0.259E+03   -.289E+01 0.204E-01 0.169E+01   -.115E-04 0.166E-04 0.110E-04
   -.103E+02 0.370E+02 -.121E+03   0.925E+01 -.338E+02 0.120E+03   0.125E+01 -.294E+01 0.122E+01   0.467E-05 -.145E-04 0.113E-04
   0.340E+01 -.120E+02 0.229E+03   -.317E+01 0.106E+02 -.231E+03   -.163E+00 0.993E+00 0.180E+01   0.198E-04 -.744E-05 -.198E-04
 -----------------------------------------------------------------------------------------------
   -.307E+01 0.151E+02 -.769E+01   0.977E-14 0.497E-13 0.142E-12   0.308E+01 -.150E+02 0.770E+01   0.128E-04 0.338E-04 -.299E-03


 POSITION                                       TOTAL-FORCE (eV/Angst)
 -----------------------------------------------------------------------------------
      3.90679     12.26025     14.73348         0.052362     -0.094791     -0.004291
      0.47685      9.91234     19.47214        -0.180122     -0.306857      0.119571
     13.91296      0.94382     11.86641        -0.168883     -0.087485      0.113551
      8.64682      2.22155     16.91715        -0.036508      0.007057      0.056290
      1.10333      6.40952     16.99825        -0.283164     -0.128537     -0.087857
     13.23954      6.21331     17.18778        -0.121575      0.138719     -0.073907
      9.21816      9.88084     13.16566        -0.145724      0.299564     -0.169968
     11.54797     11.71075     17.71264         0.125872     -0.285983     -0.179565
      7.85033     12.94217     14.11386         0.031721      0.097437     -0.016828
     13.57861      2.98765     14.63156         0.189101     -0.129117      0.127973
      3.40466      7.74502     10.73917         0.472609      0.295715      0.238389
     13.56397     12.49198     18.25043         0.076932      0.005037      0.034649
      1.29503      0.33135     13.09708         0.000010      0.228269     -0.212013
      7.07961      2.90234     10.91772        -0.527172      0.089836      0.077083
     10.51001      1.63706     10.72830         0.186898     -0.066288     -0.245077
     12.04256      7.76327     11.21317         0.415424      0.131732     -0.125843
      8.83443     12.94496     10.84979        -0.119292      0.003988      0.346360
      7.50619      0.60965     13.31789        -0.106368      0.132717      0.136785
     14.05721      7.03749     12.31359        -0.081895     -0.011712     -0.069133
      6.47920      7.40278     11.23098        -0.092031      0.351809      0.426606
     10.07287     12.90355     14.91610        -0.022608     -0.014739     -0.113481
     14.19071     13.54918     16.23797        -0.165630     -0.067960      0.082089
     10.26096      7.19518     14.77695         0.064059     -0.022126     -0.037866
     11.04565     12.29940     11.48012        -0.057292      0.330834      0.077928
      6.05463      5.75832     13.66902        -0.170436     -0.025192      0.003748
     11.73084      0.05556     11.93724         0.171213     -0.209070      0.182482
      2.34949      4.18555     12.85348         0.104287      0.015433     -0.123236
      5.12265      3.11379     16.70041        -0.102363      0.094354      0.290949
      2.15363      1.24228     15.08192         0.127660     -0.074516      0.113620
      0.17038      2.19085     17.84301        -0.159671      0.006151     -0.141383
      1.35817      8.14694     15.38385         0.074444     -0.002757     -0.127344
      3.26212     13.46265     17.79257         0.011051     -0.481208     -0.496581
     13.42854     10.51584     13.60807        -0.009041      0.286478      0.154180
      7.94066     11.67666     17.71262        -0.096129      0.081814     -0.017049
      4.79215      5.85518     10.77831         0.154017     -0.573832     -0.668175
      2.81622      0.40139     11.26961        -0.031258      0.126038     -0.081945
      6.31435      4.90388     15.84305        -0.088178      0.287698      0.312485
     10.98111      0.36749     14.19355        -0.009339      0.015309     -0.148688
     11.11688     11.24108     13.59494        -0.081250     -0.063161     -0.083774
      5.61020      6.98657     16.70055         0.034238     -0.219477      0.094398
      7.73693      4.64193     12.38307         0.125224     -0.024990     -0.204981
      7.64045     11.48994     12.28547         0.077704     -0.101558     -0.163463
     10.29577      0.92715     17.98630        -0.118687     -0.140360      0.121943
      5.00407      3.54920     10.13841        -0.049424      0.149834     -0.184609
      0.33534      4.86069     11.78110         0.039922      0.068608      0.074138
      1.92299     12.64588     13.22191         0.061982     -0.363549      0.178883
      3.55442      4.24344     17.98283         0.154238      0.439287     -0.225547
      3.32621     11.14739     17.40622        -0.056034      0.636560      0.409316
      6.53979      1.53751     17.64686        -0.036554      0.074615     -0.075175
      0.47710     11.77354     14.89001         0.241333     -0.206581     -0.009373
      8.64934      6.46365     11.26687         0.027380     -0.049913     -0.401377
      9.81535     13.11822     17.25395         0.030955      0.268439      0.308194
      6.24268      7.94256     14.57463         0.035001      0.114516     -0.075564
      3.47065      6.54813     17.77808        -0.098525     -0.720339     -0.032877
      4.11120     13.27878     12.49768         0.113306      0.116184      0.000813
     12.86216      0.86783     15.48103         0.259093     -0.270676     -0.402356
     14.38146     10.42711     11.42018         0.078026     -0.346305     -0.175082
     12.23025     10.12876     10.55554         0.142856     -0.254231     -0.142166
     11.10394      3.71390     11.67009         0.080831      0.256407     -0.156082
      9.59523      3.78620     13.50116        -0.039279      0.011742      0.079496
      1.33271      8.47948     11.69463        -0.604705     -0.184256     -0.023705
      1.42502      0.29107     17.05407        -0.062033      0.021267      0.295554
      0.76024     14.50289     10.16060         0.122665     -0.090347     -0.345458
      5.31139     11.15792     11.99604        -0.229384     -0.037194      0.019117
     10.22008      4.97129     15.37016         0.239287      0.187309      0.035200
      6.52469     12.41483     16.01227        -0.032085     -0.250443      0.068536
      5.15749      0.90352     13.20462        -0.242023      0.078243      0.144510
      4.44641      1.30676     15.35671         0.063176     -0.061170     -0.139252
      8.43450      4.69886     16.82321         0.092782      0.149887     -0.090386
      7.80062      7.10269     17.64398        -0.288849      0.126489     -0.173153
     13.31952      3.21816     12.30477         0.005810     -0.002489     -0.223459
      2.85899      8.18064     13.49850         0.096080      0.169771      0.083443
     12.30729      4.22145     16.24572         0.079614      0.209128      0.128691
     12.13988      7.93457     15.98144         0.022304     -0.073774      0.097622
      8.38992      0.88102     11.16172         0.241636     -0.250498     -0.004238
     13.78107      8.31002     14.34143        -0.024684     -0.091166     -0.000626
      1.40416     10.26154     16.46195        -0.226076     -0.214103     -0.199361
      8.68859      9.44103     17.20127         0.353631     -0.141231      0.196852
      3.80328      6.03546     12.92129        -0.102974     -0.054659      0.324424
     10.11688      7.78835     12.51888        -0.254725     -0.102688      0.125604
      4.76382      9.59987     13.74770         0.111830      0.037797      0.057468
      8.43286      8.67762     15.03440        -0.111854     -0.190951     -0.080367
      1.36826      3.38056     14.84576        -0.102189      0.193225      0.121279
     14.40911     10.35909     18.18709        -0.113937      0.476583     -0.084543
      0.99178     12.38109     11.13084        -0.222368      0.372124      0.254211
      9.09841      1.79029     14.57613        -0.058249     -0.051230     -0.161777
     10.76964      5.84558     10.45874         0.100030     -0.094551      0.271131
     12.30660      2.08211     17.38357         0.209376      0.289487      0.245666
     11.01492      9.59760     17.19121         0.251829      0.214167      0.179895
      5.29319     14.24976     16.85718         0.126606     -0.405312      0.246766
      1.48510      4.08018     17.04120        -0.217998      0.080692      0.046315
      4.62366     11.17604     15.49145         0.191008      0.263488     -0.156865
      3.81390      2.46374     11.83720         0.081151     -0.392467      0.051648
 -----------------------------------------------------------------------------------
    total drift:                                0.006112      0.019531      0.007600


--------------------------------------------------------------------------------------------------------



  FREE ENERGIE OF THE ION-ELECTRON SYSTEM (eV)
  ---------------------------------------------------
  free  energy   TOTEN  =      -863.91821920 eV

  energy  without entropy=     -863.77381033  energy(sigma->0) =     -863.84601477



--------------------------------------------------------------------------------------------------------


    POTLOK:  cpu time      3.7156: real time      3.7182


--------------------------------------------------------------------------------------------------------


     LOOP+:  cpu time   5743.9925: real time   5748.0962
    4ORBIT:  cpu time      0.0000: real time      0.0000



 total charge

# of ion       s       p       d       tot
------------------------------------------
    1        0.567   0.018   0.000   0.585
    2        0.564   0.016   0.000   0.580
    3        0.757   0.908   0.000   1.666
    4        0.759   0.890   0.000   1.649
    5        0.756   0.865   0.000   1.621
    6        0.791   0.838   0.000   1.629
    7        0.764   0.902   0.000   1.666
    8        0.782   0.910   0.000   1.692
    9        0.767   0.921   0.000   1.689
   10        0.770   0.901   0.000   1.671
   11        0.854   0.728   0.000   1.582
   12        0.802   0.901   0.000   1.703
   13        0.775   0.918   0.000   1.694
   14        0.796   0.828   0.000   1.624
   15        0.797   0.879   0.000   1.676
   16        0.756   0.889   0.000   1.646
   17        0.796   0.811   0.000   1.608
   18        0.760   0.929   0.000   1.690
   19        0.750   0.898   0.000   1.648
   20        0.860   0.730   0.000   1.590
   21        0.763   0.932   0.000   1.695
   22        0.753   0.927   0.000   1.680
   23        0.755   0.956   0.000   1.712
   24        0.763   0.858   0.000   1.620
   25        0.758   0.900   0.000   1.658
   26        0.755   0.907   0.000   1.661
   27        0.750   0.903   0.000   1.653
   28        0.756   0.951   0.000   1.707
   29        0.773   0.964   0.000   1.737
   30        0.805   0.793   0.000   1.599
   31        0.759   0.910   0.000   1.669
   32        0.782   0.842   0.000   1.624
   33        0.759   0.899   0.000   1.658
   34        0.798   0.834   0.000   1.632
   35        0.779   0.893   0.000   1.672
   36        0.780   0.897   0.000   1.677
   37        0.768   0.942   0.000   1.709
   38        0.762   0.940   0.000   1.702
   39        0.756   0.907   0.000   1.662
   40        0.764   0.897   0.000   1.661
   41        0.755   0.926   0.000   1.681
   42        0.750   0.917   0.000   1.667
   43        0.802   0.808   0.000   1.610
   44        0.804   0.863   0.000   1.667
   45        0.787   0.860   0.000   1.647
   46        0.766   0.934   0.000   1.700
   47        0.789   0.900   0.000   1.688
   48        0.789   0.880   0.000   1.669
   49        0.800   0.870   0.000   1.669
   50        0.760   0.914   0.000   1.673
   51        0.757   0.945   0.000   1.702
   52        0.759   0.911   0.000   1.670
   53        0.767   0.892   0.000   1.659
   54        0.815   0.789   0.000   1.604
   55        0.771   0.831   0.000   1.602
   56        0.757   0.921   0.000   1.678
   57        0.753   0.924   0.000   1.677
   58        0.820   0.769   0.000   1.589
   59        0.752   0.909   0.000   1.660
   60        0.759   0.951   0.000   1.710
   61        0.760   0.886   0.000   1.646
   62        0.753   0.934   0.000   1.687
   63        0.819   0.820   0.000   1.639
   64        0.804   0.805   0.000   1.609
   65        0.751   0.973   0.000   1.723
   66        0.755   0.944   0.000   1.699
   67        0.763   0.894   0.000   1.657
   68        0.760   0.953   0.000   1.713
   69        0.769   0.867   0.000   1.636
   70        0.831   0.724   0.000   1.555
   71        0.751   0.942   0.000   1.692
   72        0.749   0.899   0.000   1.648
   73        0.750   0.894   0.000   1.644
   74        0.746   0.934   0.000   1.680
   75        0.753   0.888   0.000   1.641
   76        0.768   0.916   0.000   1.684
   77        0.751   0.953   0.000   1.704
   78        0.758   0.897   0.000   1.655
   79        0.753   0.913   0.000   1.666
   80        0.762   0.931   0.000   1.692
   81        0.750   0.911   0.000   1.661
   82        0.757   0.935   0.000   1.692
   83        0.765   0.951   0.000   1.716
   84        0.781   0.897   0.000   1.678
   85        0.793   0.871   0.000   1.664
   86        0.765   0.919   0.000   1.684
   87        0.818   0.788   0.000   1.606
   88        0.765   0.886   0.000   1.651
   89        0.770   0.902   0.000   1.672
   90        0.755   0.929   0.000   1.684
   91        0.756   0.921   0.000   1.677
   92        0.758   0.962   0.000   1.720
   93        0.754   0.869   0.000   1.623
--------------------------------------------------
tot         71.367  81.152   0.000 152.519


 total amount of memory used by VASP MPI-rank0   361802. kBytes
=======================================================================

   base                                    :      30000. kBytes
   nonl-proj                               :      70768. kBytes
   fftplans                                :     110216. kBytes
   grid                                    :      85039. kBytes
   one-center                              :         18. kBytes
   wavefun                                 :      65761. kBytes

  
  
 General timing and accounting informations for this job:
 ========================================================
  
                  Total CPU time used (sec):     5891.180
                            User time (sec):     5233.629
                          System time (sec):      657.551
                         Elapsed time (sec):     5895.371
  
                   Maximum memory used (kb):      628544.
                   Average memory used (kb):          N/A
  
                          Minor page faults:     12359065
                          Major page faults:         1190
                 Voluntary context switches:         3129
