 vasp.6.5.0 16Dec24 (build Jan 20 2025 08:32:48) complex                         
 executed on        HPECrayEX_GCC date 2025.07.22  00:58:27
 running  128 mpi-ranks, with    1 threads/rank, on    1 nodes
 distrk:  each k-point on  128 cores,    1 groups
 distr:  one band on NCORE=  16 cores,    8 groups


--------------------------------------------------------------------------------------------------------


 INCAR:
   SYSTEM = a-Si SPC
   NCORE = 16
   ISTART = 1
   ICHARG = 1
   ISPIN = 1
   ISYM = 1
   EDIFF = 1E-6
   NELM = 150
   EDIFFG = -0.01
   NSW = 0
   ISIF = 2
   IBRION = -1
   PREC = Accurate
   ENCUT = 1200
   KSPACING = 0.23
   KGAMMA = .TRUE.
   METAGGA = SCAN
   LASPH = .TRUE.
   LDIAG = .FALSE.
   LMIXTAU = .TRUE.
   ADDGRID = .TRUE.
   ALGO = Normal
   ISMEAR = 0
   SIGMA = 0.1
   LORBIT = 11
   NEDOS = 2000
   LWAVE = .FALSE.
   LCHARG = .FALSE.

 POTCAR:    PAW_PBE H 15Jun2001                   
 POTCAR:    PAW_PBE Si 05Jan2001                  
 POTCAR:    PAW_PBE H 15Jun2001                   
   SHA256 =  030f79b5d3ab3cf0e668861823c8fb652ff669f3e15e46930bd03bfd63a607b6 H/POTCAR              
   COPYR  = (c) Copyright 15Jun2001 Georg Kresse                                                    
   COPYR  = This file is part of the software VASP. Any use, copying, and all other rights are regul
   COPYR  = If you do not have a valid VASP license, you may not use, copy or distribute this file. 
   VRHFIN =H: ultrasoft test                                                                        
   LEXCH  = PE                                                                                      
   EATOM  =    12.4884 eV,    0.9179 Ry                                                             
                                                                                                    
   TITEL  = PAW_PBE H 15Jun2001                                                                     
   LULTRA =        F    use ultrasoft PP ?                                                          
   IUNSCR =        0    unscreen: 0-lin 1-nonlin 2-no                                               
   RPACOR =    0.000    partial core radius                                                         
   POMASS =    1.000; ZVAL   =    1.000    mass and valenz                                          
   RCORE  =    1.100    outmost cutoff radius                                                       
   RWIGS  =    0.700; RWIGS  =    0.370    wigner-seitz radius (au A)                               
   ENMAX  =  250.000; ENMIN  =  200.000 eV                                                          
   RCLOC  =    0.701    cutoff for local pot                                                        
   LCOR   =        T    correct aug charges                                                         
   LPAW   =        T    paw PP                                                                      
   EAUG   =  400.000                                                                                
   RMAX   =    1.123    core radius for proj-oper                                                   
   RAUG   =    1.200    factor for augmentation sphere                                              
   RDEP   =    1.112    radius for radial grids                                                     
   RDEPT  =    0.926    core radius for aug-charge                                                  
                                                                                                    
   Atomic configuration                                                                             
    2 entries                                                                                       
     n  l   j            E        occ.                                                              
     1  0  0.50        -6.4927   1.0000                                                             
     2  1  0.50        -3.4015   0.0000                                                             
   Description                                                                                      
     l       E           TYP  RCUT    TYP  RCUT                                                     
     0     -6.4927494     23  1.100                                                                 
     0      6.8029130     23  1.100                                                                 
     1     -4.0817478     23  1.100                                                                 
  local pseudopotential read in
  atomic valenz-charges read in
  non local Contribution for L=           0  read in
    real space projection operators read in
  non local Contribution for L=           0  read in
    real space projection operators read in
  non local Contribution for L=           1  read in
    real space projection operators read in
    PAW grid and wavefunctions read in

   number of l-projection  operators is LMAX  =           3
   number of lm-projection operators is LMMAX =           5

 POTCAR:    PAW_PBE Si 05Jan2001                  
   SHA256 =  79d9987ad8750f624c4d6acb2a16d13abf6a777132adc04dc6c8399be72b42bb Si/POTCAR             
   COPYR  = (c) Copyright 05Jan2001 Georg Kresse                                                    
   COPYR  = This file is part of the software VASP. Any use, copying, and all other rights are regul
   COPYR  = If you do not have a valid VASP license, you may not use, copy or distribute this file. 
   VRHFIN =Si: s2p2                                                                                 
   LEXCH  = PE                                                                                      
   EATOM  =   103.0669 eV,    7.5752 Ry                                                             
                                                                                                    
   TITEL  = PAW_PBE Si 05Jan2001                                                                    
   LULTRA =        F    use ultrasoft PP ?                                                          
   IUNSCR =        1    unscreen: 0-lin 1-nonlin 2-no                                               
   RPACOR =    1.500    partial core radius                                                         
   POMASS =   28.085; ZVAL   =    4.000    mass and valenz                                          
   RCORE  =    1.900    outmost cutoff radius                                                       
   RWIGS  =    2.480; RWIGS  =    1.312    wigner-seitz radius (au A)                               
   ENMAX  =  245.345; ENMIN  =  184.009 eV                                                          
   ICORE  =        2    local potential                                                             
   LCOR   =        T    correct aug charges                                                         
   LPAW   =        T    paw PP                                                                      
   EAUG   =  322.069                                                                                
   DEXC   =    0.000                                                                                
   RMAX   =    1.950    core radius for proj-oper                                                   
   RAUG   =    1.300    factor for augmentation sphere                                              
   RDEP   =    1.993    radius for radial grids                                                     
   RDEPT  =    1.837    core radius for aug-charge                                                  
                                                                                                    
   Atomic configuration                                                                             
    6 entries                                                                                       
     n  l   j            E        occ.                                                              
     1  0  0.50     -1785.8828   2.0000                                                             
     2  0  0.50      -139.4969   2.0000                                                             
     2  1  1.50       -95.5546   6.0000                                                             
     3  0  0.50       -10.8127   2.0000                                                             
     3  1  0.50        -4.0811   2.0000                                                             
     3  2  1.50        -4.0817   0.0000                                                             
   Description                                                                                      
     l       E           TYP  RCUT    TYP  RCUT                                                     
     0    -10.8127223     23  1.900                                                                 
     0     -7.6451159     23  1.900                                                                 
     1     -4.0811372     23  1.900                                                                 
     1      2.4879257     23  1.900                                                                 
     2     -4.0817478      7  1.900                                                                 
  local pseudopotential read in
  partial core-charges read in
  partial kinetic energy density read in
  atomic valenz-charges read in
  non local Contribution for L=           0  read in
    real space projection operators read in
  non local Contribution for L=           0  read in
    real space projection operators read in
  non local Contribution for L=           1  read in
    real space projection operators read in
  non local Contribution for L=           1  read in
    real space projection operators read in
    PAW grid and wavefunctions read in

   number of l-projection  operators is LMAX  =           4
   number of lm-projection operators is LMMAX =           8

 -----------------------------------------------------------------------------
|                                                                             |
|               ----> ADVICE to this user running VASP <----                  |
|                                                                             |
|     You have a (more or less) 'large supercell' and for larger cells it     |
|     might be more efficient to use real-space projection operators.         |
|     Therefore, try LREAL= Auto in the INCAR file.                           |
|     Mind: For very accurate calculation, you might also keep the            |
|     reciprocal projection scheme (i.e. LREAL=.FALSE.).                      |
|                                                                             |
 -----------------------------------------------------------------------------

 -----------------------------------------------------------------------------
|                                                                             |
|               ----> ADVICE to this user running VASP <----                  |
|                                                                             |
|     You enforced a specific xc type in the INCAR file but a different       |
|     type was found in the POTCAR file.                                      |
|     I HOPE YOU KNOW WHAT YOU ARE DOING!                                     |
|                                                                             |
 -----------------------------------------------------------------------------

  PAW_PBE H 15Jun2001                   :
 energy of atom  1       EATOM=  -12.4884
 kinetic energy error for atom=    0.0000 (will be added to EATOM!!)
  PAW_PBE Si 05Jan2001                  :
 energy of atom  2       EATOM= -103.0669
 kinetic energy error for atom=    0.0001 (will be added to EATOM!!)


 POSCAR:  H Si
  positions in cartesian coordinates
  No initial velocities read in


 exchange-correlation table for SCAN
   RHO(1)=    0.500       N(1)  =     2000
   RHO(2)=  100.500       N(2)  =     4000



--------------------------------------------------------------------------------------------------------


 ion  position               nearest neighbor table
   1  0.536  0.740  0.490-  28 1.51
   2  0.414  0.985  0.608-  33 1.53
   3  0.548  0.116  0.353-  19 1.43
   4  0.357  0.024  0.955-  71 1.46
   5  0.778  0.824  0.622-  26 1.47
   6  0.399  0.762  0.286-  73 1.50
   7  0.433  0.686  0.830-  60 1.59
   8  0.663  0.101  0.245-  11 1.47
   9  0.510  0.127  0.906-  59 1.51
  10  0.739  0.973  0.553-  72 1.53
  11  0.745  0.159  0.261-   8 1.47  42 2.28  15 2.37  38 2.40
  12  0.754  0.310  0.929-  30 2.17  15 2.33  20 2.34  76 2.48
  13  0.182  0.350  0.613-  17 2.28  39 2.32  74 2.32  49 2.44
  14  0.999  0.205  0.799-  61 2.25  20 2.37  49 2.38  37 2.43
  15  0.697  0.307  0.180-  12 2.33  78 2.33  11 2.37  68 2.45
  16  0.005  0.522  0.702-  17 2.24  77 2.32  40 2.38  23 2.48
  17  0.151  0.482  0.742-  16 2.24  13 2.28  32 2.29  63 2.32
  18  0.673  0.552  0.888-  82 2.25  30 2.26  54 2.34  35 2.36
  19  0.507  0.200  0.402-   3 1.43  66 2.33  80 2.38  68 2.46
  20  0.892  0.240  0.997-  42 2.25  12 2.34  14 2.37  70 2.39
  21  0.150  0.060  0.232-  27 2.33  44 2.39  25 2.49  50 2.51
  22  0.139  0.720  0.594-  52 2.22  40 2.24  41 2.42  63 2.43
  23  0.976  0.603  0.949-  67 2.31  62 2.44  16 2.48  83 2.51
  24  0.470  0.552  0.618-  28 2.22  35 2.33  55 2.40  60 2.69
  25  0.984  0.087  0.279-  53 2.35  51 2.44  21 2.49  42 2.51
  26  0.815  0.730  0.625-   5 1.47  64 2.35  54 2.41  67 2.50
  27  0.148  0.005  0.980-  37 2.31  21 2.33  71 2.45  69 2.45
  28  0.567  0.642  0.491-   1 1.51  24 2.22  56 2.38  54 2.39
  29  0.467  0.450  0.201-  56 2.30  81 2.30  55 2.38  68 2.43
  30  0.792  0.452  0.899-  12 2.17  18 2.26  62 2.36  77 2.37
  31  0.084  0.800  0.202-  48 2.33  69 2.35  83 2.39  52 2.41
  32  0.178  0.420  0.980-  57 2.28  17 2.29  49 2.39
  33  0.325  0.037  0.582-   2 1.53  50 2.36  66 2.43  71 2.50
  34  0.270  0.211  0.968-  49 2.31  71 2.32  75 2.37  44 2.44
  35  0.553  0.461  0.791-  76 2.28  24 2.33  18 2.36  81 2.44
  36  0.065  0.949  0.617-  37 2.26  53 2.30  50 2.43  41 2.43
  37  0.027  0.041  0.817-  36 2.26  27 2.31  47 2.39  14 2.43
  38  0.771  0.178  0.532-  72 2.38  11 2.40  61 2.41  80 2.48
  39  0.337  0.320  0.596-  13 2.32  66 2.39  75 2.43  55 2.57
  40  0.032  0.627  0.496-  22 2.24  45 2.28  16 2.38  64 2.41
  41  0.056  0.813  0.780-  69 2.31  67 2.40  22 2.42  36 2.43
  42  0.851  0.102  0.095-  20 2.25  11 2.28  47 2.42  25 2.51
  43  0.783  0.494  0.498-  78 2.27  77 2.35  65 2.43  54 2.44
  44  0.247  0.192  0.245-  66 2.33  21 2.39  34 2.44  74 2.46
  45  0.122  0.548  0.327-  40 2.28  83 2.30  57 2.31  79 2.38
  46  0.857  0.855  0.010-  67 2.32  47 2.40  48 2.48
  47  0.873  0.999  0.879-  37 2.39  46 2.40  42 2.42  72 2.52
  48  0.936  0.847  0.263-  31 2.33  53 2.37  64 2.45  46 2.48
  49  0.141  0.278  0.858-  34 2.31  14 2.38  32 2.39  13 2.44
  50  0.201  0.964  0.456-  33 2.36  52 2.41  36 2.43  21 2.51
  51  0.988  0.243  0.382-  74 2.29  61 2.34  70 2.37  25 2.44
  52  0.198  0.802  0.402-  22 2.22  73 2.28  31 2.41  50 2.41
  53  0.945  0.967  0.448-  36 2.30  25 2.35  48 2.37  72 2.44
  54  0.700  0.612  0.642-  18 2.34  28 2.39  26 2.41  43 2.44
  55  0.385  0.461  0.437-  79 2.32  29 2.38  24 2.40  39 2.57
  56  0.589  0.537  0.284-  29 2.30  82 2.35  28 2.38  78 2.50
  57  0.093  0.411  0.201-  32 2.28  45 2.31  74 2.36  70 2.54
  58  0.252  0.700  0.022-  83 2.38  73 2.40  69 2.43  60 2.56
  59  0.498  0.229  0.933-   9 1.51  75 2.22  76 2.32  68 2.35
  60  0.358  0.607  0.848-   7 1.59  63 2.21  81 2.44  58 2.56  24 2.69
  61  0.907  0.260  0.613-  14 2.25  51 2.34  38 2.41  77 2.45
  62  0.883  0.500  0.109-  65 2.30  30 2.36  23 2.44  70 2.47
  63  0.247  0.603  0.675-  60 2.21  17 2.32  79 2.37  22 2.43
  64  0.898  0.704  0.397-  26 2.35  65 2.39  40 2.41  48 2.45
  65  0.801  0.593  0.275-  62 2.30  82 2.39  64 2.39  43 2.43
  66  0.350  0.182  0.449-  44 2.33  19 2.33  39 2.39  33 2.43
  67  0.917  0.739  0.857-  23 2.31  46 2.32  41 2.40  26 2.50
  68  0.529  0.297  0.173-  59 2.35  29 2.43  15 2.45  19 2.46
  69  0.162  0.838  0.973-  41 2.31  31 2.35  58 2.43  27 2.45
  70  0.931  0.347  0.195-  51 2.37  20 2.39  62 2.47  57 2.54
  71  0.287  0.066  0.859-   4 1.46  34 2.32  27 2.45  33 2.50
  72  0.821  0.029  0.607-  10 1.53  38 2.38  53 2.44  47 2.52
  73  0.307  0.716  0.281-   6 1.50  52 2.28  79 2.37  58 2.40
  74  0.136  0.293  0.374-  51 2.29  13 2.32  57 2.36  44 2.46
  75  0.380  0.315  0.866-  59 2.22  81 2.31  34 2.37  39 2.43
  76  0.604  0.313  0.793-  35 2.28  80 2.28  59 2.32  12 2.48
  77  0.882  0.422  0.676-  16 2.32  43 2.35  30 2.37  61 2.45
  78  0.674  0.403  0.392-  43 2.27  15 2.33  80 2.43  56 2.50
  79  0.275  0.576  0.410-  55 2.32  63 2.37  73 2.37  45 2.38
  80  0.628  0.270  0.544-  76 2.28  19 2.38  78 2.43  38 2.48
  81  0.415  0.461  0.950-  29 2.30  75 2.31  35 2.44  60 2.44
  82  0.674  0.629  0.113-  18 2.25  56 2.35  65 2.39
  83  0.109  0.645  0.118-  45 2.30  58 2.38  31 2.39  23 2.51

  LATTYP: Found a simple tetragonal cell.
 ALAT       =    14.5733989906
 C/A-ratio  =     0.5951222469
  
  Lattice vectors:
  
 A1 = (  14.5733989906,   0.0000000000,   0.0000000000)
 A2 = (   0.0000000000,  14.5733989906,   0.0000000000)
 A3 = (   0.0000000000,   0.0000000000,   8.6729539515)


Analysis of symmetry for initial positions (statically):
=====================================================================
 Subroutine PRICEL returns:
 Original cell was already a primitive cell.
 

 Routine SETGRP: Setting up the symmetry group for a 
 simple tetragonal supercell.


 Subroutine GETGRP returns: Found  1 space group operations
 (whereof  1 operations were pure point group operations)
 out of a pool of 16 trial point group operations.


The static configuration has the point symmetry C_1 .


Analysis of symmetry for dynamics (positions and initial velocities):
=====================================================================
 Subroutine PRICEL returns:
 Original cell was already a primitive cell.
 

 Routine SETGRP: Setting up the symmetry group for a 
 simple tetragonal supercell.


 Subroutine GETGRP returns: Found  1 space group operations
 (whereof  1 operations were pure point group operations)
 out of a pool of 16 trial point group operations.


The dynamic configuration has the point symmetry C_1 .


 Subroutine INISYM returns: Found  1 space group operations
 (whereof  1 operations are pure point group operations),
 and found     1 'primitive' translations


----------------------------------------------------------------------------------------

                                     Primitive cell                                     

  volume of cell :    1841.9963

  direct lattice vectors                    reciprocal lattice vectors
    14.573398991  0.000000000  0.000000000     0.068618172  0.000000000  0.000000000
     0.000000000 14.573398991  0.000000000     0.000000000  0.068618172  0.000000000
     0.000000000  0.000000000  8.672953952     0.000000000  0.000000000  0.115300970

  length of vectors
    14.573398991 14.573398991  8.672953952     0.068618172  0.068618172  0.115300970

  position of ions in fractional coordinates (direct lattice)
     0.535621786  0.740486142  0.489548316
     0.414396120  0.984753111  0.607812520
     0.548119214  0.115682690  0.352969705
     0.356908502  0.024034407  0.954995270
     0.778308479  0.823822912  0.621737418
     0.398764901  0.761750914  0.286147028
     0.432568271  0.685854412  0.830478294
     0.662745184  0.101357274  0.244704401
     0.510369613  0.126869511  0.905907035
     0.738990266  0.972580248  0.553079150
     0.744644404  0.159135148  0.261092128
     0.753688279  0.309915347  0.929306214
     0.181657690  0.349643210  0.613329672
     0.999293672  0.204842398  0.799371245
     0.696742058  0.306785672  0.179979049
     0.004673103  0.522108124  0.701863521
     0.151272191  0.482383005  0.742104713
     0.673328165  0.551685300  0.888305189
     0.506929098  0.199606832  0.401868846
     0.891919586  0.239526826  0.996891030
     0.149947861  0.060346869  0.232442143
     0.138844068  0.720326123  0.593772321
     0.975592585  0.602617825  0.949496567
     0.469563758  0.551892527  0.618464024
     0.983504261  0.087073716  0.279496468
     0.815163299  0.730083627  0.625377470
     0.147643662  0.005210102  0.980162013
     0.566833448  0.641579909  0.490541057
     0.466871181  0.450293717  0.200657124
     0.792217382  0.452263745  0.898594648
     0.083630456  0.799525218  0.201611816
     0.177596181  0.420194356  0.980093985
     0.324792453  0.037254315  0.581970114
     0.270059168  0.211087338  0.967558464
     0.552757116  0.461118920  0.790524202
     0.065044949  0.948502131  0.616924756
     0.027491459  0.040689958  0.817142584
     0.771000644  0.178228154  0.532441430
     0.337422999  0.320162784  0.595543344
     0.032060125  0.626650653  0.495832219
     0.056245767  0.813036136  0.779877310
     0.851455450  0.102252055  0.094919448
     0.783331329  0.494203171  0.498202807
     0.247469379  0.192217341  0.244712472
     0.122073787  0.547833076  0.326613057
     0.856512610  0.854975563  0.010202510
     0.873166240  0.999050873  0.878860887
     0.935759737  0.847008993  0.263025725
     0.141495474  0.277559820  0.858008706
     0.200667669  0.964243140  0.456470774
     0.987909547  0.243036645  0.382454469
     0.197795312  0.802016057  0.401820420
     0.944597757  0.966912387  0.447608741
     0.700330788  0.611746786  0.642373986
     0.384989803  0.461281545  0.437114047
     0.588968984  0.536649000  0.283801807
     0.092919984  0.410825231  0.201208263
     0.251690083  0.700207275  0.021723279
     0.498387508  0.228563700  0.933299086
     0.358401633  0.606659435  0.848358015
     0.906645046  0.259942104  0.612979157
     0.882580653  0.500499575  0.108889198
     0.247120113  0.602976698  0.674574088
     0.897779578  0.703638184  0.396808287
     0.800815239  0.592887768  0.274852145
     0.350416537  0.181781889  0.448849380
     0.916745641  0.739010852  0.856926030
     0.529103746  0.296726934  0.173224718
     0.162043872  0.837539685  0.973340807
     0.931182904  0.346520397  0.194862098
     0.286810236  0.066304642  0.858781223
     0.821229145  0.029307782  0.606620308
     0.306759597  0.715865942  0.281321683
     0.136413612  0.293482667  0.374415686
     0.379721299  0.315379412  0.866219288
     0.604184378  0.313494471  0.793253376
     0.881688617  0.422185655  0.675519556
     0.674495360  0.402526549  0.392323079
     0.275388055  0.575629612  0.409849980
     0.627924207  0.270186111  0.543932324
     0.415361578  0.461146367  0.950412056
     0.673549802  0.629383029  0.112799630
     0.109084367  0.645033462  0.118098171

  ion indices of the primitive-cell ions
   primitive index   ion index
                 1           1
                 2           2
                 3           3
                 4           4
                 5           5
                 6           6
                 7           7
                 8           8
                 9           9
                10          10
                11          11
                12          12
                13          13
                14          14
                15          15
                16          16
                17          17
                18          18
                19          19
                20          20
                21          21
                22          22
                23          23
                24          24
                25          25
                26          26
                27          27
                28          28
                29          29
                30          30
                31          31
                32          32
                33          33
                34          34
                35          35
                36          36
                37          37
                38          38
                39          39
                40          40
                41          41
                42          42
                43          43
                44          44
                45          45
                46          46
                47          47
                48          48
                49          49
                50          50
                51          51
                52          52
                53          53
                54          54
                55          55
                56          56
                57          57
                58          58
                59          59
                60          60
                61          61
                62          62
                63          63
                64          64
                65          65
                66          66
                67          67
                68          68
                69          69
                70          70
                71          71
                72          72
                73          73
                74          74
                75          75
                76          76
                77          77
                78          78
                79          79
                80          80
                81          81
                82          82
                83          83

----------------------------------------------------------------------------------------


 -----------------------------------------------------------------------------
|                                                                             |
|           W    W    AA    RRRRR   N    N  II  N    N   GGGG   !!!           |
|           W    W   A  A   R    R  NN   N  II  NN   N  G    G  !!!           |
|           W    W  A    A  R    R  N N  N  II  N N  N  G       !!!           |
|           W WW W  AAAAAA  RRRRR   N  N N  II  N  N N  G  GGG   !            |
|           WW  WW  A    A  R   R   N   NN  II  N   NN  G    G                |
|           W    W  A    A  R    R  N    N  II  N    N   GGGG   !!!           |
|                                                                             |
|     The requested file  could not be found or opened for reading            |
|     k-point information. Automatic k-point generation is used as a          |
|     fallback, which may lead to unwanted results.                           |
|                                                                             |
 -----------------------------------------------------------------------------



Automatic generation of k-mesh.
 Grid dimensions derived from KSPACING:
 generate k-points for:    2    2    4

 Generating k-lattice:

  Cartesian coordinates                     Fractional coordinates (reciprocal lattice)
     0.034309086  0.000000000  0.000000000     0.500000000  0.000000000  0.000000000
     0.000000000  0.034309086  0.000000000     0.000000000  0.500000000  0.000000000
     0.000000000  0.000000000  0.028825242     0.000000000  0.000000000  0.250000000

  Length of vectors
     0.034309086  0.034309086  0.028825242

  Shift w.r.t. Gamma in fractional coordinates (k-lattice)
     0.000000000  0.000000000  0.000000000

 
 Subroutine IBZKPT returns following result:
 ===========================================
 
 Found     12 irreducible k-points:
 
 Following reciprocal coordinates:
            Coordinates               Weight
  0.000000  0.000000  0.000000      1.000000
  0.500000  0.000000  0.000000      1.000000
  0.000000  0.500000  0.000000      1.000000
  0.500000  0.500000  0.000000      1.000000
  0.000000  0.000000  0.250000      2.000000
  0.500000  0.000000  0.250000      2.000000
  0.000000  0.500000  0.250000      2.000000
  0.500000  0.500000  0.250000      2.000000
  0.000000  0.000000  0.500000      1.000000
  0.500000  0.000000  0.500000      1.000000
  0.000000  0.500000  0.500000      1.000000
  0.500000  0.500000  0.500000      1.000000
 
 Following cartesian coordinates:
            Coordinates               Weight
  0.000000  0.000000  0.000000      1.000000
  0.034309  0.000000  0.000000      1.000000
  0.000000  0.034309  0.000000      1.000000
  0.034309  0.034309  0.000000      1.000000
  0.000000  0.000000  0.028825      2.000000
  0.034309  0.000000  0.028825      2.000000
  0.000000  0.034309  0.028825      2.000000
  0.034309  0.034309  0.028825      2.000000
  0.000000  0.000000  0.057650      1.000000
  0.034309  0.000000  0.057650      1.000000
  0.000000  0.034309  0.057650      1.000000
  0.034309  0.034309  0.057650      1.000000
 


--------------------------------------------------------------------------------------------------------




 Dimension of arrays:
   k-points           NKPTS =     12   k-points in BZ     NKDIM =     12   number of bands    NBANDS=    200
   number of dos      NEDOS =   2000   number of ions     NIONS =     83
   non local maximal  LDIM  =      4   non local SUM 2l+1 LMDIM =      8
   total plane-waves  NPLWV = ******
   max r-space proj   IRMAX =      1   max aug-charges    IRDMAX= 401801
   dimension x,y,z NGX =   168 NGY =  168 NGZ =   98
   dimension x,y,z NGXF=   336 NGYF=  336 NGZF=  196
   support grid    NGXF=   672 NGYF=  672 NGZF=  392
   ions per type =              10  73
   NGX,Y,Z   is equivalent  to a cutoff of  19.16, 19.16, 18.78 a.u.
   NGXF,Y,Z  is equivalent  to a cutoff of  38.33, 38.33, 37.57 a.u.

 SYSTEM =  a-Si SPC                                
 POSCAR =   H Si                                   

 Startparameter for this run:
   NWRITE =      2    write-flag & timer
   PREC   = accura    normal or accurate (medium, high low for compatibility)
   ISTART =      1    job   : 0-new  1-cont  2-samecut
   ICHARG =      1    charge: 1-file 2-atom 10-const
   ISPIN  =      1    spin polarized calculation?
   LNONCOLLINEAR =      F non collinear calculations
   LSORBIT =      F    spin-orbit coupling
   INIWAV =      1    electr: 0-lowe 1-rand  2-diag
   LASPH  =      T    aspherical Exc in radial PAW
 Electronic Relaxation 1
   ENCUT  = 1200.0 eV  88.20 Ry    9.39 a.u.  41.16 41.16 24.50*2*pi/ulx,y,z
   ENINI  = 1200.0     initial cutoff
   ENAUG  =  400.0 eV  augmentation charge cutoff
   NELM   =    150;   NELMIN=  2; NELMDL=  0     # of ELM steps 
   EDIFF  = 0.1E-05   stopping-criterion for ELM
   LREAL  =      F    real-space projection
   NLSPLINE    = F    spline interpolate recip. space projectors
   LCOMPAT=      F    compatible to vasp.4.4
   GGA_COMPAT  = T    GGA compatible to vasp.4.4-vasp.4.6
   LMAXPAW     = -100 max onsite density
   LMAXMIX     =    2 max onsite mixed and CHGCAR
   VOSKOWN=      0    Vosko Wilk Nusair interpolation
   ROPT   =    0.00000   0.00000
 Ionic relaxation
   EDIFFG = -.1E-01   stopping-criterion for IOM
   NSW    =      0    number of steps for IOM
   NBLOCK =      1;   KBLOCK =      1    inner block; outer block 
   IBRION =     -1    ionic relax: 0-MD 1-quasi-New 2-CG
   NFREE  =      0    steps in history (QN), initial steepest desc. (CG)
   ISIF   =      2    stress and relaxation
   IWAVPR =     10    prediction:  0-non 1-charg 2-wave 3-comb
   ISYM   =      1    0-nonsym 1-usesym 2-fastsym
   LCORR  =      T    Harris-Foulkes like correction to forces

   POTIM  = 0.5000    time-step for ionic-motion
   TEIN   =    0.0    initial temperature
   TEBEG  =    0.0;   TEEND  =   0.0 temperature during run
   SMASS  =  -3.00    Nose mass-parameter (am)
   estimated Nose-frequenzy (Omega)   =  0.10E-29 period in steps = 0.13E+47 mass=  -0.485E-26a.u.
   SCALEE = 1.0000    scale energy and forces
   NPACO  =    256;   APACO  = 10.0  distance and # of slots for P.C.
   PSTRESS=    0.0 pullay stress

  Mass of Ions in am
   POMASS =   1.00 28.09
  Ionic Valenz
   ZVAL   =   1.00  4.00
  Atomic Wigner-Seitz radii
   RWIGS  =  -1.00 -1.00
  virtual crystal weights 
   VCA    =   1.00  1.00
   NELECT =     302.0000    total number of electrons
   NUPDOWN=      -1.0000    fix difference up-down

 DOS related values:
   EMIN   =  10.00;   EMAX   =-10.00  energy-range for DOS
   EFERMI =   0.00;   METHOD = LEGACY      
   ISMEAR =     0;   SIGMA  =   0.10  broadening in eV -4-tet -1-fermi 0-gaus
   EFERMI_NEDOS =   21; number of points for ismear=-14 and -15

 Electronic relaxation 2 (details)
   IALGO  =     38    algorithm
   LDIAG  =      F    sub-space diagonalisation (order eigenvalues)
   LSUBROT=      F    optimize rotation matrix (better conditioning)
   TURBO    =      0    0=normal 1=particle mesh
   IRESTART =      0    0=no restart 2=restart with 2 vectors
   NREBOOT  =      0    no. of reboots
   NMIN     =      0    reboot dimension
   EREF     =   0.00    reference energy to select bands
   IMIX   =      4    mixing-type and parameters
     AMIX     =   0.40;   BMIX     =  1.00
     AMIX_MAG =   1.60;   BMIX_MAG =  1.00
     AMIN     =   0.10
     WC   =   100.;   INIMIX=   1;  MIXPRE=   1;  MAXMIX= -45

 Intra band minimization:
   WEIMIN = 0.0000     energy-eigenvalue tresh-hold
   EBREAK =  0.13E-08  absolut break condition
   DEPER  =   0.30     relativ break condition  

   TIME   =   0.40     timestep for ELM

  volume/ion in A,a.u.               =      22.19       149.76
  Fermi-wavevector in a.u.,A,eV,Ry     =   0.896013  1.693219 10.923288  0.802839
  Thomas-Fermi vector in A             =   2.018418

 Write flags
   LWAVE        =      F    write WAVECAR
   LDOWNSAMPLE  =      F    k-point downsampling of WAVECAR
   LCHARG       =      F    write CHGCAR
   LVTOT        =      F    write LOCPOT, total local potential
   LVHAR        =      F    write LOCPOT, Hartree potential only
   WRT_POTENTIAL= false  ! write potential to hdf5 file
   LELF         =      F    write electronic localiz. function (ELF)
   LORBIT       =     11    0 simple, 1 ext, 2 COOP (PROOUT), +10 PAW based schemes


 Python interface
   PLUGINS active      =      F    recompile with -DPLUGINS to activate

 Dipole corrections
   LMONO      =      F    monopole corrections only (constant potential shift)
   LDIPOL     =      F    correct potential (dipole corrections)
   IDIPOL     =      0    1-x, 2-y, 3-z, 4-all directions 
   EPSILON    =  1.0000000 bulk dielectric constant
   LVACPOTAV  =      F  vacuum potentials using an averaging scheme for the charge density
   VACPOTFLAT =  0.1000000 required flatness to determine vacuum potential

Coulomb truncation method
  LTRUNCATE          =      F  Coulomb kernel truncation to be used
  IDIMENSIONALITY    =      3  Dimensionality of cutoff (0 molecules / 2 surfaces)
  ISURFACE           =     -1  Direction of surface normal
  LCOARSEN           =      F  Coarsen the charge grid before padding, preferred


 Exchange correlation treatment:
   METAGGA = SCAN    functional components
   XC_C    = 1    coefficients multiplying the functional components
   LIBXC   =     F    Libxc                    
   VOSKOWN =     0    Vosko Wilk Nusair interpolation
   LHFCALC =     F    Hartree Fock is set to
   LHFONE  =     F    Hartree Fock one center treatment
   AEXX    =    0.0000 exact exchange contribution

 Parameters of functionals:
   SCAN:
     P1 =  0.000000E+00
     P2 =  0.000000E+00
     P3 =  0.000000E+00

 Accuracy and mixing parameters for tau-dependent meta-GGA functionals:
   LMAXTAU = 6
   LMIXTAU = T

 Van der Waals corrections
   IVDW    =     0    specifies the selected vdW correction

 Linear response parameters
   LEPSILON=     F    determine dielectric tensor
   LRPA    =     F    only Hartree local field effects (RPA)
   LNABLA  =     F    use nabla operator in PAW spheres
   LVEL    =     F    velocity operator in full k-point grid
   CSHIFT  =0.1000    complex shift for real part using Kramers Kronig
   OMEGAMAX=  -1.0    maximum frequency
   DEG_THRESHOLD= 0.2000000E-02 threshold for treating states as degnerate
   RTIME   =   -0.100 relaxation time in fs
  (WPLASMAI=    0.000 imaginary part of plasma frequency in eV, 0.658/RTIME)
   DFIELD  = 0.0000000 0.0000000 0.0000000 field for delta impulse in time

  Optional k-point grid parameters
   LKPOINTS_OPT  =     F    use optional k-point grid
   KPOINTS_OPT_MODE=     1    mode for optional k-point grid

 Orbital magnetization related:
   ORBITALMAG=     F  switch on orbital magnetization
   LCHIMAG   =     F  perturbation theory with respect to B field
   DQ        =  0.001000  dq finite difference perturbation B field
   LLRAUG    =     F  two centre corrections for induced B field
   LBONE     =     F  B-component reconstruction in AE one-centre
   LVGVCALC  =     T  calculate vGv susceptibility
   LVGVAPPL  =     F  apply vGv susceptibility instead of pGv for G=0

 Random number generation:
   RANDOM_GENERATOR = DEFAULT
   PCG_SEED         = not used


--------------------------------------------------------------------------------------------------------


 Static calculation
 charge density and potential will be updated during run
 non-spin polarized calculation
 Variant of blocked Davidson
 perform Loewdin sub-space diagonalisation
    ordering is kept fixed
    before iterative eigenvector-optimisation
 modified Broyden-mixing scheme, WC =      100.0
 initial mixing is a Kerker type mixing with AMIX =  0.4000 and BMIX =      1.0000
 Hartree-type preconditioning will be used
 using additional bands           49
 reciprocal scheme for non local part
 use partial core corrections
 calculate Harris-corrections to forces   (improved forces if not selfconsistent)
 use gradient corrections 
 use of overlap-Matrix (Vanderbilt PP)
 Gauss-broadening in eV      SIGMA  =   0.10


--------------------------------------------------------------------------------------------------------


  energy-cutoff  :     1200.00
  volume of cell :     1842.00
      direct lattice vectors                 reciprocal lattice vectors
    14.573398991  0.000000000  0.000000000     0.068618172  0.000000000  0.000000000
     0.000000000 14.573398991  0.000000000     0.000000000  0.068618172  0.000000000
     0.000000000  0.000000000  8.672953952     0.000000000  0.000000000  0.115300970

  length of vectors
    14.573398991 14.573398991  8.672953952     0.068618172  0.068618172  0.115300970



 old parameters found on file WAVECAR:
  energy-cutoff  :     1200.00
  volume of cell :     1842.00
      direct lattice vectors                 reciprocal lattice vectors
    14.573398991  0.000000000  0.000000000     0.068618172  0.000000000  0.000000000
     0.000000000 14.573398991  0.000000000     0.000000000  0.068618172  0.000000000
     0.000000000  0.000000000  8.672953952     0.000000000  0.000000000  0.115300970

  length of vectors


 k-points in units of 2pi/SCALE and weight: read from INCAR                         
   0.00000000  0.00000000  0.00000000       0.062
   0.03430909  0.00000000  0.00000000       0.062
   0.00000000  0.03430909  0.00000000       0.062
   0.03430909  0.03430909  0.00000000       0.062
   0.00000000  0.00000000  0.02882524       0.125
   0.03430909  0.00000000  0.02882524       0.125
   0.00000000  0.03430909  0.02882524       0.125
   0.03430909  0.03430909  0.02882524       0.125
   0.00000000  0.00000000  0.05765048       0.062
   0.03430909  0.00000000  0.05765048       0.062
   0.00000000  0.03430909  0.05765048       0.062
   0.03430909  0.03430909  0.05765048       0.062

 k-points in reciprocal lattice and weights: read from INCAR                         
   0.00000000  0.00000000  0.00000000       0.062
   0.50000000  0.00000000  0.00000000       0.062
   0.00000000  0.50000000  0.00000000       0.062
   0.50000000  0.50000000  0.00000000       0.062
   0.00000000  0.00000000  0.25000000       0.125
   0.50000000  0.00000000  0.25000000       0.125
   0.00000000  0.50000000  0.25000000       0.125
   0.50000000  0.50000000  0.25000000       0.125
   0.00000000  0.00000000  0.50000000       0.062
   0.50000000  0.00000000  0.50000000       0.062
   0.00000000  0.50000000  0.50000000       0.062
   0.50000000  0.50000000  0.50000000       0.062

 position of ions in fractional coordinates (direct lattice) 
   0.53562179  0.74048614  0.48954832
   0.41439612  0.98475311  0.60781252
   0.54811921  0.11568269  0.35296971
   0.35690850  0.02403441  0.95499527
   0.77830848  0.82382291  0.62173742
   0.39876490  0.76175091  0.28614703
   0.43256827  0.68585441  0.83047829
   0.66274518  0.10135727  0.24470440
   0.51036961  0.12686951  0.90590704
   0.73899027  0.97258025  0.55307915
   0.74464440  0.15913515  0.26109213
   0.75368828  0.30991535  0.92930621
   0.18165769  0.34964321  0.61332967
   0.99929367  0.20484240  0.79937125
   0.69674206  0.30678567  0.17997905
   0.00467310  0.52210812  0.70186352
   0.15127219  0.48238301  0.74210471
   0.67332816  0.55168530  0.88830519
   0.50692910  0.19960683  0.40186885
   0.89191959  0.23952683  0.99689103
   0.14994786  0.06034687  0.23244214
   0.13884407  0.72032612  0.59377232
   0.97559259  0.60261782  0.94949657
   0.46956376  0.55189253  0.61846402
   0.98350426  0.08707372  0.27949647
   0.81516330  0.73008363  0.62537747
   0.14764366  0.00521010  0.98016201
   0.56683345  0.64157991  0.49054106
   0.46687118  0.45029372  0.20065712
   0.79221738  0.45226374  0.89859465
   0.08363046  0.79952522  0.20161182
   0.17759618  0.42019436  0.98009398
   0.32479245  0.03725432  0.58197011
   0.27005917  0.21108734  0.96755846
   0.55275712  0.46111892  0.79052420
   0.06504495  0.94850213  0.61692476
   0.02749146  0.04068996  0.81714258
   0.77100064  0.17822815  0.53244143
   0.33742300  0.32016278  0.59554334
   0.03206013  0.62665065  0.49583222
   0.05624577  0.81303614  0.77987731
   0.85145545  0.10225206  0.09491945
   0.78333133  0.49420317  0.49820281
   0.24746938  0.19221734  0.24471247
   0.12207379  0.54783308  0.32661306
   0.85651261  0.85497556  0.01020251
   0.87316624  0.99905087  0.87886089
   0.93575974  0.84700899  0.26302572
   0.14149547  0.27755982  0.85800871
   0.20066767  0.96424314  0.45647077
   0.98790955  0.24303665  0.38245447
   0.19779531  0.80201606  0.40182042
   0.94459776  0.96691239  0.44760874
   0.70033079  0.61174679  0.64237399
   0.38498980  0.46128154  0.43711405
   0.58896898  0.53664900  0.28380181
   0.09291998  0.41082523  0.20120826
   0.25169008  0.70020728  0.02172328
   0.49838751  0.22856370  0.93329909
   0.35840163  0.60665944  0.84835802
   0.90664505  0.25994210  0.61297916
   0.88258065  0.50049957  0.10888920
   0.24712011  0.60297670  0.67457409
   0.89777958  0.70363818  0.39680829
   0.80081524  0.59288777  0.27485215
   0.35041654  0.18178189  0.44884938
   0.91674564  0.73901085  0.85692603
   0.52910375  0.29672693  0.17322472
   0.16204387  0.83753969  0.97334081
   0.93118290  0.34652040  0.19486210
   0.28681024  0.06630464  0.85878122
   0.82122915  0.02930778  0.60662031
   0.30675960  0.71586594  0.28132168
   0.13641361  0.29348267  0.37441569
   0.37972130  0.31537941  0.86621929
   0.60418438  0.31349447  0.79325338
   0.88168862  0.42218566  0.67551956
   0.67449536  0.40252655  0.39232308
   0.27538805  0.57562961  0.40984998
   0.62792421  0.27018611  0.54393232
   0.41536158  0.46114637  0.95041206
   0.67354980  0.62938303  0.11279963
   0.10908437  0.64503346  0.11809817

 position of ions in cartesian coordinates  (Angst):
   7.80583000 10.79140000  4.24583000
   6.03916000 14.35120000  5.27153000
   7.98796000  1.68589000  3.06129000
   5.20137000  0.35026300  8.28263000
  11.34260000 12.00590000  5.39230000
   5.81136000 11.10130000  2.48174000
   6.30399000  9.99523000  7.20270000
   9.65845000  1.47712000  2.12231000
   7.43782000  1.84892000  7.85689000
  10.76960000 14.17380000  4.79683000
  10.85200000  2.31914000  2.26444000
  10.98380000  4.51652000  8.05983000
   2.64737000  5.09549000  5.31938000
  14.56310539  2.98525000  6.93291000
  10.15390000  4.47091000  1.56095000
   0.06810300  7.60889000  6.08723000
   2.20455000  7.02996000  6.43624000
   9.81268000  8.03993000  7.70423000
   7.38768000  2.90895000  3.48539000
  12.99830000  3.49072000  8.64599000
   2.18525000  0.87945900  2.01596000
   2.02343000 10.49760000  5.14976000
  14.21770000  8.78219000  8.23494000
   6.84314000  8.04295000  5.36391000
  14.33300000  1.26896000  2.42406000
  11.87970000 10.63980000  5.42387000
   2.15167000  0.07592890  8.50090000
   8.26069000  9.35000000  4.25444000
   6.80390000  6.56231000  1.74029000
  11.54530000  6.59102000  7.79347000
   1.21878000 11.65180000  1.74857000
   2.58818000  6.12366000  8.50031000
   4.73333000  0.54292200  5.04740000
   3.93568000  3.07626000  8.39159000
   8.05555000  6.72007000  6.85618000
   0.94792600 13.82290000  5.35056000
   0.40064400  0.59299100  7.08704000
  11.23610000  2.59739000  4.61784000
   4.91740000  4.66586000  5.16512000
   0.46722500  9.13243000  4.30033000
   0.81969200 11.84870000  6.76384000
  12.40860000  1.49016000  0.82323200
  11.41580000  7.20222000  4.32089000
   3.60647000  2.80126000  2.12238000
   1.77903000  7.98379000  2.83270000
  12.48230000 12.45990000  0.08848590
  12.72500000 14.55956699  7.62232000
  13.63720000 12.34380000  2.28121000
   2.06207000  4.04499000  7.44147000
   2.92441000 14.05230000  3.95895000
  14.39720000  3.54187000  3.31701000
   2.88255000 11.68810000  3.48497000
  13.76600000 14.09120000  3.88209000
  10.20620000  8.91523000  5.57128000
   5.61061000  6.72244000  3.79107000
   8.58328000  7.82080000  2.46140000
   1.35416000  5.98712000  1.74507000
   3.66798000 10.20440000  0.18840500
   7.26320000  3.33095000  8.09446000
   5.22313000  8.84109000  7.35777000
  13.21290000  3.78824000  5.31634000
  12.86220000  7.29398000  0.94439100
   3.60138000  8.78742000  5.85055000
  13.08370000 10.25440000  3.44150000
  11.67060000  8.64039000  2.38378000
   5.10676000  2.64918000  3.89285000
  13.36010000 10.76990000  7.43208000
   7.71084000  4.32432000  1.50237000
   2.36153000 12.20580000  8.44174000
  13.57050000  5.04998000  1.69003000
   4.17980000  0.96628400  7.44817000
  11.96810000  0.42711400  5.26119000
   4.47053000 10.43260000  2.43989000
   1.98801000  4.27704000  3.24729000
   5.53383000  4.59615000  7.51268000
   8.80502000  4.56868000  6.87985000
  12.84920000  6.15268000  5.85875000
   9.82969000  5.86618000  3.40260000
   4.01334000  8.38888000  3.55461000
   9.15099000  3.93753000  4.71750000
   6.05323000  6.72047000  8.24288000
   9.81591000  9.17225000  0.97830600
   1.58973000  9.40033000  1.02426000



--------------------------------------------------------------------------------------------------------


 k-point     1 :   0.0000 0.0000 0.0000  plane waves:  173865
 k-point     2 :   0.5000 0.0000 0.0000  plane waves:  173914
 k-point     3 :   0.0000 0.5000 0.0000  plane waves:  173914
 k-point     4 :   0.5000 0.5000 0.0000  plane waves:  173924
 k-point     5 :   0.0000 0.0000 0.2500  plane waves:  173825
 k-point     6 :   0.5000 0.0000 0.2500  plane waves:  173824
 k-point     7 :   0.0000 0.5000 0.2500  plane waves:  173824
 k-point     8 :   0.5000 0.5000 0.2500  plane waves:  173832
 k-point     9 :   0.0000 0.0000 0.5000  plane waves:  173744
 k-point    10 :   0.5000 0.0000 0.5000  plane waves:  173812
 k-point    11 :   0.0000 0.5000 0.5000  plane waves:  173812
 k-point    12 :   0.5000 0.5000 0.5000  plane waves:  173816

 maximum and minimum number of plane-waves per node :     10918    10800

 maximum number of plane-waves:    173924
 maximum index in each direction: 
   IXMAX=   41   IYMAX=   41   IZMAX=   24
   IXMIN=  -41   IYMIN=  -41   IZMIN=  -24


 parallel 3D FFT for wavefunctions:
    minimum data exchange during FFTs selected (reduces bandwidth)
 parallel 3D FFT for charge:
    minimum data exchange during FFTs selected (reduces bandwidth)


 total amount of memory used by VASP MPI-rank0   172986. kBytes
=======================================================================

   base                                    :      30000. kBytes
   nonl-proj                               :      31183. kBytes
   fftplans                                :      33483. kBytes
   grid                                    :      25810. kBytes
   one-center                              :         18. kBytes
   wavefun                                 :      52492. kBytes

     INWAV:  cpu time      9.6697: real time      9.6731
 Broyden mixing: mesh for mixing (old mesh)
   NGX = 83   NGY = 83   NGZ = 49
  (NGX  =336   NGY  =336   NGZ  =196)
  gives a total of 337561 points

 initial charge density was supplied:
 number of electron     301.9999999 magnetization 
 keeping initial charge density in first step


--------------------------------------------------------------------------------------------------------


 Maximum index for augmentation-charges        11228 (set IRDMAX)


--------------------------------------------------------------------------------------------------------


 First call to EWALD:  gamma=   0.145
 Maximum number of real-space cells   2x   2x   4
 Maximum number of reciprocal cells   3x   3x   2

    FEWALD:  cpu time      0.0151: real time      0.0152


--------------------------------------- Ionic step        1  -------------------------------------------




--------------------------------------- Iteration      1(   1)  ---------------------------------------


    POTLOK:  cpu time      0.5903: real time      0.5911
    SETDIJ:  cpu time      1.1262: real time      1.1267
    EDDIAG:  cpu time     19.1475: real time     19.1616
     EDDAV:  cpu time     89.2950: real time     89.3681
       DOS:  cpu time      0.0089: real time      0.0091
    CHARGE:  cpu time      7.2373: real time      7.2427
    MIXING:  cpu time      0.0215: real time      0.0217
    --------------------------------------------
      LOOP:  cpu time    117.4268: real time    117.5210

 eigenvalue-minimisations  :  4856
 total energy-change (2. order) :-0.7927456E+03  (-0.8478118E+00)
 number of electron     301.9999999 magnetization 
 augmentation part      -16.0993129 magnetization 

 Broyden mixing:
  rms(total) = 0.11081E+01    rms(broyden)= 0.46866E+02
  rms(prec ) = 0.12073E+01
  weight for this iteration     100.00
  WARNING: grid for Broyden might be to small

 Free energy of the ion-electron system (eV)
  ---------------------------------------------------
  alpha Z        PSCENC =       104.71876214
  Ewald energy   TEWEN  =     -4854.60516329
  -Hartree energ DENC   =     -3587.67496797
  -exchange      EXHF   =         0.00000000
  -V(xc)+E(xc)   XCENC  =      -321.49488314
  PAW double counting   =     29191.61463966   -28464.49504823
  entropy T*S    EENTRO =        -0.07014619
  eigenvalues    EBANDS =      -509.50142460
  atomic energy  EATOM  =      7648.76263255
  Solvation  Ediel_sol  =         0.00000000
  ---------------------------------------------------
  free energy    TOTEN  =      -792.74559907 eV

  energy without entropy =     -792.67545288  energy(sigma->0) =     -792.71052598


--------------------------------------------------------------------------------------------------------




--------------------------------------- Iteration      1(   2)  ---------------------------------------


    POTLOK:  cpu time      0.6063: real time      0.6068
    SETDIJ:  cpu time      1.1232: real time      1.1239
    EDDIAG:  cpu time     19.2334: real time     19.2499
     EDDAV:  cpu time     88.7396: real time     88.8148
       DOS:  cpu time      0.0040: real time      0.0040
    CHARGE:  cpu time      7.1669: real time      7.1721
    MIXING:  cpu time      0.0148: real time      0.0148
    --------------------------------------------
      LOOP:  cpu time    116.8881: real time    116.9863

 eigenvalue-minimisations  :  4808
 total energy-change (2. order) : 0.5394608E+02  (-0.7991055E+00)
 number of electron     301.9999999 magnetization 
 augmentation part      -16.0405386 magnetization 

 Broyden mixing:
  rms(total) = 0.73918E+00    rms(broyden)= 0.27031E+02
  rms(prec ) = 0.78953E+00
  weight for this iteration     100.00
  WARNING: grid for Broyden might be to small

 eigenvalues of (default mixing * dielectric matrix)
  average eigenvalue GAMMA=   0.6342
  0.6342

 Free energy of the ion-electron system (eV)
  ---------------------------------------------------
  alpha Z        PSCENC =       104.71876214
  Ewald energy   TEWEN  =     -4854.60516329
  -Hartree energ DENC   =     -3579.87882917
  -exchange      EXHF   =         0.00000000
  -V(xc)+E(xc)   XCENC  =      -313.83735118
  PAW double counting   =     34973.14531902   -34245.81305264
  entropy T*S    EENTRO =        -0.06836536
  eigenvalues    EBANDS =      -471.22346646
  atomic energy  EATOM  =      7648.76263255
  Solvation  Ediel_sol  =         0.00000000
  ---------------------------------------------------
  free energy    TOTEN  =      -738.79951438 eV

  energy without entropy =     -738.73114903  energy(sigma->0) =     -738.76533171


--------------------------------------------------------------------------------------------------------




--------------------------------------- Iteration      1(   3)  ---------------------------------------


    POTLOK:  cpu time      0.5775: real time      0.6025
    SETDIJ:  cpu time      1.1215: real time      1.1225
    EDDIAG:  cpu time     19.2532: real time     19.2696
     EDDAV:  cpu time     88.6356: real time     88.7137
       DOS:  cpu time      0.0039: real time      0.0039
    CHARGE:  cpu time      7.2683: real time      7.2744
    MIXING:  cpu time      0.0118: real time      0.0118
    --------------------------------------------
      LOOP:  cpu time    116.8718: real time    116.9984

 eigenvalue-minimisations  :  4800
 total energy-change (2. order) :-0.2804829E+01  (-0.6607448E+00)
 number of electron     301.9999999 magnetization 
 augmentation part      -15.9919155 magnetization 

 Broyden mixing:
  rms(total) = 0.44123E+00    rms(broyden)= 0.19373E+02
  rms(prec ) = 0.48523E+00
  weight for this iteration     100.00
  WARNING: grid for Broyden might be to small

 eigenvalues of (default mixing * dielectric matrix)
  average eigenvalue GAMMA=   0.6916
  0.7609  0.6223

 Free energy of the ion-electron system (eV)
  ---------------------------------------------------
  alpha Z        PSCENC =       104.71876214
  Ewald energy   TEWEN  =     -4854.60516329
  -Hartree energ DENC   =     -3582.92104507
  -exchange      EXHF   =         0.00000000
  -V(xc)+E(xc)   XCENC  =      -318.14197439
  PAW double counting   =     39582.61458455   -38855.35168564
  entropy T*S    EENTRO =        -0.07167989
  eigenvalues    EBANDS =      -466.60877399
  atomic energy  EATOM  =      7648.76263255
  Solvation  Ediel_sol  =         0.00000000
  ---------------------------------------------------
  free energy    TOTEN  =      -741.60434303 eV

  energy without entropy =     -741.53266315  energy(sigma->0) =     -741.56850309


--------------------------------------------------------------------------------------------------------




--------------------------------------- Iteration      1(   4)  ---------------------------------------


    POTLOK:  cpu time      0.5764: real time      0.6031
    SETDIJ:  cpu time      1.1247: real time      1.1258
    EDDIAG:  cpu time     19.1862: real time     19.2024
     EDDAV:  cpu time     91.7878: real time     91.8674
       DOS:  cpu time      0.0046: real time      0.0046
    CHARGE:  cpu time      7.1333: real time      7.1383
    MIXING:  cpu time      0.0117: real time      0.0117
    --------------------------------------------
      LOOP:  cpu time    119.8248: real time    119.9534

 eigenvalue-minimisations  :  5104
 total energy-change (2. order) :-0.2780530E+00  (-0.6877203E-01)
 number of electron     301.9999999 magnetization 
 augmentation part      -15.9819175 magnetization 

 Broyden mixing:
  rms(total) = 0.41130E-01    rms(broyden)= 0.19458E+01
  rms(prec ) = 0.65885E-01
  weight for this iteration     100.00
  WARNING: grid for Broyden might be to small

 eigenvalues of (default mixing * dielectric matrix)
  average eigenvalue GAMMA=   1.0034
  1.7057  0.6846  0.6200

 Free energy of the ion-electron system (eV)
  ---------------------------------------------------
  alpha Z        PSCENC =       104.71876214
  Ewald energy   TEWEN  =     -4854.60516329
  -Hartree energ DENC   =     -3588.19104525
  -exchange      EXHF   =         0.00000000
  -V(xc)+E(xc)   XCENC  =      -318.29046156
  PAW double counting   =     46762.96753451   -46035.75660899
  entropy T*S    EENTRO =        -0.06825848
  eigenvalues    EBANDS =      -461.41978762
  atomic energy  EATOM  =      7648.76263255
  Solvation  Ediel_sol  =         0.00000000
  ---------------------------------------------------
  free energy    TOTEN  =      -741.88239599 eV

  energy without entropy =     -741.81413751  energy(sigma->0) =     -741.84826675


--------------------------------------------------------------------------------------------------------




--------------------------------------- Iteration      1(   5)  ---------------------------------------


    POTLOK:  cpu time      0.5739: real time      0.6021
    SETDIJ:  cpu time      1.1195: real time      1.1206
    EDDIAG:  cpu time     19.2723: real time     19.2900
     EDDAV:  cpu time    101.1392: real time    101.2245
       DOS:  cpu time      0.0071: real time      0.0071
    CHARGE:  cpu time      7.0239: real time      7.0303
    MIXING:  cpu time      0.0119: real time      0.0119
    --------------------------------------------
      LOOP:  cpu time    129.1478: real time    129.2865

 eigenvalue-minimisations  :  5984
 total energy-change (2. order) :-0.3054750E-01  (-0.6275708E-02)
 number of electron     301.9999999 magnetization 
 augmentation part      -15.9832092 magnetization 

 Broyden mixing:
  rms(total) = 0.36775E-01    rms(broyden)= 0.42757E+00
  rms(prec ) = 0.63102E-01
  weight for this iteration     100.00
  WARNING: grid for Broyden might be to small

 eigenvalues of (default mixing * dielectric matrix)
  average eigenvalue GAMMA=   1.1680
  2.5146  0.8970  0.6302  0.6302

 Free energy of the ion-electron system (eV)
  ---------------------------------------------------
  alpha Z        PSCENC =       104.71876214
  Ewald energy   TEWEN  =     -4854.60516329
  -Hartree energ DENC   =     -3588.92507153
  -exchange      EXHF   =         0.00000000
  -V(xc)+E(xc)   XCENC  =      -319.24045651
  PAW double counting   =     46494.06618677   -45766.83300557
  entropy T*S    EENTRO =        -0.07361426
  eigenvalues    EBANDS =      -459.78321380
  atomic energy  EATOM  =      7648.76263255
  Solvation  Ediel_sol  =         0.00000000
  ---------------------------------------------------
  free energy    TOTEN  =      -741.91294349 eV

  energy without entropy =     -741.83932923  energy(sigma->0) =     -741.87613636


--------------------------------------------------------------------------------------------------------




--------------------------------------- Iteration      1(   6)  ---------------------------------------


    POTLOK:  cpu time      0.5772: real time      0.6060
    SETDIJ:  cpu time      1.1196: real time      1.1199
    EDDIAG:  cpu time     19.3413: real time     19.3567
     EDDAV:  cpu time     93.9395: real time     94.0228
       DOS:  cpu time      0.0069: real time      0.0069
    CHARGE:  cpu time      7.1903: real time      7.1958
    MIXING:  cpu time      0.0123: real time      0.0123
    --------------------------------------------
      LOOP:  cpu time    122.1870: real time    122.3205

 eigenvalue-minimisations  :  5296
 total energy-change (2. order) :-0.1270447E-03  (-0.1534861E-02)
 number of electron     301.9999999 magnetization 
 augmentation part      -15.9836625 magnetization 

 Broyden mixing:
  rms(total) = 0.18687E-01    rms(broyden)= 0.23074E+00
  rms(prec ) = 0.21026E-01
  weight for this iteration     100.00
  WARNING: grid for Broyden might be to small

 eigenvalues of (default mixing * dielectric matrix)
  average eigenvalue GAMMA=   1.0603
  2.5923  0.9626  0.6328  0.6328  0.4809

 Free energy of the ion-electron system (eV)
  ---------------------------------------------------
  alpha Z        PSCENC =       104.71876214
  Ewald energy   TEWEN  =     -4854.60516329
  -Hartree energ DENC   =     -3588.85339873
  -exchange      EXHF   =         0.00000000
  -V(xc)+E(xc)   XCENC  =      -319.49803836
  PAW double counting   =     46408.59949731   -45681.35644843
  entropy T*S    EENTRO =        -0.07125067
  eigenvalues    EBANDS =      -459.60966307
  atomic energy  EATOM  =      7648.76263255
  Solvation  Ediel_sol  =         0.00000000
  ---------------------------------------------------
  free energy    TOTEN  =      -741.91307053 eV

  energy without entropy =     -741.84181987  energy(sigma->0) =     -741.87744520


--------------------------------------------------------------------------------------------------------




--------------------------------------- Iteration      1(   7)  ---------------------------------------


    POTLOK:  cpu time      0.5792: real time      0.6008
    SETDIJ:  cpu time      1.1225: real time      1.1230
    EDDIAG:  cpu time     19.2207: real time     19.2364
     EDDAV:  cpu time     92.5484: real time     92.6297
       DOS:  cpu time      0.0042: real time      0.0042
    CHARGE:  cpu time      7.1457: real time      7.1511
    MIXING:  cpu time      0.0121: real time      0.0121
    --------------------------------------------
      LOOP:  cpu time    120.6328: real time    120.7573

 eigenvalue-minimisations  :  5160
 total energy-change (2. order) :-0.1396827E-02  (-0.7239883E-03)
 number of electron     301.9999999 magnetization 
 augmentation part      -15.9814882 magnetization 

 Broyden mixing:
  rms(total) = 0.61114E-02    rms(broyden)= 0.23864E+00
  rms(prec ) = 0.75839E-02
  weight for this iteration     100.00
  WARNING: grid for Broyden might be to small

 eigenvalues of (default mixing * dielectric matrix)
  average eigenvalue GAMMA=   1.0629
  2.5635  1.2076  0.8757  0.4637  0.6335  0.6335

 Free energy of the ion-electron system (eV)
  ---------------------------------------------------
  alpha Z        PSCENC =       104.71876214
  Ewald energy   TEWEN  =     -4854.60516329
  -Hartree energ DENC   =     -3589.50149782
  -exchange      EXHF   =         0.00000000
  -V(xc)+E(xc)   XCENC  =      -319.35989305
  PAW double counting   =     46379.46705413   -45652.20527516
  entropy T*S    EENTRO =        -0.07100558
  eigenvalues    EBANDS =      -459.12008128
  atomic energy  EATOM  =      7648.76263255
  Solvation  Ediel_sol  =         0.00000000
  ---------------------------------------------------
  free energy    TOTEN  =      -741.91446736 eV

  energy without entropy =     -741.84346178  energy(sigma->0) =     -741.87896457


--------------------------------------------------------------------------------------------------------




--------------------------------------- Iteration      1(   8)  ---------------------------------------


    POTLOK:  cpu time      0.5779: real time      0.6089
    SETDIJ:  cpu time      1.1230: real time      1.1236
    EDDIAG:  cpu time     19.2924: real time     19.3083
     EDDAV:  cpu time    100.3063: real time    100.3975
       DOS:  cpu time      0.0067: real time      0.0067
    CHARGE:  cpu time      7.1613: real time      7.1677
    MIXING:  cpu time      0.0124: real time      0.0124
    --------------------------------------------
      LOOP:  cpu time    128.4799: real time    128.6250

 eigenvalue-minimisations  :  5872
 total energy-change (2. order) :-0.2730654E-03  (-0.8612001E-04)
 number of electron     301.9999999 magnetization 
 augmentation part      -15.9812144 magnetization 

 Broyden mixing:
  rms(total) = 0.19738E-02    rms(broyden)= 0.10789E+00
  rms(prec ) = 0.28431E-02
  weight for this iteration     100.00
  WARNING: grid for Broyden might be to small

 eigenvalues of (default mixing * dielectric matrix)
  average eigenvalue GAMMA=   1.0920
  2.5660  1.6726  0.9628  0.7271  0.6253  0.6253  0.4647

 Free energy of the ion-electron system (eV)
  ---------------------------------------------------
  alpha Z        PSCENC =       104.71876214
  Ewald energy   TEWEN  =     -4854.60516329
  -Hartree energ DENC   =     -3589.70704659
  -exchange      EXHF   =         0.00000000
  -V(xc)+E(xc)   XCENC  =      -319.34296088
  PAW double counting   =     46414.84250104   -45687.57406063
  entropy T*S    EENTRO =        -0.07114490
  eigenvalues    EBANDS =      -458.93825987
  atomic energy  EATOM  =      7648.76263255
  Solvation  Ediel_sol  =         0.00000000
  ---------------------------------------------------
  free energy    TOTEN  =      -741.91474043 eV

  energy without entropy =     -741.84359553  energy(sigma->0) =     -741.87916798


--------------------------------------------------------------------------------------------------------




--------------------------------------- Iteration      1(   9)  ---------------------------------------


    POTLOK:  cpu time      0.5758: real time      0.6027
    SETDIJ:  cpu time      1.1223: real time      1.1235
    EDDIAG:  cpu time     19.2699: real time     19.2869
     EDDAV:  cpu time     96.1931: real time     96.2787
       DOS:  cpu time      0.0051: real time      0.0051
    CHARGE:  cpu time      7.3883: real time      7.3946
    MIXING:  cpu time      0.0127: real time      0.0127
    --------------------------------------------
      LOOP:  cpu time    124.5674: real time    124.7044

 eigenvalue-minimisations  :  5520
 total energy-change (2. order) :-0.3684392E-05  (-0.1517012E-04)
 number of electron     301.9999999 magnetization 
 augmentation part      -15.9813788 magnetization 

 Broyden mixing:
  rms(total) = 0.14846E-02    rms(broyden)= 0.18310E-01
  rms(prec ) = 0.20344E-02
  weight for this iteration     100.00
  WARNING: grid for Broyden might be to small

 eigenvalues of (default mixing * dielectric matrix)
  average eigenvalue GAMMA=   1.1723
  2.6369  2.5216  1.0224  0.8721  0.4561  0.6561  0.6270  0.5865

 Free energy of the ion-electron system (eV)
  ---------------------------------------------------
  alpha Z        PSCENC =       104.71876214
  Ewald energy   TEWEN  =     -4854.60516329
  -Hartree energ DENC   =     -3589.68427015
  -exchange      EXHF   =         0.00000000
  -V(xc)+E(xc)   XCENC  =      -319.37309348
  PAW double counting   =     46421.40758115   -45694.13784124
  entropy T*S    EENTRO =        -0.07125065
  eigenvalues    EBANDS =      -458.93210115
  atomic energy  EATOM  =      7648.76263255
  Solvation  Ediel_sol  =         0.00000000
  ---------------------------------------------------
  free energy    TOTEN  =      -741.91474411 eV

  energy without entropy =     -741.84349346  energy(sigma->0) =     -741.87911879


--------------------------------------------------------------------------------------------------------




--------------------------------------- Iteration      1(  10)  ---------------------------------------


    POTLOK:  cpu time      0.5753: real time      0.6047
    SETDIJ:  cpu time      1.1205: real time      1.1211
    EDDIAG:  cpu time     19.2954: real time     19.3122
     EDDAV:  cpu time     95.3220: real time     95.4052
       DOS:  cpu time      0.0043: real time      0.0043
    CHARGE:  cpu time      7.1575: real time      7.1639
    MIXING:  cpu time      0.0132: real time      0.0132
    --------------------------------------------
      LOOP:  cpu time    123.4880: real time    123.6243

 eigenvalue-minimisations  :  5432
 total energy-change (2. order) :-0.1867818E-04  (-0.4063192E-05)
 number of electron     301.9999999 magnetization 
 augmentation part      -15.9814180 magnetization 

 Broyden mixing:
  rms(total) = 0.72828E-03    rms(broyden)= 0.18537E-01
  rms(prec ) = 0.96399E-03
  weight for this iteration     100.00
  WARNING: grid for Broyden might be to small

 eigenvalues of (default mixing * dielectric matrix)
  average eigenvalue GAMMA=   1.1889
  2.8471  2.5930  1.0825  1.0825  0.7988  0.4563  0.6459  0.6304  0.5632

 Free energy of the ion-electron system (eV)
  ---------------------------------------------------
  alpha Z        PSCENC =       104.71876214
  Ewald energy   TEWEN  =     -4854.60516329
  -Hartree energ DENC   =     -3589.67872920
  -exchange      EXHF   =         0.00000000
  -V(xc)+E(xc)   XCENC  =      -319.37680153
  PAW double counting   =     46416.83539520   -45689.56416284
  entropy T*S    EENTRO =        -0.07120679
  eigenvalues    EBANDS =      -458.93548904
  atomic energy  EATOM  =      7648.76263255
  Solvation  Ediel_sol  =         0.00000000
  ---------------------------------------------------
  free energy    TOTEN  =      -741.91476279 eV

  energy without entropy =     -741.84355600  energy(sigma->0) =     -741.87915940


--------------------------------------------------------------------------------------------------------




--------------------------------------- Iteration      1(  11)  ---------------------------------------


    POTLOK:  cpu time      0.5783: real time      0.6057
    SETDIJ:  cpu time      1.1223: real time      1.1228
    EDDIAG:  cpu time     19.2787: real time     19.2966
     EDDAV:  cpu time     94.7791: real time     94.8607
       DOS:  cpu time      0.0041: real time      0.0041
    CHARGE:  cpu time      7.1662: real time      7.1718
    MIXING:  cpu time      0.0141: real time      0.0141
    --------------------------------------------
      LOOP:  cpu time    122.9428: real time    123.0759

 eigenvalue-minimisations  :  5376
 total energy-change (2. order) :-0.1139464E-04  (-0.1471349E-05)
 number of electron     301.9999999 magnetization 
 augmentation part      -15.9814092 magnetization 

 Broyden mixing:
  rms(total) = 0.34054E-03    rms(broyden)= 0.11189E-01
  rms(prec ) = 0.46568E-03
  weight for this iteration     100.00
  WARNING: grid for Broyden might be to small

 eigenvalues of (default mixing * dielectric matrix)
  average eigenvalue GAMMA=   1.2299
  3.1145  2.6174  1.6858  1.0550  0.9071  0.4555  0.6825  0.6350  0.6159  0.5299

 Free energy of the ion-electron system (eV)
  ---------------------------------------------------
  alpha Z        PSCENC =       104.71876214
  Ewald energy   TEWEN  =     -4854.60516329
  -Hartree energ DENC   =     -3589.67386544
  -exchange      EXHF   =         0.00000000
  -V(xc)+E(xc)   XCENC  =      -319.37715192
  PAW double counting   =     46412.97048586   -45685.69830637
  entropy T*S    EENTRO =        -0.07118838
  eigenvalues    EBANDS =      -458.94097934
  atomic energy  EATOM  =      7648.76263255
  Solvation  Ediel_sol  =         0.00000000
  ---------------------------------------------------
  free energy    TOTEN  =      -741.91477418 eV

  energy without entropy =     -741.84358580  energy(sigma->0) =     -741.87917999


--------------------------------------------------------------------------------------------------------




--------------------------------------- Iteration      1(  12)  ---------------------------------------


    POTLOK:  cpu time      0.6222: real time      0.6474
    SETDIJ:  cpu time      1.1191: real time      1.1197
    EDDIAG:  cpu time     19.2519: real time     19.2669
     EDDAV:  cpu time     89.2068: real time     89.2830
       DOS:  cpu time      0.0058: real time      0.0058
    CHARGE:  cpu time      7.1903: real time      7.1962
    MIXING:  cpu time      0.0130: real time      0.0130
    --------------------------------------------
      LOOP:  cpu time    117.4091: real time    117.5320

 eigenvalue-minimisations  :  4848
 total energy-change (2. order) :-0.3264642E-05  (-0.5150270E-06)
 number of electron     301.9999999 magnetization 
 augmentation part      -15.9814495 magnetization 

 Broyden mixing:
  rms(total) = 0.15347E-03    rms(broyden)= 0.59260E-02
  rms(prec ) = 0.22740E-03
  weight for this iteration     100.00
  WARNING: grid for Broyden might be to small

 eigenvalues of (default mixing * dielectric matrix)
  average eigenvalue GAMMA=   1.2316
  3.3506  2.6226  1.7790  1.0442  1.0442  0.8260  0.4558  0.6551  0.6368  0.6123
  0.5212

 Free energy of the ion-electron system (eV)
  ---------------------------------------------------
  alpha Z        PSCENC =       104.71876214
  Ewald energy   TEWEN  =     -4854.60516329
  -Hartree energ DENC   =     -3589.65912350
  -exchange      EXHF   =         0.00000000
  -V(xc)+E(xc)   XCENC  =      -319.38277674
  PAW double counting   =     46413.27658402   -45686.00440264
  entropy T*S    EENTRO =        -0.07119611
  eigenvalues    EBANDS =      -458.95009389
  atomic energy  EATOM  =      7648.76263255
  Solvation  Ediel_sol  =         0.00000000
  ---------------------------------------------------
  free energy    TOTEN  =      -741.91477745 eV

  energy without entropy =     -741.84358134  energy(sigma->0) =     -741.87917939


--------------------------------------------------------------------------------------------------------




--------------------------------------- Iteration      1(  13)  ---------------------------------------


    POTLOK:  cpu time      0.5764: real time      0.6042
    SETDIJ:  cpu time      1.1222: real time      1.1233
    EDDIAG:  cpu time     19.2065: real time     19.2221
     EDDAV:  cpu time     76.4907: real time     76.5617
       DOS:  cpu time      0.0046: real time      0.0046
    --------------------------------------------
      LOOP:  cpu time     97.4009: real time     97.5163

 eigenvalue-minimisations  :  3624
 total energy-change (2. order) :-0.5289476E-06  (-0.1876544E-06)
 number of electron     301.9999999 magnetization 
 augmentation part      -15.9814495 magnetization 

 Free energy of the ion-electron system (eV)
  ---------------------------------------------------
  alpha Z        PSCENC =       104.71876214
  Ewald energy   TEWEN  =     -4854.60516329
  -Hartree energ DENC   =     -3589.64637901
  -exchange      EXHF   =         0.00000000
  -V(xc)+E(xc)   XCENC  =      -319.38630507
  PAW double counting   =     46413.49240819   -45686.22044730
  entropy T*S    EENTRO =        -0.07119614
  eigenvalues    EBANDS =      -458.95909005
  atomic energy  EATOM  =      7648.76263255
  Solvation  Ediel_sol  =         0.00000000
  ---------------------------------------------------
  free energy    TOTEN  =      -741.91477798 eV

  energy without entropy =     -741.84358184  energy(sigma->0) =     -741.87917991


--------------------------------------------------------------------------------------------------------




 average (electrostatic) potential at core
  the test charge radii are     0.5201  0.9892
  (the norm of the test charge is              1.0000)
       1 -34.9468       2 -34.9307       3 -34.9174       4 -34.7371       5 -34.7235
       6 -34.8251       7 -34.8174       8 -34.7115       9 -35.2054      10 -34.3819
      11 -88.1704      12 -88.0221      13 -88.0246      14 -88.4104      15 -88.0326
      16 -88.2837      17 -88.2476      18 -88.1104      19 -88.2233      20 -88.1958
      21 -88.6004      22 -88.0777      23 -88.4481      24 -88.4348      25 -88.4988
      26 -88.1627      27 -88.3859      28 -88.3880      29 -88.3855      30 -87.8871
      31 -88.1553      32 -88.3126      33 -88.8206      34 -88.4414      35 -88.2997
      36 -88.4125      37 -88.4537      38 -88.6724      39 -88.4379      40 -88.1825
      41 -88.3454      42 -88.3029      43 -88.1642      44 -88.7144      45 -88.0772
      46 -88.7616      47 -88.7661      48 -88.6703      49 -88.1855      50 -88.7484
      51 -88.3701      52 -88.2494      53 -88.4552      54 -88.1958      55 -88.4655
      56 -88.4392      57 -88.3908      58 -88.5649      59 -88.3510      60 -88.8890
      61 -88.5485      62 -88.4662      63 -88.2505      64 -88.3398      65 -88.3322
      66 -88.6156      67 -88.4524      68 -88.2623      69 -88.3129      70 -88.6660
      71 -88.2396      72 -88.6469      73 -88.3788      74 -88.2807      75 -88.5403
      76 -88.3058      77 -88.4296      78 -88.3254      79 -88.3258      80 -88.5374
      81 -88.7417      82 -88.0689      83 -88.1691



 E-fermi :   3.7178     XC(G=0):  -8.5247     alpha+bet : -9.6552

 WARNING: Could not determine fundamental gap because eigenvalues are not
     sorted.

 Fermi energy:         3.7177603665

 k-point     1 :       0.0000    0.0000    0.0000
  band No.  band energies     occupation 
      1      -8.7893      2.00000
      2      -8.4147      2.00000
      3      -8.2089      2.00000
      4      -8.0472      2.00000
      5      -7.8854      2.00000
      6      -7.5748      2.00000
      7      -7.4450      2.00000
      8      -7.3059      2.00000
      9      -7.1901      2.00000
     10      -7.0102      2.00000
     11      -6.8729      2.00000
     12      -6.7197      2.00000
     13      -6.7064      2.00000
     14      -6.5992      2.00000
     15      -6.5318      2.00000
     16      -6.4779      2.00000
     17      -6.4237      2.00000
     18      -6.3274      2.00000
     19      -6.1960      2.00000
     20      -6.0844      2.00000
     21      -6.0572      2.00000
     22      -5.9988      2.00000
     23      -5.9327      2.00000
     24      -5.8641      2.00000
     25      -5.7802      2.00000
     26      -5.6962      2.00000
     27      -5.6326      2.00000
     28      -5.6138      2.00000
     29      -5.5031      2.00000
     30      -5.3716      2.00000
     31      -5.2471      2.00000
     32      -5.1902      2.00000
     33      -5.0007      2.00000
     34      -4.8620      2.00000
     35      -4.7722      2.00000
     36      -4.6709      2.00000
     37      -4.5521      2.00000
     38      -4.4675      2.00000
     39      -4.3575      2.00000
     40      -4.3086      2.00000
     41      -4.1264      2.00000
     42      -4.0383      2.00000
     43      -3.8828      2.00000
     44      -3.7976      2.00000
     45      -3.6347      2.00000
     46      -3.5726      2.00000
     47      -3.4276      2.00000
     48      -3.2416      2.00000
     49      -3.0756      2.00000
     50      -3.0070      2.00000
     51      -2.9591      2.00000
     52      -2.8679      2.00000
     53      -2.6854      2.00000
     54      -2.6254      2.00000
     55      -2.4960      2.00000
     56      -2.4398      2.00000
     57      -2.2900      2.00000
     58      -2.2079      2.00000
     59      -2.1419      2.00000
     60      -2.0940      2.00000
     61      -1.9280      2.00000
     62      -1.8765      2.00000
     63      -1.7596      2.00000
     64      -1.6675      2.00000
     65      -1.5665      2.00000
     66      -1.4957      2.00000
     67      -1.3432      2.00000
     68      -1.2933      2.00000
     69      -1.2185      2.00000
     70      -1.0650      2.00000
     71      -0.9945      2.00000
     72      -0.9550      2.00000
     73      -0.9195      2.00000
     74      -0.7942      2.00000
     75      -0.7153      2.00000
     76      -0.6243      2.00000
     77      -0.5485      2.00000
     78      -0.4956      2.00000
     79      -0.3954      2.00000
     80      -0.3666      2.00000
     81      -0.3366      2.00000
     82      -0.2483      2.00000
     83      -0.1483      2.00000
     84      -0.1344      2.00000
     85      -0.0821      2.00000
     86      -0.0490      2.00000
     87       0.0433      2.00000
     88       0.0693      2.00000
     89       0.0856      2.00000
     90       0.1849      2.00000
[...]
   -.436E+02 -.120E+02 -.262E+02   0.421E+02 0.113E+02 0.258E+02   0.136E+01 0.432E-01 0.465E+00   0.444E-04 0.165E-04 0.975E-04
   -.841E+02 0.623E+02 -.765E+00   0.849E+02 -.628E+02 0.694E+00   -.767E+00 0.109E+01 0.109E+01   0.851E-04 0.627E-04 0.868E-05
   -.482E+02 0.540E+02 -.200E+02   0.477E+02 -.542E+02 0.164E+02   0.259E+00 0.474E+00 0.345E+01   0.210E-03 0.946E-05 0.405E-04
   0.517E+01 -.303E+02 0.796E+00   -.504E+01 0.308E+02 -.803E+00   -.461E+00 0.226E+00 0.755E+00   -.111E-03 -.180E-03 -.281E-04
   -.252E+02 0.183E+01 0.567E+01   0.230E+02 -.718E+00 -.494E+01   0.236E+01 -.159E+01 -.937E+00   0.229E-03 0.108E-03 -.515E-04
   0.413E+00 0.720E+01 -.166E+01   -.193E+00 -.877E+01 0.701E+00   -.834E+00 0.255E+01 0.141E+01   0.219E-03 0.248E-03 -.784E-04
   0.603E+02 0.717E+02 -.224E+02   -.600E+02 -.727E+02 0.210E+02   -.189E+00 0.101E+01 0.121E+01   -.456E-04 0.363E-03 0.961E-04
   -.448E+02 0.339E+02 0.114E+02   0.411E+02 -.345E+02 -.108E+02   0.354E+01 0.121E+01 -.794E+00   0.200E-03 -.114E-04 0.611E-05
   0.329E+02 -.228E+02 0.509E+01   -.301E+02 0.230E+02 -.440E+01   -.408E+01 -.761E+00 -.706E+00   -.200E-04 -.247E-03 0.662E-04
   0.213E+01 -.231E+02 0.908E+00   0.338E+00 0.224E+02 -.652E+00   -.191E+01 0.222E+00 -.138E+01   0.344E-03 -.196E-04 -.158E-03
   0.742E+02 0.881E+02 0.588E+01   -.739E+02 -.839E+02 -.571E+01   0.124E+01 -.474E+01 -.245E-01   0.197E-03 0.568E-03 -.462E-04
   0.582E+01 -.224E+02 0.114E+01   -.820E+01 0.219E+02 -.155E+01   0.196E+01 0.137E+01 0.529E+00   -.335E-04 -.252E-03 0.805E-04
   -.572E+02 0.408E+02 0.770E+01   0.557E+02 -.420E+02 -.636E+01   0.349E+00 0.135E+01 -.153E+01   0.206E-03 0.538E-04 0.131E-04
   -.168E+02 0.628E+01 0.329E+01   0.156E+02 -.471E+01 -.490E+01   0.135E+01 -.168E+01 0.100E+01   0.223E-04 -.273E-03 -.652E-04
   0.125E+03 -.191E+02 -.161E+02   -.125E+03 0.180E+02 0.145E+02   -.201E+00 0.112E+01 0.207E+01   0.101E-02 -.922E-04 -.236E-03
   0.103E+03 0.352E+02 -.140E+01   -.100E+03 -.358E+02 0.181E+01   -.266E+01 0.489E+00 -.316E+00   0.363E-03 0.723E-03 -.319E-03
   0.810E+02 -.259E+02 0.606E+01   -.793E+02 0.250E+02 -.577E+01   -.244E+01 0.410E+00 -.479E+00   0.562E-03 -.390E-04 0.406E-03
   -.116E+01 0.443E+02 -.398E+01   0.340E+01 -.426E+02 0.420E+01   -.240E+01 -.121E+01 -.871E+00   0.163E-04 0.802E-04 0.507E-04
   -.853E+02 0.631E+01 0.344E+01   0.849E+02 -.739E+01 -.318E+01   -.761E-01 0.674E+00 -.535E+00   0.201E-03 0.138E-03 0.193E-04
   0.642E+01 0.345E+02 -.750E+01   -.520E+01 -.341E+02 0.879E+01   -.179E+01 -.857E+00 -.114E+01   0.109E-04 0.161E-03 0.592E-04
   -.906E+02 -.603E+02 -.672E+01   0.897E+02 0.579E+02 0.685E+01   0.518E+00 0.395E+01 -.106E+01   0.206E-03 0.114E-03 0.113E-03
   0.641E+02 0.216E+02 0.300E+01   -.616E+02 -.202E+02 -.307E+01   -.283E+01 -.747E+00 -.174E-01   0.320E-03 0.217E-03 0.146E-03
   0.444E+02 -.102E+03 -.115E+02   -.439E+02 0.101E+03 0.117E+02   0.216E+00 0.129E+01 -.553E+00   -.308E-04 -.566E-03 -.783E-05
   -.149E+02 0.282E+01 0.163E+02   0.157E+02 -.302E+00 -.165E+02   -.606E+00 -.323E+01 0.614E+00   0.143E-03 -.738E-04 0.195E-04
   0.247E+02 -.763E+02 0.144E+02   -.249E+02 0.763E+02 -.164E+02   0.591E+00 0.125E+00 0.180E+01   -.778E-04 -.357E-03 -.384E-04
   -.863E+01 0.435E+01 0.445E+01   0.102E+02 -.432E+01 -.403E+01   -.168E+01 -.390E+00 -.177E+00   0.275E-04 -.209E-04 -.774E-04
   -.101E+03 -.556E+02 0.243E+02   0.994E+02 0.546E+02 -.220E+02   0.117E+01 0.806E+00 -.187E+01   0.229E-03 -.183E-03 -.139E-03
   -.138E+02 0.126E+03 -.334E+01   0.145E+02 -.122E+03 0.247E+01   0.782E+00 -.350E+01 0.110E+01   -.571E-04 0.413E-04 -.954E-04
   -.569E+02 -.849E+02 -.305E+02   0.559E+02 0.857E+02 0.285E+02   0.223E+01 0.194E+00 0.290E+01   -.846E-05 -.222E-03 -.998E-04
   0.270E+02 0.260E+02 0.822E+00   -.250E+02 -.269E+02 -.188E+01   -.242E+01 0.192E+01 -.578E-01   -.364E-04 0.167E-03 0.910E-04
   0.365E+01 -.225E+02 -.119E+02   -.788E+01 0.246E+02 0.109E+02   0.420E+01 -.219E+01 0.453E+00   0.169E-05 -.184E-03 -.257E-04
   -.555E+02 -.632E+02 -.134E+02   0.545E+02 0.616E+02 0.124E+02   -.604E+00 0.220E+01 -.710E+00   0.222E-03 -.938E-04 0.154E-03
   0.557E+02 -.557E+02 0.156E+02   -.572E+02 0.551E+02 -.144E+02   0.152E+01 0.681E+00 -.135E+01   0.220E-03 -.393E-03 0.194E-03
   0.414E+02 -.756E+02 0.607E+01   -.402E+02 0.742E+02 -.711E+01   -.535E+00 0.118E+01 0.121E+01   -.209E-05 -.520E-03 -.475E-05
   -.442E+02 0.780E+02 0.455E+01   0.453E+02 -.773E+02 -.450E+01   -.503E+00 -.679E+00 0.782E+00   0.804E-04 0.179E-04 -.615E-04
   0.705E+02 -.363E+02 -.395E+01   -.704E+02 0.369E+02 0.468E+01   -.750E+00 -.237E+00 -.156E+01   0.313E-03 -.594E-03 -.310E-03
   0.209E+02 0.623E+02 -.274E+01   -.194E+02 -.630E+02 0.297E+01   -.983E+00 0.162E+00 0.496E+00   -.149E-03 0.355E-04 -.781E-04
   -.949E+02 -.371E+02 0.129E+02   0.909E+02 0.367E+02 -.119E+02   0.357E+01 0.115E+01 -.473E+00   0.310E-03 0.138E-03 -.134E-03
   0.155E+02 0.113E+01 -.106E+02   -.147E+02 -.293E+01 0.105E+02   -.314E+00 0.232E+01 -.744E+00   0.504E-05 0.915E-04 0.560E-05
   -.786E+02 0.662E+02 0.143E+02   0.798E+02 -.664E+02 -.101E+02   -.200E+01 0.342E-02 -.434E+01   0.265E-03 -.510E-04 0.124E-03
   0.917E+02 0.493E+02 -.139E+02   -.944E+02 -.502E+02 0.113E+02   0.175E+01 0.350E-01 0.261E+01   0.170E-03 0.460E-03 -.354E-04
   -.113E+03 -.676E+02 0.117E+02   0.113E+03 0.693E+02 -.116E+02   0.111E+01 -.187E+01 -.735E+00   0.516E-04 -.119E-03 -.282E-04
   -.341E+02 0.310E+02 -.675E+00   0.316E+02 -.298E+02 0.343E+00   0.309E+01 -.955E+00 -.314E+00   0.775E-04 0.742E-04 -.613E-04
   -.110E+02 0.351E+02 -.275E+00   0.122E+02 -.375E+02 0.808E+00   -.283E+01 0.209E+01 -.159E+01   0.237E-03 0.254E-04 0.108E-04
   0.536E+01 0.660E+02 0.415E+01   -.721E+01 -.671E+02 -.523E+01   0.278E+01 0.858E-01 0.135E+01   -.163E-03 0.400E-04 -.558E-04
   0.438E+01 0.107E+02 0.123E+02   -.553E+01 -.851E+01 -.112E+02   0.118E+01 -.213E+01 -.147E+01   -.893E-04 -.101E-03 0.570E-04
   0.249E+02 0.348E+01 -.719E+01   -.226E+02 -.275E+01 0.734E+01   -.252E+01 -.685E+00 -.230E+00   -.765E-04 -.243E-05 0.132E-03
   -.594E+02 -.325E+02 0.239E+02   0.593E+02 0.318E+02 -.218E+02   -.107E+00 0.361E+00 -.177E+01   0.175E-03 -.176E-03 0.239E-04
   0.256E+02 0.770E+02 -.123E+02   -.266E+02 -.754E+02 0.142E+02   0.113E+01 -.163E+01 -.193E+01   -.112E-03 0.198E-03 0.167E-03
   0.608E+01 -.443E+02 -.199E+02   -.248E+01 0.425E+02 0.208E+02   -.340E+01 0.268E+01 -.989E+00   0.707E-04 -.627E-04 -.370E-04
   0.542E+02 -.144E+03 0.123E+02   -.559E+02 0.145E+03 -.116E+02   0.152E+01 0.842E-01 0.591E+00   -.364E-04 -.993E-03 -.603E-05
   -.115E+02 -.134E+02 0.206E+02   0.123E+02 0.141E+02 -.180E+02   -.154E+01 -.374E+00 -.329E+01   0.165E-03 -.376E-03 -.536E-04
 -----------------------------------------------------------------------------------------------
   0.220E+01 -.111E+02 -.408E-01   -.121E-12 -.139E-12 0.142E-13   -.221E+01 0.111E+02 0.454E-01   0.622E-02 -.279E-02 0.124E-03


 POSITION                                       TOTAL-FORCE (eV/Angst)
 -----------------------------------------------------------------------------------
      7.80583     10.79140      4.24583         0.250653     -0.423669     -0.408788
      6.03916     14.35120      5.27153        -0.592653      0.245959     -0.407311
      7.98796      1.68589      3.06129         0.227054     -1.088760     -0.285727
      5.20137      0.35026      8.28263         0.584924     -0.504730      0.184661
     11.34260     12.00590      5.39230        -0.258593      0.305042      0.011478
      5.81136     11.10130      2.48174        -0.037810     -0.320076      0.126240
      6.30399      9.99523      7.20270        -0.738243     -0.992763      0.360281
      9.65845      1.47712      2.12231        -0.194861     -0.330011      0.194727
      7.43782      1.84892      7.85689        -0.327239      0.443179      0.160523
     10.76960     14.17380      4.79683         0.350082      0.191540      0.457120
     10.85200      2.31914      2.26444        -0.278403      0.321860      0.591298
     10.98380      4.51652      8.05983        -1.519227     -0.973168      0.320300
      2.64737      5.09549      5.31938         0.508841     -1.130738      0.370816
     14.56311      2.98525      6.93291         0.540855     -0.554448      1.494591
     10.15390      4.47091      1.56095        -0.611556     -0.317445      0.021067
      0.06810      7.60889      6.08723        -0.664825      1.155588      0.621374
      2.20455      7.02996      6.43624         0.632442      0.296823     -0.106829
      9.81268      8.03993      7.70423        -0.263940     -0.127146     -1.237136
      7.38768      2.90895      3.48539        -0.029220      1.291749     -0.835889
     12.99830      3.49072      8.64599         0.553711      0.540297     -0.503210
      2.18525      0.87946      2.01596        -0.399627     -0.171544      0.765767
      2.02343     10.49760      5.14976         0.074967     -0.015876      2.399159
     14.21770      8.78219      8.23494         1.038391     -0.695890      0.318958
      6.84314      8.04295      5.36391        -0.596980     -1.558798     -0.065325
     14.33300      1.26896      2.42406         0.140732      0.568131     -0.243327
     11.87970     10.63980      5.42387         0.428329     -0.458157      0.798495
      2.15167      0.07593      8.50090         1.673445     -0.723305     -0.448350
      8.26069      9.35000      4.25444         0.858837      0.491027      0.162394
      6.80390      6.56231      1.74029        -0.224617     -0.927446      0.511393
     11.54530      6.59102      7.79347         1.315082      0.979727     -0.165783
      1.21878     11.65180      1.74857         0.821425     -0.506657     -0.181455
      2.58818      6.12366      8.50031        -0.288753     -0.786679      0.022293
      4.73333      0.54292      5.04740         0.030965      0.653117      1.100106
      3.93568      3.07626      8.39159        -0.199772      0.343010      0.007845
      8.05555      6.72007      6.85618        -0.371636      0.803874      0.841155
      0.94793     13.82290      5.35056         0.230040     -0.556509     -0.237536
      0.40064      0.59299      7.08704        -0.658740      1.108874      0.518976
     11.23610      2.59739      4.61784         0.160419      0.118983     -0.179685
      4.91740      4.66586      5.16512        -0.056340      0.665984     -0.244778
      0.46722      9.13243      4.30033        -1.449453     -0.658134     -0.038384
      0.81969     11.84870      6.76384         0.502725     -0.426612     -1.218042
     12.40860      1.49016      0.82323         1.603823     -0.703855      0.153077
     11.41580      7.20222      4.32089        -0.370997      0.929754      0.150575
      3.60647      2.80126      2.12238        -1.100255      0.191157     -0.239303
      1.77903      7.98379      2.83270         0.272946     -0.137441     -0.580560
     12.48230     12.45990      0.08849         0.430624      0.117357      0.584451
     12.72500     14.55957      7.62232        -0.221765      0.021160      0.121281
     13.63720     12.34380      2.28121        -0.826862     -0.564777     -0.193225
      2.06207      4.04499      7.44147        -0.255212      0.497465     -0.722908
      2.92441     14.05230      3.95895        -0.530477     -0.369460     -0.274690
     14.39720      3.54187      3.31701        -0.659060     -0.449736      0.052576
      2.88255     11.68810      3.48497        -0.342798      1.699548     -0.989675
     13.76600     14.09120      3.88209        -0.525186      0.672829     -0.097456
     10.20620      8.91523      5.57128         0.749657      0.387558     -0.436325
      5.61061      6.72244      3.79107         0.118992     -0.819830      0.411734
      8.58328      7.82080      2.46140         0.423889      0.125272     -0.038283
      1.35416      5.98712      1.74507        -0.171688     -0.373832      0.270095
      3.66798     10.20440      0.18841         0.025825     -0.088693      0.426397
      7.26320      3.33095      8.09446         1.489968     -0.158588      0.272275
      5.22313      8.84109      7.35777         1.341383      1.028443      0.986296
     13.21290      3.78824      5.31634        -0.520631      1.042571     -1.131516
     12.86220      7.29398      0.94439         0.192350     -0.263272     -0.480186
      3.60138      8.78742      5.85055        -1.586893      0.698871     -1.808720
     13.08370     10.25440      3.44150         0.089215      0.091333     -0.196342
     11.67060      8.64039      2.38378         0.677927     -0.164160      0.239831
      5.10676      2.64918      3.89285         0.641072     -0.038058      0.874152
     13.36010     10.76990      7.43208        -0.604196      0.354584     -0.910097
      7.71084      4.32432      1.50237         0.509223     -0.526944      0.729494
      2.36153     12.20580      8.44174        -0.387227      0.787337      0.511473
     13.57050      5.04998      1.69003         0.529995      0.616056     -0.880446
      4.17980      0.96628      7.44817        -0.796706     -0.252605     -0.281051
     11.96810      0.42711      5.26119        -0.855039     -0.949038      0.171343
      4.47053     10.43260      2.43989         0.551256     -0.177484     -0.720370
      1.98801      4.27704      3.24729         0.690698      0.197992     -0.659860
      5.53383      4.59615      7.51268        -1.730536     -0.180520     -1.130136
      8.80502      4.56868      6.87985         1.074680     -1.016616      0.344785
     12.84920      6.15268      5.85875         0.083617     -0.037083     -0.423114
      9.82969      5.86618      3.40260        -0.314594      0.000885     -0.116493
      4.01334      8.38888      3.55461        -0.212690     -0.311875      0.285776
      9.15099      3.93753      4.71750         0.213392     -0.108179     -0.221994
      6.05323      6.72047      8.24288         0.041034      1.036092     -0.097178
      9.81591      9.17225      0.97831        -0.042499      0.610393      1.357370
      1.58973      9.40033      1.02426        -0.857686      0.309182     -0.866519
 -----------------------------------------------------------------------------------
    total drift:                                0.003568      0.001552      0.004765


--------------------------------------------------------------------------------------------------------



  FREE ENERGIE OF THE ION-ELECTRON SYSTEM (eV)
  ---------------------------------------------------
  free  energy   TOTEN  =      -741.91477798 eV

  energy  without entropy=     -741.84358184  energy(sigma->0) =     -741.87917991



--------------------------------------------------------------------------------------------------------


    POTLOK:  cpu time      1.6864: real time      1.6879


--------------------------------------------------------------------------------------------------------


     LOOP+:  cpu time   1727.7578: real time   1729.5255
    4ORBIT:  cpu time      0.0000: real time      0.0000



 total charge

# of ion       s       p       d       tot
------------------------------------------
    1        0.550   0.014   0.000   0.564
    2        0.545   0.014   0.000   0.558
    3        0.599   0.019   0.000   0.618
    4        0.585   0.017   0.000   0.602
    5        0.576   0.017   0.000   0.593
    6        0.560   0.015   0.000   0.575
    7        0.520   0.012   0.000   0.532
    8        0.579   0.017   0.000   0.596
    9        0.547   0.015   0.000   0.561
   10        0.553   0.014   0.000   0.567
   11        0.747   0.983   0.000   1.730
   12        0.761   0.985   0.000   1.746
   13        0.753   0.974   0.000   1.727
   14        0.748   0.948   0.000   1.696
   15        0.755   0.945   0.000   1.700
   16        0.755   0.949   0.000   1.704
   17        0.758   0.987   0.000   1.745
   18        0.754   0.989   0.000   1.743
   19        0.743   0.980   0.000   1.723
   20        0.762   0.953   0.000   1.714
   21        0.748   0.897   0.000   1.645
   22        0.758   0.980   0.000   1.738
   23        0.755   0.885   0.000   1.640
   24        0.789   0.903   0.000   1.692
   25        0.757   0.878   0.000   1.634
   26        0.741   0.953   0.000   1.694
   27        0.752   0.923   0.000   1.675
   28        0.739   0.983   0.000   1.723
   29        0.749   0.947   0.000   1.696
   30        0.765   1.009   0.000   1.774
   31        0.759   0.933   0.000   1.693
   32        0.793   0.886   0.000   1.680
   33        0.732   0.920   0.000   1.653
   34        0.756   0.926   0.000   1.682
   35        0.759   0.952   0.000   1.711
   36        0.751   0.950   0.000   1.701
   37        0.755   0.946   0.000   1.700
   38        0.749   0.894   0.000   1.644
   39        0.752   0.901   0.000   1.653
   40        0.756   0.968   0.000   1.724
   41        0.753   0.919   0.000   1.672
   42        0.753   0.953   0.000   1.706
   43        0.754   0.938   0.000   1.692
   44        0.745   0.910   0.000   1.655
   45        0.753   0.984   0.000   1.737
   46        0.792   0.822   0.000   1.614
   47        0.750   0.877   0.000   1.627
   48        0.749   0.897   0.000   1.647
   49        0.753   0.926   0.000   1.679
   50        0.746   0.893   0.000   1.639
   51        0.762   0.933   0.000   1.695
   52        0.752   0.979   0.000   1.731
   53        0.747   0.942   0.000   1.688
   54        0.753   0.916   0.000   1.670
   55        0.753   0.898   0.000   1.652
   56        0.756   0.904   0.000   1.660
   57        0.765   0.913   0.000   1.678
   58        0.770   0.867   0.000   1.637
   59        0.739   1.012   0.000   1.751
   60        0.735   0.921   0.000   1.655
   61        0.749   0.937   0.000   1.686
   62        0.761   0.898   0.000   1.660
   63        0.758   0.972   0.000   1.730
   64        0.750   0.913   0.000   1.663
   65        0.752   0.915   0.000   1.667
   66        0.742   0.938   0.000   1.681
   67        0.749   0.923   0.000   1.672
   68        0.753   0.908   0.000   1.661
   69        0.752   0.919   0.000   1.671
   70        0.765   0.870   0.000   1.636
   71        0.744   0.956   0.000   1.700
   72        0.742   0.902   0.000   1.645
   73        0.740   0.974   0.000   1.714
   74        0.755   0.947   0.000   1.702
   75        0.752   0.954   0.000   1.706
   76        0.757   0.958   0.000   1.714
   77        0.751   0.931   0.000   1.682
   78        0.756   0.918   0.000   1.673
   79        0.751   0.943   0.000   1.694
   80        0.753   0.914   0.000   1.667
   81        0.755   0.916   0.000   1.671
   82        0.800   0.873   0.000   1.672
   83        0.758   0.914   0.000   1.672
--------------------------------------------------
tot         60.695  68.178   0.000 128.873


 total amount of memory used by VASP MPI-rank0   172986. kBytes
=======================================================================

   base                                    :      30000. kBytes
   nonl-proj                               :      31183. kBytes
   fftplans                                :      33483. kBytes
   grid                                    :      25810. kBytes
   one-center                              :         18. kBytes
   wavefun                                 :      52492. kBytes

  
  
 General timing and accounting informations for this job:
 ========================================================
  
                  Total CPU time used (sec):     1785.774
                            User time (sec):     1778.692
                          System time (sec):        7.082
                         Elapsed time (sec):     1787.634
  
                   Maximum memory used (kb):      350304.
                   Average memory used (kb):          N/A
  
                          Minor page faults:       248079
                          Major page faults:         1134
                 Voluntary context switches:         2420
