 vasp.6.5.0 16Dec24 (build Jan 20 2025 08:32:48) complex                         
 executed on        HPECrayEX_GCC date 2025.07.21  23:55:13
 running  128 mpi-ranks, with    1 threads/rank, on    1 nodes
 distrk:  each k-point on  128 cores,    1 groups
 distr:  one band on NCORE=  16 cores,    8 groups


--------------------------------------------------------------------------------------------------------


 INCAR:
   SYSTEM = a-Si SPC
   NCORE = 16
   ISTART = 1
   ICHARG = 1
   ISPIN = 1
   ISYM = 1
   EDIFF = 1E-6
   NELM = 150
   EDIFFG = -0.01
   NSW = 0
   ISIF = 2
   IBRION = -1
   PREC = Accurate
   ENCUT = 1200
   KSPACING = 0.23
   KGAMMA = .TRUE.
   METAGGA = SCAN
   LASPH = .TRUE.
   LDIAG = .FALSE.
   LMIXTAU = .TRUE.
   ADDGRID = .TRUE.
   ALGO = Normal
   ISMEAR = 0
   SIGMA = 0.1
   LORBIT = 11
   NEDOS = 2000
   LWAVE = .FALSE.
   LCHARG = .FALSE.

 POTCAR:    PAW_PBE H 15Jun2001                   
 POTCAR:    PAW_PBE Si 05Jan2001                  
 POTCAR:    PAW_PBE H 15Jun2001                   
   SHA256 =  030f79b5d3ab3cf0e668861823c8fb652ff669f3e15e46930bd03bfd63a607b6 H/POTCAR              
   COPYR  = (c) Copyright 15Jun2001 Georg Kresse                                                    
   COPYR  = This file is part of the software VASP. Any use, copying, and all other rights are regul
   COPYR  = If you do not have a valid VASP license, you may not use, copy or distribute this file. 
   VRHFIN =H: ultrasoft test                                                                        
   LEXCH  = PE                                                                                      
   EATOM  =    12.4884 eV,    0.9179 Ry                                                             
                                                                                                    
   TITEL  = PAW_PBE H 15Jun2001                                                                     
   LULTRA =        F    use ultrasoft PP ?                                                          
   IUNSCR =        0    unscreen: 0-lin 1-nonlin 2-no                                               
   RPACOR =    0.000    partial core radius                                                         
   POMASS =    1.000; ZVAL   =    1.000    mass and valenz                                          
   RCORE  =    1.100    outmost cutoff radius                                                       
   RWIGS  =    0.700; RWIGS  =    0.370    wigner-seitz radius (au A)                               
   ENMAX  =  250.000; ENMIN  =  200.000 eV                                                          
   RCLOC  =    0.701    cutoff for local pot                                                        
   LCOR   =        T    correct aug charges                                                         
   LPAW   =        T    paw PP                                                                      
   EAUG   =  400.000                                                                                
   RMAX   =    1.123    core radius for proj-oper                                                   
   RAUG   =    1.200    factor for augmentation sphere                                              
   RDEP   =    1.112    radius for radial grids                                                     
   RDEPT  =    0.926    core radius for aug-charge                                                  
                                                                                                    
   Atomic configuration                                                                             
    2 entries                                                                                       
     n  l   j            E        occ.                                                              
     1  0  0.50        -6.4927   1.0000                                                             
     2  1  0.50        -3.4015   0.0000                                                             
   Description                                                                                      
     l       E           TYP  RCUT    TYP  RCUT                                                     
     0     -6.4927494     23  1.100                                                                 
     0      6.8029130     23  1.100                                                                 
     1     -4.0817478     23  1.100                                                                 
  local pseudopotential read in
  atomic valenz-charges read in
  non local Contribution for L=           0  read in
    real space projection operators read in
  non local Contribution for L=           0  read in
    real space projection operators read in
  non local Contribution for L=           1  read in
    real space projection operators read in
    PAW grid and wavefunctions read in

   number of l-projection  operators is LMAX  =           3
   number of lm-projection operators is LMMAX =           5

 POTCAR:    PAW_PBE Si 05Jan2001                  
   SHA256 =  79d9987ad8750f624c4d6acb2a16d13abf6a777132adc04dc6c8399be72b42bb Si/POTCAR             
   COPYR  = (c) Copyright 05Jan2001 Georg Kresse                                                    
   COPYR  = This file is part of the software VASP. Any use, copying, and all other rights are regul
   COPYR  = If you do not have a valid VASP license, you may not use, copy or distribute this file. 
   VRHFIN =Si: s2p2                                                                                 
   LEXCH  = PE                                                                                      
   EATOM  =   103.0669 eV,    7.5752 Ry                                                             
                                                                                                    
   TITEL  = PAW_PBE Si 05Jan2001                                                                    
   LULTRA =        F    use ultrasoft PP ?                                                          
   IUNSCR =        1    unscreen: 0-lin 1-nonlin 2-no                                               
   RPACOR =    1.500    partial core radius                                                         
   POMASS =   28.085; ZVAL   =    4.000    mass and valenz                                          
   RCORE  =    1.900    outmost cutoff radius                                                       
   RWIGS  =    2.480; RWIGS  =    1.312    wigner-seitz radius (au A)                               
   ENMAX  =  245.345; ENMIN  =  184.009 eV                                                          
   ICORE  =        2    local potential                                                             
   LCOR   =        T    correct aug charges                                                         
   LPAW   =        T    paw PP                                                                      
   EAUG   =  322.069                                                                                
   DEXC   =    0.000                                                                                
   RMAX   =    1.950    core radius for proj-oper                                                   
   RAUG   =    1.300    factor for augmentation sphere                                              
   RDEP   =    1.993    radius for radial grids                                                     
   RDEPT  =    1.837    core radius for aug-charge                                                  
                                                                                                    
   Atomic configuration                                                                             
    6 entries                                                                                       
     n  l   j            E        occ.                                                              
     1  0  0.50     -1785.8828   2.0000                                                             
     2  0  0.50      -139.4969   2.0000                                                             
     2  1  1.50       -95.5546   6.0000                                                             
     3  0  0.50       -10.8127   2.0000                                                             
     3  1  0.50        -4.0811   2.0000                                                             
     3  2  1.50        -4.0817   0.0000                                                             
   Description                                                                                      
     l       E           TYP  RCUT    TYP  RCUT                                                     
     0    -10.8127223     23  1.900                                                                 
     0     -7.6451159     23  1.900                                                                 
     1     -4.0811372     23  1.900                                                                 
     1      2.4879257     23  1.900                                                                 
     2     -4.0817478      7  1.900                                                                 
  local pseudopotential read in
  partial core-charges read in
  partial kinetic energy density read in
  atomic valenz-charges read in
  non local Contribution for L=           0  read in
    real space projection operators read in
  non local Contribution for L=           0  read in
    real space projection operators read in
  non local Contribution for L=           1  read in
    real space projection operators read in
  non local Contribution for L=           1  read in
    real space projection operators read in
    PAW grid and wavefunctions read in

   number of l-projection  operators is LMAX  =           4
   number of lm-projection operators is LMMAX =           8

 -----------------------------------------------------------------------------
|                                                                             |
|               ----> ADVICE to this user running VASP <----                  |
|                                                                             |
|     You have a (more or less) 'large supercell' and for larger cells it     |
|     might be more efficient to use real-space projection operators.         |
|     Therefore, try LREAL= Auto in the INCAR file.                           |
|     Mind: For very accurate calculation, you might also keep the            |
|     reciprocal projection scheme (i.e. LREAL=.FALSE.).                      |
|                                                                             |
 -----------------------------------------------------------------------------

 -----------------------------------------------------------------------------
|                                                                             |
|               ----> ADVICE to this user running VASP <----                  |
|                                                                             |
|     You enforced a specific xc type in the INCAR file but a different       |
|     type was found in the POTCAR file.                                      |
|     I HOPE YOU KNOW WHAT YOU ARE DOING!                                     |
|                                                                             |
 -----------------------------------------------------------------------------

  PAW_PBE H 15Jun2001                   :
 energy of atom  1       EATOM=  -12.4884
 kinetic energy error for atom=    0.0000 (will be added to EATOM!!)
  PAW_PBE Si 05Jan2001                  :
 energy of atom  2       EATOM= -103.0669
 kinetic energy error for atom=    0.0001 (will be added to EATOM!!)


 POSCAR:  H Si
  positions in cartesian coordinates
  No initial velocities read in


 exchange-correlation table for SCAN
   RHO(1)=    0.500       N(1)  =     2000
   RHO(2)=  100.500       N(2)  =     4000



--------------------------------------------------------------------------------------------------------


 ion  position               nearest neighbor table
   1  0.911  0.410  0.847-  33 0.74
   2  0.603  0.477  0.135-  29 0.78
   3  0.920  0.585  0.219- 104 1.49
   4  0.702  0.592  0.539-  32 0.76
   5  0.634  0.359  0.282-  76 1.45
   6  0.397  0.610  0.178-  41 1.50
   7  0.769  0.338  0.506-  50 1.51
   8  0.538  0.475  0.643-  64 1.48
   9  0.571  0.296  0.000-  77 1.45
  10  0.455  0.425  0.128- 101 1.60
  11  0.524  0.405  0.823-  64 1.43
  12  0.506  0.133  0.400- 100 1.54
  13  0.769  0.239  0.133- 103 1.51
  14  0.668  0.664  0.801-  19 0.71
  15  0.846  0.326  0.284-  31 0.72
  16  0.964  0.333  0.052-  47 1.61
  17  0.791  0.506  0.384-  35 0.71
  18  0.741  0.494  0.229-  21 0.74
  19  0.660  0.630  0.756-  14 0.71
  20  0.545  0.574  0.904- 124 1.51
  21  0.697  0.506  0.199-  18 0.74
  22  0.639  0.382  0.634-  50 1.47
  23  0.748  0.455  0.861-  34 0.73
  24  0.829  0.560  0.876-  61 1.52
  25  0.963  0.479  0.311-  97 1.42
  26  0.832  0.558  0.647-  61 1.44
  27  0.525  0.437  0.429-  76 1.49
  28  0.785  0.290  0.808-  99 1.51
  29  0.586  0.473  0.068-   2 0.78
  30  0.550  0.618  0.580-  60 1.52
  31  0.820  0.367  0.271-  15 0.72
  32  0.660  0.592  0.580-   4 0.76
  33  0.881  0.369  0.857-   1 0.74
  34  0.728  0.425  0.816-  23 0.73
  35  0.813  0.536  0.426-  17 0.71
  36  0.698  0.630  0.246- 110 1.42
  37  0.516  0.614  0.115- 124 1.50
  38  0.900  0.262  0.427-  69 1.49
  39  0.928  0.170  0.702-  99 2.29 117 2.30  69 2.32 109 2.43
  40  0.407  0.026  0.154-  63 2.26 129 2.30 125 2.41  90 2.43
  41  0.352  0.640  0.292-   6 1.50  89 2.29  70 2.32  93 2.42
  42  0.563  0.961  0.531-  86 2.25  55 2.35  84 2.35  51 2.56  68 2.88
  43  0.338  0.582  0.953- 118 2.31 102 2.33  94 2.34 124 2.35
  44  0.752  0.086  0.930- 103 2.36 106 2.39  99 2.42  52 2.53
  45  0.338  0.263  0.468- 100 2.29  81 2.32  73 2.34  75 2.46  62 3.14
  46  0.463  0.789  0.944- 115 2.28 134 2.29  83 2.36 124 2.37
  47  0.065  0.321  0.998-  16 1.61 112 2.31  59 2.32 109 2.40
  48  0.687  0.810  0.377- 110 2.26  84 2.27  54 2.38  98 2.50
  49  0.089  0.632  0.957- 118 2.46  80 2.52 122 2.55  91 2.57  59 2.60
  50  0.668  0.327  0.530-  22 1.47   7 1.51  76 2.26  71 2.33
  51  0.426  0.056  0.602-  62 2.28  68 2.33 127 2.35  42 2.56
  52  0.624  0.976  0.880-  86 2.42 116 2.44 115 2.45  44 2.53
  53  0.858  0.829  0.937- 122 2.40 130 2.41 106 2.44 132 2.55
  54  0.757  0.921  0.250-  78 2.21 105 2.23  48 2.38 130 2.41 110 3.04
  55  0.682  0.056  0.464-  42 2.35  71 2.43 105 2.44  88 2.51
  56  0.031  0.013  0.020- 120 2.36  67 2.36 106 2.44  74 2.53
  57  0.119  0.566  0.672-  91 2.16 126 2.19 123 2.28 111 2.33
  58  0.978  0.771  0.621-  91 2.37 132 2.46  85 2.46 107 2.54 119 3.09
  59  0.136  0.460  0.950- 102 2.31  47 2.32 123 2.35  49 2.60  80 3.00
  60  0.471  0.685  0.584-  30 1.52  89 2.29  83 2.31 121 2.31
  61  0.860  0.600  0.758-  26 1.44  24 1.52  91 2.30 132 2.36
  62  0.278  0.099  0.633-  51 2.28  82 2.29 108 2.36  81 2.41  45 3.14
  63  0.439  0.177  0.169-  40 2.26 100 2.33  77 2.35  87 2.46
  64  0.472  0.423  0.717-  11 1.43   8 1.48  94 2.26  75 2.30
  65  0.149  0.357  0.334-  79 2.16  73 2.20  97 2.33 112 2.47
  66  0.074  0.982  0.435-  95 2.25 113 2.31  85 2.37  72 2.56  78 3.02
  67  0.069  0.873  0.114- 122 2.36  56 2.36 113 2.37 128 2.52
  68  0.398  0.903  0.652-  96 2.25  83 2.30  51 2.33  92 2.36  42 2.88
  69  0.963  0.209  0.506-  38 1.49  39 2.32  72 2.36  79 2.36
  70  0.291  0.540  0.433-  73 2.29  41 2.32 121 2.40 126 2.40
  71  0.667  0.179  0.610- 127 2.30  50 2.33  99 2.42  55 2.43
  72  0.954  0.095  0.356-  78 2.28  74 2.32  69 2.36  66 2.56
  73  0.294  0.393  0.360-  65 2.20  70 2.29  45 2.34 101 2.38
  74  0.062  0.110  0.204-  72 2.32 112 2.36  95 2.39  56 2.53
  75  0.417  0.282  0.662-  82 2.30  64 2.30 127 2.37  45 2.46
  76  0.568  0.353  0.379-   5 1.45  27 1.49  50 2.26 100 2.34
  77  0.559  0.200  0.031-   9 1.45 116 2.23 103 2.34  63 2.35
  78  0.876  0.960  0.362-  54 2.21  72 2.28 113 2.29  88 2.32  66 3.02
  79  0.110  0.277  0.489-  65 2.16  81 2.27 131 2.35  69 2.36
  80  0.141  0.585  0.164- 102 2.28  93 2.28  97 2.43  49 2.52  59 3.00
  81  0.214  0.165  0.454-  95 2.20  79 2.27  45 2.32  62 2.41
  82  0.284  0.229  0.748- 131 2.24  62 2.29  75 2.30 114 2.33
  83  0.490  0.792  0.735-  86 2.28  68 2.30  60 2.31  46 2.36
  84  0.540  0.862  0.367- 129 2.25  48 2.27  89 2.34  42 2.35
  85  0.058  0.919  0.630-  66 2.37  58 2.46 119 2.48 108 2.48 117 2.60
  86  0.611  0.887  0.697-  42 2.25  83 2.28  52 2.42  98 2.44
  87  0.295  0.248  0.103- 114 2.27 101 2.34 112 2.44  63 2.46
  88  0.810  0.964  0.552-  98 2.31  78 2.32 117 2.44  55 2.51
  89  0.432  0.746  0.402-  60 2.29  41 2.29  84 2.34  92 2.46
  90  0.371  0.038  0.942- 114 2.33 116 2.39  96 2.42  40 2.43
  91  0.011  0.647  0.752-  57 2.16  61 2.30  58 2.37  49 2.57 132 3.08
  92  0.326  0.866  0.469-  68 2.36 125 2.37  89 2.46 119 2.47
  93  0.206  0.711  0.248- 133 2.28  80 2.28  41 2.42 128 2.43
  94  0.345  0.503  0.771- 121 2.26  64 2.26 123 2.31  43 2.34
  95  0.183  0.053  0.327-  81 2.20  66 2.25 125 2.31  74 2.39
  96  0.305  0.924  0.811-  68 2.25 108 2.29 134 2.39  90 2.42
  97  0.060  0.488  0.307-  25 1.42  65 2.33 126 2.40  80 2.43
  98  0.742  0.824  0.588- 132 2.27  88 2.31  86 2.44  48 2.50
  99  0.780  0.192  0.767-  28 1.51  39 2.29  71 2.42  44 2.42
 100  0.469  0.228  0.363-  12 1.54  45 2.29  63 2.33  76 2.34
 101  0.355  0.390  0.162-  10 1.60 102 2.29  87 2.34  73 2.38
 102  0.252  0.492  0.085-  80 2.28 101 2.29  59 2.31  43 2.33
 103  0.704  0.162  0.107-  13 1.51  77 2.34  44 2.36 105 2.40
 104  0.905  0.686  0.220-   3 1.49 107 2.32 110 2.33 122 2.44
 105  0.665  0.043  0.247-  54 2.23 103 2.40  55 2.44 129 2.49
 106  0.887  0.993  0.914- 117 2.36  44 2.39  56 2.44  53 2.44
 107  0.975  0.733  0.398- 133 2.22 104 2.32 113 2.37  58 2.54
 108  0.179  0.002  0.744- 120 2.28  96 2.29  62 2.36  85 2.48
 109  0.055  0.227  0.822- 131 2.32 120 2.35  47 2.40  39 2.43
 110  0.749  0.713  0.242-  36 1.42  48 2.26 130 2.29 104 2.33  54 3.04
 111  0.218  0.692  0.683- 121 2.24  57 2.33 119 2.34 118 2.38
 112  0.133  0.252  0.162-  47 2.31  74 2.36  87 2.44  65 2.47
 113  0.003  0.878  0.309-  78 2.29  66 2.31 107 2.37  67 2.37
 114  0.270  0.162  0.937-  87 2.27 120 2.27  82 2.33  90 2.33
 115  0.589  0.857  0.028-  46 2.28 129 2.33 130 2.37  52 2.45
 116  0.515  0.103  0.887-  77 2.23 127 2.32  90 2.39  52 2.44
 117  0.918  0.013  0.707-  39 2.30 106 2.36  88 2.44  85 2.60
 118  0.238  0.696  0.895-  43 2.31 134 2.34 111 2.38  49 2.46
 119  0.179  0.814  0.557- 133 2.26 111 2.34  92 2.47  85 2.48  58 3.09
 120  0.132  0.097  0.895- 114 2.27 108 2.28 109 2.35  56 2.36
 121  0.336  0.606  0.621- 111 2.24  94 2.26  60 2.31  70 2.40
 122  0.979  0.750  0.042-  67 2.36  53 2.40 104 2.44  49 2.55
 123  0.198  0.447  0.756-  57 2.28  94 2.31  59 2.35 131 2.37
 124  0.489  0.632  0.988-  37 1.50  20 1.51  43 2.35  46 2.37
 125  0.303  0.953  0.292- 128 2.24  95 2.31  92 2.37  40 2.41
 126  0.131  0.561  0.477-  57 2.19 133 2.29  97 2.40  70 2.40
 127  0.524  0.162  0.695-  71 2.30 116 2.32  51 2.35  75 2.37
 128  0.237  0.860  0.158- 125 2.24 134 2.34  93 2.43  67 2.52
 129  0.536  0.940  0.193-  84 2.25  40 2.30 115 2.33 105 2.49
 130  0.739  0.815  0.086- 110 2.29 115 2.37  54 2.41  53 2.41
 131  0.155  0.299  0.689-  82 2.24 109 2.32  79 2.35 123 2.37
 132  0.832  0.758  0.730-  98 2.27  61 2.36  58 2.46  53 2.55  91 3.08
 133  0.125  0.712  0.422- 107 2.22 119 2.26  93 2.28 126 2.29
 134  0.312  0.822  0.979-  46 2.29 128 2.34 118 2.34  96 2.39

  LATTYP: Found a simple tetragonal cell.
 ALAT       =    14.5848868249
 C/A-ratio  =     0.7640211541
  
  Lattice vectors:
  
 A1 = (  14.5848868249,   0.0000000000,   0.0000000000)
 A2 = (   0.0000000000,  14.5848868249,   0.0000000000)
 A3 = (   0.0000000000,   0.0000000000,  11.1431620649)


Analysis of symmetry for initial positions (statically):
=====================================================================
 Subroutine PRICEL returns:
 Original cell was already a primitive cell.
 

 Routine SETGRP: Setting up the symmetry group for a 
 simple tetragonal supercell.


 Subroutine GETGRP returns: Found  1 space group operations
 (whereof  1 operations were pure point group operations)
 out of a pool of 16 trial point group operations.


The static configuration has the point symmetry C_1 .


Analysis of symmetry for dynamics (positions and initial velocities):
=====================================================================
 Subroutine PRICEL returns:
 Original cell was already a primitive cell.
 

 Routine SETGRP: Setting up the symmetry group for a 
 simple tetragonal supercell.


 Subroutine GETGRP returns: Found  1 space group operations
 (whereof  1 operations were pure point group operations)
 out of a pool of 16 trial point group operations.


The dynamic configuration has the point symmetry C_1 .


 Subroutine INISYM returns: Found  1 space group operations
 (whereof  1 operations are pure point group operations),
 and found     1 'primitive' translations


----------------------------------------------------------------------------------------

                                     Primitive cell                                     

  volume of cell :    2370.3614

  direct lattice vectors                    reciprocal lattice vectors
    14.584886825  0.000000000  0.000000000     0.068564125  0.000000000  0.000000000
     0.000000000 14.584886825  0.000000000     0.000000000  0.068564125  0.000000000
     0.000000000  0.000000000 11.143162065     0.000000000  0.000000000  0.089741134

  length of vectors
    14.584886825 14.584886825 11.143162065     0.068564125  0.068564125  0.089741134

  position of ions in fractional coordinates (direct lattice)
     0.911203505  0.409508149  0.847085409
     0.602939200  0.476671508  0.134950025
     0.920178549  0.585482774  0.219128106
     0.702336612  0.591881178  0.539219475
     0.634351169  0.358747384  0.282317531
     0.397385326  0.609835380  0.178085896
     0.769248341  0.338176090  0.506062818
     0.538258548  0.475061623  0.642935996
     0.571364050  0.295562115  0.000398265
     0.455293214  0.424547004  0.128097392
     0.524026007  0.404561933  0.823068887
     0.505791378  0.133352423  0.399939440
     0.769234629  0.239361473  0.132585346
     0.667767952  0.663972242  0.801011414
     0.846088156  0.325992931  0.284025305
     0.963723625  0.333012526  0.052337388
     0.790702056  0.506057406  0.384435762
     0.741109625  0.494404933  0.228621821
     0.659810399  0.629877359  0.756493529
     0.545483149  0.573891323  0.903522711
     0.697064031  0.506034780  0.198685076
     0.639396117  0.382392408  0.633607405
     0.747678068  0.455482451  0.861281559
     0.828624873  0.559893957  0.876207305
     0.963476794  0.478764771  0.311451093
     0.831785680  0.557689621  0.647456257
     0.524819979  0.436865920  0.428539940
     0.785402049  0.290371811  0.808003146
     0.586095738  0.472591943  0.068355283
     0.550462962  0.618123411  0.580157586
     0.820205199  0.367075183  0.271288345
     0.660487813  0.592297363  0.579537474
     0.881096998  0.369423504  0.857479228
     0.728171574  0.425279268  0.815639219
     0.812971684  0.535966449  0.425720273
     0.698311898  0.629518769  0.246477614
     0.515656384  0.613855980  0.115133388
     0.899910994  0.262007518  0.427417278
     0.927768598  0.170444243  0.701950663
     0.406860888  0.026045865  0.153650283
     0.351945138  0.639690257  0.292192645
     0.562929291  0.960761655  0.530945343
     0.338153464  0.581545822  0.953275196
     0.752244438  0.086402453  0.930193776
     0.338473658  0.262533405  0.468341928
     0.463196601  0.788658845  0.943511360
     0.065240753  0.321399820  0.997993203
     0.686662853  0.809954862  0.376683025
     0.089454242  0.631750531  0.957107142
     0.667750811  0.326564070  0.529844219
     0.426140434  0.055797759  0.602167496
     0.624414856  0.976017172  0.880368601
     0.858415986  0.828857992  0.936978206
     0.756694250  0.920871047  0.249581760
     0.682094426  0.056163617  0.463632313
     0.031349301  0.013208947  0.019906289
     0.119206959  0.566103810  0.672424933
     0.977546152  0.770715614  0.620525840
     0.135501908  0.459602469  0.949811188
     0.470737969  0.684804080  0.584387085
     0.860157514  0.600419469  0.757788494
     0.277819777  0.098612352  0.633294208
     0.438898161  0.177330824  0.168640642
     0.471703352  0.423313535  0.717238065
     0.149442366  0.356981173  0.334027270
     0.073783226  0.982153662  0.435196040
     0.068587437  0.872835021  0.114181234
     0.398126504  0.902996380  0.652278945
     0.963113404  0.209032818  0.505745135
     0.290556248  0.539670969  0.432826874
     0.666683267  0.178865975  0.609815236
     0.954104078  0.095225970  0.356209483
     0.294425322  0.392720223  0.360360011
     0.061617413  0.110257283  0.203901728
     0.417310060  0.281618229  0.662204315
     0.568131251  0.352773392  0.378555026
     0.558713283  0.199989896  0.031017049
     0.875639294  0.959753762  0.362004966
     0.109569585  0.277206128  0.489286611
     0.141288035  0.584552359  0.163905002
     0.213744545  0.164865866  0.453586690
     0.284351195  0.228862935  0.748370162
     0.490419301  0.791531682  0.735014886
     0.540318900  0.861782484  0.367076237
     0.057891982  0.918951251  0.630355186
     0.611061992  0.887233487  0.697282329
     0.294717405  0.248273438  0.102888210
     0.810331965  0.964025307  0.552081174
     0.432286522  0.745778842  0.401824004
     0.370609664  0.037853773  0.941653719
     0.010596448  0.646952569  0.751595458
     0.325931909  0.866095168  0.469460999
     0.206250486  0.711236235  0.247994239
     0.345390407  0.502795811  0.770562247
     0.183225282  0.052969969  0.326742982
     0.304683886  0.923531335  0.810718712
     0.060475889  0.487857745  0.306690325
     0.741939251  0.824044790  0.588398514
     0.780150037  0.192231180  0.766832606
     0.468614538  0.227732312  0.362981349
     0.354935219  0.389527877  0.162299533
     0.251537091  0.492177971  0.084629748
     0.703522771  0.162139757  0.106502086
     0.905444119  0.686477730  0.220449993
     0.664550237  0.043243051  0.246823118
     0.886698687  0.993075927  0.913762175
     0.975098413  0.732662524  0.398106926
     0.178554008  0.002220867  0.743871439
     0.055400156  0.226597576  0.821889689
     0.748891653  0.712614374  0.241922354
     0.217879647  0.691544619  0.682828622
     0.133244778  0.252022525  0.161622885
     0.003198537  0.877799064  0.309115131
     0.270252354  0.161924465  0.936843594
     0.588585301  0.856729308  0.027935607
     0.515164779  0.102507480  0.887467125
     0.917799374  0.012776376  0.707307311
     0.237585663  0.695850446  0.894539624
     0.179107321  0.814013858  0.557066294
     0.132360300  0.096791975  0.895358063
     0.336254238  0.606246734  0.620609299
     0.978540332  0.750221797  0.042180307
     0.197767047  0.446826916  0.755710089
     0.489118639  0.632111864  0.987502464
     0.303340030  0.953144180  0.292417895
     0.130563235  0.560988241  0.476546062
     0.524207016  0.161916238  0.695124055
     0.237329918  0.859794125  0.157827732
     0.535524210  0.939595909  0.192726265
     0.739422947  0.814596654  0.085935841
     0.155099592  0.298777087  0.689331265
     0.831696546  0.758360358  0.730381552
     0.124770937  0.712285267  0.422146781
     0.312071671  0.822310118  0.978878341

  ion indices of the primitive-cell ions
   primitive index   ion index
                 1           1
                 2           2
                 3           3
                 4           4
                 5           5
                 6           6
                 7           7
                 8           8
                 9           9
                10          10
                11          11
                12          12
                13          13
                14          14
                15          15
                16          16
                17          17
                18          18
                19          19
                20          20
                21          21
                22          22
                23          23
                24          24
                25          25
                26          26
                27          27
                28          28
                29          29
                30          30
                31          31
                32          32
                33          33
                34          34
                35          35
                36          36
                37          37
                38          38
                39          39
                40          40
                41          41
                42          42
                43          43
                44          44
                45          45
                46          46
                47          47
                48          48
                49          49
                50          50
                51          51
                52          52
                53          53
                54          54
                55          55
                56          56
                57          57
                58          58
                59          59
                60          60
                61          61
                62          62
                63          63
                64          64
                65          65
                66          66
                67          67
                68          68
                69          69
                70          70
                71          71
                72          72
                73          73
                74          74
                75          75
                76          76
                77          77
                78          78
                79          79
                80          80
                81          81
                82          82
                83          83
                84          84
                85          85
                86          86
                87          87
                88          88
                89          89
                90          90
                91          91
                92          92
                93          93
                94          94
                95          95
                96          96
                97          97
                98          98
                99          99
               100         100
               101         101
               102         102
               103         103
               104         104
               105         105
               106         106
               107         107
               108         108
               109         109
               110         110
               111         111
               112         112
               113         113
               114         114
               115         115
               116         116
               117         117
               118         118
               119         119
               120         120
               121         121
               122         122
               123         123
               124         124
               125         125
               126         126
               127         127
               128         128
               129         129
               130         130
               131         131
               132         132
               133         133
               134         134

----------------------------------------------------------------------------------------


 -----------------------------------------------------------------------------
|                                                                             |
|           W    W    AA    RRRRR   N    N  II  N    N   GGGG   !!!           |
|           W    W   A  A   R    R  NN   N  II  NN   N  G    G  !!!           |
|           W    W  A    A  R    R  N N  N  II  N N  N  G       !!!           |
|           W WW W  AAAAAA  RRRRR   N  N N  II  N  N N  G  GGG   !            |
|           WW  WW  A    A  R   R   N   NN  II  N   NN  G    G                |
|           W    W  A    A  R    R  N    N  II  N    N   GGGG   !!!           |
|                                                                             |
|     The requested file  could not be found or opened for reading            |
|     k-point information. Automatic k-point generation is used as a          |
|     fallback, which may lead to unwanted results.                           |
|                                                                             |
 -----------------------------------------------------------------------------



Automatic generation of k-mesh.
 Grid dimensions derived from KSPACING:
 generate k-points for:    2    2    3

 Generating k-lattice:

  Cartesian coordinates                     Fractional coordinates (reciprocal lattice)
     0.034282062  0.000000000  0.000000000     0.500000000  0.000000000  0.000000000
     0.000000000  0.034282062  0.000000000     0.000000000  0.500000000  0.000000000
     0.000000000  0.000000000  0.029913711     0.000000000  0.000000000  0.333333333

  Length of vectors
     0.034282062  0.034282062  0.029913711

  Shift w.r.t. Gamma in fractional coordinates (k-lattice)
     0.000000000  0.000000000  0.000000000

 
 Subroutine IBZKPT returns following result:
 ===========================================
 
 Found      8 irreducible k-points:
 
 Following reciprocal coordinates:
            Coordinates               Weight
  0.000000  0.000000  0.000000      1.000000
  0.500000  0.000000  0.000000      1.000000
  0.000000  0.500000  0.000000      1.000000
  0.500000  0.500000  0.000000      1.000000
  0.000000  0.000000  0.333333      2.000000
  0.500000  0.000000  0.333333      2.000000
  0.000000  0.500000  0.333333      2.000000
  0.500000  0.500000  0.333333      2.000000
 
 Following cartesian coordinates:
            Coordinates               Weight
  0.000000  0.000000  0.000000      1.000000
  0.034282  0.000000  0.000000      1.000000
  0.000000  0.034282  0.000000      1.000000
  0.034282  0.034282  0.000000      1.000000
  0.000000  0.000000  0.029914      2.000000
  0.034282  0.000000  0.029914      2.000000
  0.000000  0.034282  0.029914      2.000000
  0.034282  0.034282  0.029914      2.000000
 


--------------------------------------------------------------------------------------------------------




 Dimension of arrays:
   k-points           NKPTS =      8   k-points in BZ     NKDIM =      8   number of bands    NBANDS=    280
   number of dos      NEDOS =   2000   number of ions     NIONS =    134
   non local maximal  LDIM  =      4   non local SUM 2l+1 LMDIM =      8
   total plane-waves  NPLWV = ******
   max r-space proj   IRMAX =      1   max aug-charges    IRDMAX= 401449
   dimension x,y,z NGX =   168 NGY =  168 NGZ =  126
   dimension x,y,z NGXF=   336 NGYF=  336 NGZF=  252
   support grid    NGXF=   672 NGYF=  672 NGZF=  504
   ions per type =              38  96
   NGX,Y,Z   is equivalent  to a cutoff of  19.15, 19.15, 18.80 a.u.
   NGXF,Y,Z  is equivalent  to a cutoff of  38.30, 38.30, 37.60 a.u.

 SYSTEM =  a-Si SPC                                
 POSCAR =   H Si                                   

 Startparameter for this run:
   NWRITE =      2    write-flag & timer
   PREC   = accura    normal or accurate (medium, high low for compatibility)
   ISTART =      1    job   : 0-new  1-cont  2-samecut
   ICHARG =      1    charge: 1-file 2-atom 10-const
   ISPIN  =      1    spin polarized calculation?
   LNONCOLLINEAR =      F non collinear calculations
   LSORBIT =      F    spin-orbit coupling
   INIWAV =      1    electr: 0-lowe 1-rand  2-diag
   LASPH  =      T    aspherical Exc in radial PAW
 Electronic Relaxation 1
   ENCUT  = 1200.0 eV  88.20 Ry    9.39 a.u.  41.20 41.20 31.47*2*pi/ulx,y,z
   ENINI  = 1200.0     initial cutoff
   ENAUG  =  400.0 eV  augmentation charge cutoff
   NELM   =    150;   NELMIN=  2; NELMDL=  0     # of ELM steps 
   EDIFF  = 0.1E-05   stopping-criterion for ELM
   LREAL  =      F    real-space projection
   NLSPLINE    = F    spline interpolate recip. space projectors
   LCOMPAT=      F    compatible to vasp.4.4
   GGA_COMPAT  = T    GGA compatible to vasp.4.4-vasp.4.6
   LMAXPAW     = -100 max onsite density
   LMAXMIX     =    2 max onsite mixed and CHGCAR
   VOSKOWN=      0    Vosko Wilk Nusair interpolation
   ROPT   =    0.00000   0.00000
 Ionic relaxation
   EDIFFG = -.1E-01   stopping-criterion for IOM
   NSW    =      0    number of steps for IOM
   NBLOCK =      1;   KBLOCK =      1    inner block; outer block 
   IBRION =     -1    ionic relax: 0-MD 1-quasi-New 2-CG
   NFREE  =      0    steps in history (QN), initial steepest desc. (CG)
   ISIF   =      2    stress and relaxation
   IWAVPR =     10    prediction:  0-non 1-charg 2-wave 3-comb
   ISYM   =      1    0-nonsym 1-usesym 2-fastsym
   LCORR  =      T    Harris-Foulkes like correction to forces

   POTIM  = 0.5000    time-step for ionic-motion
   TEIN   =    0.0    initial temperature
   TEBEG  =    0.0;   TEEND  =   0.0 temperature during run
   SMASS  =  -3.00    Nose mass-parameter (am)
   estimated Nose-frequenzy (Omega)   =  0.10E-29 period in steps = 0.13E+47 mass=  -0.486E-26a.u.
   SCALEE = 1.0000    scale energy and forces
   NPACO  =    256;   APACO  = 10.0  distance and # of slots for P.C.
   PSTRESS=    0.0 pullay stress

  Mass of Ions in am
   POMASS =   1.00 28.09
  Ionic Valenz
   ZVAL   =   1.00  4.00
  Atomic Wigner-Seitz radii
   RWIGS  =  -1.00 -1.00
  virtual crystal weights 
   VCA    =   1.00  1.00
   NELECT =     422.0000    total number of electrons
   NUPDOWN=      -1.0000    fix difference up-down

 DOS related values:
   EMIN   =  10.00;   EMAX   =-10.00  energy-range for DOS
   EFERMI =   0.00;   METHOD = LEGACY      
   ISMEAR =     0;   SIGMA  =   0.10  broadening in eV -4-tet -1-fermi 0-gaus
   EFERMI_NEDOS =   21; number of points for ismear=-14 and -15

 Electronic relaxation 2 (details)
   IALGO  =     38    algorithm
   LDIAG  =      F    sub-space diagonalisation (order eigenvalues)
   LSUBROT=      F    optimize rotation matrix (better conditioning)
   TURBO    =      0    0=normal 1=particle mesh
   IRESTART =      0    0=no restart 2=restart with 2 vectors
   NREBOOT  =      0    no. of reboots
   NMIN     =      0    reboot dimension
   EREF     =   0.00    reference energy to select bands
   IMIX   =      4    mixing-type and parameters
     AMIX     =   0.40;   BMIX     =  1.00
     AMIX_MAG =   1.60;   BMIX_MAG =  1.00
     AMIN     =   0.10
     WC   =   100.;   INIMIX=   1;  MIXPRE=   1;  MAXMIX= -45

 Intra band minimization:
   WEIMIN = 0.0000     energy-eigenvalue tresh-hold
   EBREAK =  0.89E-09  absolut break condition
   DEPER  =   0.30     relativ break condition  

   TIME   =   0.40     timestep for ELM

  volume/ion in A,a.u.               =      17.69       119.37
  Fermi-wavevector in a.u.,A,eV,Ry     =   0.920960  1.740362 11.540018  0.848167
  Thomas-Fermi vector in A             =   2.046323

 Write flags
   LWAVE        =      F    write WAVECAR
   LDOWNSAMPLE  =      F    k-point downsampling of WAVECAR
   LCHARG       =      F    write CHGCAR
   LVTOT        =      F    write LOCPOT, total local potential
   LVHAR        =      F    write LOCPOT, Hartree potential only
   WRT_POTENTIAL= false  ! write potential to hdf5 file
   LELF         =      F    write electronic localiz. function (ELF)
   LORBIT       =     11    0 simple, 1 ext, 2 COOP (PROOUT), +10 PAW based schemes


 Python interface
   PLUGINS active      =      F    recompile with -DPLUGINS to activate

 Dipole corrections
   LMONO      =      F    monopole corrections only (constant potential shift)
   LDIPOL     =      F    correct potential (dipole corrections)
   IDIPOL     =      0    1-x, 2-y, 3-z, 4-all directions 
   EPSILON    =  1.0000000 bulk dielectric constant
   LVACPOTAV  =      F  vacuum potentials using an averaging scheme for the charge density
   VACPOTFLAT =  0.1000000 required flatness to determine vacuum potential

Coulomb truncation method
  LTRUNCATE          =      F  Coulomb kernel truncation to be used
  IDIMENSIONALITY    =      3  Dimensionality of cutoff (0 molecules / 2 surfaces)
  ISURFACE           =     -1  Direction of surface normal
  LCOARSEN           =      F  Coarsen the charge grid before padding, preferred


 Exchange correlation treatment:
   METAGGA = SCAN    functional components
   XC_C    = 1    coefficients multiplying the functional components
   LIBXC   =     F    Libxc                    
   VOSKOWN =     0    Vosko Wilk Nusair interpolation
   LHFCALC =     F    Hartree Fock is set to
   LHFONE  =     F    Hartree Fock one center treatment
   AEXX    =    0.0000 exact exchange contribution

 Parameters of functionals:
   SCAN:
     P1 =  0.000000E+00
     P2 =  0.000000E+00
     P3 =  0.000000E+00

 Accuracy and mixing parameters for tau-dependent meta-GGA functionals:
   LMAXTAU = 6
   LMIXTAU = T

 Van der Waals corrections
   IVDW    =     0    specifies the selected vdW correction

 Linear response parameters
   LEPSILON=     F    determine dielectric tensor
   LRPA    =     F    only Hartree local field effects (RPA)
   LNABLA  =     F    use nabla operator in PAW spheres
   LVEL    =     F    velocity operator in full k-point grid
   CSHIFT  =0.1000    complex shift for real part using Kramers Kronig
   OMEGAMAX=  -1.0    maximum frequency
   DEG_THRESHOLD= 0.2000000E-02 threshold for treating states as degnerate
   RTIME   =   -0.100 relaxation time in fs
  (WPLASMAI=    0.000 imaginary part of plasma frequency in eV, 0.658/RTIME)
   DFIELD  = 0.0000000 0.0000000 0.0000000 field for delta impulse in time

  Optional k-point grid parameters
   LKPOINTS_OPT  =     F    use optional k-point grid
   KPOINTS_OPT_MODE=     1    mode for optional k-point grid

 Orbital magnetization related:
   ORBITALMAG=     F  switch on orbital magnetization
   LCHIMAG   =     F  perturbation theory with respect to B field
   DQ        =  0.001000  dq finite difference perturbation B field
   LLRAUG    =     F  two centre corrections for induced B field
   LBONE     =     F  B-component reconstruction in AE one-centre
   LVGVCALC  =     T  calculate vGv susceptibility
   LVGVAPPL  =     F  apply vGv susceptibility instead of pGv for G=0

 Random number generation:
   RANDOM_GENERATOR = DEFAULT
   PCG_SEED         = not used


--------------------------------------------------------------------------------------------------------


 Static calculation
 charge density and potential will be updated during run
 non-spin polarized calculation
 Variant of blocked Davidson
 perform Loewdin sub-space diagonalisation
    ordering is kept fixed
    before iterative eigenvector-optimisation
 modified Broyden-mixing scheme, WC =      100.0
 initial mixing is a Kerker type mixing with AMIX =  0.4000 and BMIX =      1.0000
 Hartree-type preconditioning will be used
 using additional bands           69
 reciprocal scheme for non local part
 use partial core corrections
 calculate Harris-corrections to forces   (improved forces if not selfconsistent)
 use gradient corrections 
 use of overlap-Matrix (Vanderbilt PP)
 Gauss-broadening in eV      SIGMA  =   0.10


--------------------------------------------------------------------------------------------------------


  energy-cutoff  :     1200.00
  volume of cell :     2370.36
      direct lattice vectors                 reciprocal lattice vectors
    14.584886825  0.000000000  0.000000000     0.068564125  0.000000000  0.000000000
     0.000000000 14.584886825  0.000000000     0.000000000  0.068564125  0.000000000
     0.000000000  0.000000000 11.143162065     0.000000000  0.000000000  0.089741134

  length of vectors
    14.584886825 14.584886825 11.143162065     0.068564125  0.068564125  0.089741134



 old parameters found on file WAVECAR:
  energy-cutoff  :     1200.00
  volume of cell :     2370.36
      direct lattice vectors                 reciprocal lattice vectors
    14.584886825  0.000000000  0.000000000     0.068564125  0.000000000  0.000000000
     0.000000000 14.584886825  0.000000000     0.000000000  0.068564125  0.000000000
     0.000000000  0.000000000 11.143162065     0.000000000  0.000000000  0.089741134

  length of vectors


 k-points in units of 2pi/SCALE and weight: read from INCAR                         
   0.00000000  0.00000000  0.00000000       0.083
   0.03428206  0.00000000  0.00000000       0.083
   0.00000000  0.03428206  0.00000000       0.083
   0.03428206  0.03428206  0.00000000       0.083
   0.00000000  0.00000000  0.02991371       0.167
   0.03428206  0.00000000  0.02991371       0.167
   0.00000000  0.03428206  0.02991371       0.167
   0.03428206  0.03428206  0.02991371       0.167

 k-points in reciprocal lattice and weights: read from INCAR                         
   0.00000000  0.00000000  0.00000000       0.083
   0.50000000  0.00000000  0.00000000       0.083
   0.00000000  0.50000000  0.00000000       0.083
   0.50000000  0.50000000  0.00000000       0.083
   0.00000000  0.00000000  0.33333333       0.167
   0.50000000  0.00000000  0.33333333       0.167
   0.00000000  0.50000000  0.33333333       0.167
   0.50000000  0.50000000  0.33333333       0.167

 position of ions in fractional coordinates (direct lattice) 
   0.91120351  0.40950815  0.84708541
   0.60293920  0.47667151  0.13495003
   0.92017855  0.58548277  0.21912811
   0.70233661  0.59188118  0.53921948
   0.63435117  0.35874738  0.28231753
   0.39738533  0.60983538  0.17808590
   0.76924834  0.33817609  0.50606282
   0.53825855  0.47506162  0.64293600
   0.57136405  0.29556212  0.00039827
   0.45529321  0.42454700  0.12809739
   0.52402601  0.40456193  0.82306889
   0.50579138  0.13335242  0.39993944
   0.76923463  0.23936147  0.13258535
   0.66776795  0.66397224  0.80101141
   0.84608816  0.32599293  0.28402530
   0.96372362  0.33301253  0.05233739
   0.79070206  0.50605741  0.38443576
   0.74110962  0.49440493  0.22862182
   0.65981040  0.62987736  0.75649353
   0.54548315  0.57389132  0.90352271
   0.69706403  0.50603478  0.19868508
   0.63939612  0.38239241  0.63360741
   0.74767807  0.45548245  0.86128156
   0.82862487  0.55989396  0.87620730
   0.96347679  0.47876477  0.31145109
   0.83178568  0.55768962  0.64745626
   0.52481998  0.43686592  0.42853994
   0.78540205  0.29037181  0.80800315
   0.58609574  0.47259194  0.06835528
   0.55046296  0.61812341  0.58015759
   0.82020520  0.36707518  0.27128835
   0.66048781  0.59229736  0.57953747
   0.88109700  0.36942350  0.85747923
   0.72817157  0.42527927  0.81563922
   0.81297168  0.53596645  0.42572027
   0.69831190  0.62951877  0.24647761
   0.51565638  0.61385598  0.11513339
   0.89991099  0.26200752  0.42741728
   0.92776860  0.17044424  0.70195066
   0.40686089  0.02604587  0.15365028
   0.35194514  0.63969026  0.29219265
   0.56292929  0.96076165  0.53094534
   0.33815346  0.58154582  0.95327520
   0.75224444  0.08640245  0.93019378
   0.33847366  0.26253341  0.46834193
   0.46319660  0.78865885  0.94351136
   0.06524075  0.32139982  0.99799320
   0.68666285  0.80995486  0.37668303
   0.08945424  0.63175053  0.95710714
   0.66775081  0.32656407  0.52984422
   0.42614043  0.05579776  0.60216750
   0.62441486  0.97601717  0.88036860
   0.85841599  0.82885799  0.93697821
   0.75669425  0.92087105  0.24958176
   0.68209443  0.05616362  0.46363231
   0.03134930  0.01320895  0.01990629
   0.11920696  0.56610381  0.67242493
   0.97754615  0.77071561  0.62052584
   0.13550191  0.45960247  0.94981119
   0.47073797  0.68480408  0.58438709
   0.86015751  0.60041947  0.75778849
   0.27781978  0.09861235  0.63329421
   0.43889816  0.17733082  0.16864064
   0.47170335  0.42331354  0.71723807
   0.14944237  0.35698117  0.33402727
   0.07378323  0.98215366  0.43519604
   0.06858744  0.87283502  0.11418123
   0.39812650  0.90299638  0.65227895
   0.96311340  0.20903282  0.50574513
   0.29055625  0.53967097  0.43282687
   0.66668327  0.17886597  0.60981524
   0.95410408  0.09522597  0.35620948
   0.29442532  0.39272022  0.36036001
   0.06161741  0.11025728  0.20390173
   0.41731006  0.28161823  0.66220431
   0.56813125  0.35277339  0.37855503
   0.55871328  0.19998990  0.03101705
   0.87563929  0.95975376  0.36200497
   0.10956959  0.27720613  0.48928661
   0.14128803  0.58455236  0.16390500
   0.21374455  0.16486587  0.45358669
   0.28435120  0.22886293  0.74837016
   0.49041930  0.79153168  0.73501489
   0.54031890  0.86178248  0.36707624
   0.05789198  0.91895125  0.63035519
   0.61106199  0.88723349  0.69728233
   0.29471741  0.24827344  0.10288821
   0.81033196  0.96402531  0.55208117
   0.43228652  0.74577884  0.40182400
   0.37060966  0.03785377  0.94165372
   0.01059645  0.64695257  0.75159546
   0.32593191  0.86609517  0.46946100
   0.20625049  0.71123624  0.24799424
   0.34539041  0.50279581  0.77056225
   0.18322528  0.05296997  0.32674298
   0.30468389  0.92353133  0.81071871
   0.06047589  0.48785775  0.30669033
   0.74193925  0.82404479  0.58839851
   0.78015004  0.19223118  0.76683261
   0.46861454  0.22773231  0.36298135
   0.35493522  0.38952788  0.16229953
   0.25153709  0.49217797  0.08462975
   0.70352277  0.16213976  0.10650209
   0.90544412  0.68647773  0.22044999
   0.66455024  0.04324305  0.24682312
   0.88669869  0.99307593  0.91376217
   0.97509841  0.73266252  0.39810693
   0.17855401  0.00222087  0.74387144
   0.05540016  0.22659758  0.82188969
   0.74889165  0.71261437  0.24192235
   0.21787965  0.69154462  0.68282862
   0.13324478  0.25202252  0.16162288
   0.00319854  0.87779906  0.30911513
   0.27025235  0.16192447  0.93684359
   0.58858530  0.85672931  0.02793561
   0.51516478  0.10250748  0.88746712
   0.91779937  0.01277638  0.70730731
   0.23758566  0.69585045  0.89453962
   0.17910732  0.81401386  0.55706629
   0.13236030  0.09679197  0.89535806
   0.33625424  0.60624673  0.62060930
   0.97854033  0.75022180  0.04218031
   0.19776705  0.44682692  0.75571009
   0.48911864  0.63211186  0.98750246
   0.30334003  0.95314418  0.29241790
   0.13056323  0.56098824  0.47654606
   0.52420702  0.16191624  0.69512405
   0.23732992  0.85979412  0.15782773
   0.53552421  0.93959591  0.19272626
   0.73942295  0.81459665  0.08593584
   0.15509959  0.29877709  0.68933126
   0.83169655  0.75836036  0.73038155
   0.12477094  0.71228527  0.42214678
   0.31207167  0.82231012  0.97887834

 position of ions in cartesian coordinates  (Angst):
  13.28980000  5.97263000  9.43921000
   8.79380000  6.95220000  1.50377000
  13.42070000  8.53920000  2.44178000
  10.24350000  8.63252000  6.00861000
   9.25194000  5.23229000  3.14591000
   5.79582000  8.89438000  1.98444000
  11.21940000  4.93226000  5.63914000
   7.85044000  6.92872000  7.16434000
   8.33328000  4.31074000  0.00443794
   6.64040000  6.19197000  1.42741000
   7.64286000  5.90049000  9.17159000
   7.37691000  1.94493000  4.45659000
  11.21920000  3.49106000  1.47742000
   9.73932000  9.68396000  8.92580000
  12.34010000  4.75457000  3.16494000
  14.05580000  4.85695000  0.58320400
  11.53230000  7.38079000  4.28383000
  10.80900000  7.21084000  2.54757000
   9.62326000  9.18669000  8.42973000
   7.95581000  8.37014000 10.06810000
  10.16660000  7.38046000  2.21398000
   9.32552000  5.57715000  7.06039000
  10.90480000  6.64316000  9.59740000
  12.08540000  8.16599000  9.76372000
  14.05220000  6.98273000  3.47055000
  12.13150000  8.13384000  7.21471000
   7.65444000  6.37164000  4.77529000
  11.45500000  4.23504000  9.00371000
   8.54814000  6.89270000  0.76169400
   8.02844000  9.01526000  6.46479000
  11.96260000  5.35375000  3.02301000
   9.63314000  8.63859000  6.45788000
  12.85070000  5.38800000  9.55503000
  10.62030000  6.20265000  9.08880000
  11.85710000  7.81701000  4.74387000
  10.18480000  9.18146000  2.74654000
   7.52079000  8.95302000  1.28295000
  13.12510000  3.82135000  4.76278000
  13.53140000  2.48591000  7.82195000
   5.93402000  0.37987600  1.71215000
   5.13308000  9.32981000  3.25595000
   8.21026000 14.01260000  5.91641000
   4.93193000  8.48178000 10.62250000
  10.97140000  1.26017000 10.36530000
   4.93660000  3.82902000  5.21881000
   6.75567000 11.50250000 10.51370000
   0.95152900  4.68758000 11.12080000
  10.01490000 11.81310000  4.19744000
   1.30468000  9.21401000 10.66520000
   9.73907000  4.76290000  5.90414000
   6.21521000  0.81380400  6.71005000
   9.10702000 14.23510000  9.81009000
  12.51990000 12.08880000 10.44090000
  11.03630000 13.43080000  2.78113000
   9.94827000  0.81914000  5.16633000
   0.45722600  0.19265100  0.22181900
   1.73862000  8.25656000  7.49294000
  14.25740000 11.24080000  6.91462000
   1.97628000  6.70325000 10.58390000
   6.86566000  9.98779000  6.51192000
  12.54530000  8.75705000  8.44416000
   4.05197000  1.43825000  7.05690000
   6.40128000  2.58635000  1.87919000
   6.87974000  6.17398000  7.99230000
   2.17960000  5.20653000  3.72212000
   1.07612000 14.32460000  4.84946000
   1.00034000 12.73020000  1.27234000
   5.80663000 13.17010000  7.26845000
  14.04690000  3.04872000  5.63560000
   4.23773000  7.87104000  4.82306000
   9.72350000  2.60874000  6.79527000
  13.91550000  1.38886000  3.96930000
   4.29416000  5.72778000  4.01555000
   0.89868300  1.60809000  2.27211000
   6.08642000  4.10737000  7.37905000
   8.28613000  5.14516000  4.21830000
   8.14877000  2.91683000  0.34562800
  12.77110000 13.99790000  4.03388000
   1.59806000  4.04302000  5.45220000
   2.06067000  8.52563000  1.82642000
   3.11744000  2.40455000  5.05439000
   4.14723000  3.33794000  8.33921000
   7.15271000 11.54440000  8.19039000
   7.88049000 12.56900000  4.09039000
   0.84434800 13.40280000  7.02415000
   8.91227000 12.94020000  7.76993000
   4.29842000  3.62104000  1.14650000
  11.81860000 14.06020000  6.15193000
   6.30485000 10.87710000  4.47759000
   5.40530000  0.55209300 10.49300000
   0.15454800  9.43573000  8.37515000
   4.75368000 12.63190000  5.23128000
   3.00814000 10.37330000  2.76344000
   5.03748000  7.33322000  8.58650000
   2.67232000  0.77256100  3.64095000
   4.44378000 13.46960000  9.03397000
   0.88203400  7.11535000  3.41750000
  10.82110000 12.01860000  6.55662000
  11.37840000  2.80367000  8.54494000
   6.83469000  3.32145000  4.04476000
   5.17669000  5.68122000  1.80853000
   3.66864000  7.17836000  0.94304300
  10.26080000  2.36479000  1.18677000
  13.20580000 10.01220000  2.45651000
   9.69239000  0.63069500  2.75039000
  12.93240000 14.48390000 10.18220000
  14.22170000 10.68580000  4.43617000
   2.60419000  0.03239110  8.28908000
   0.80800500  3.30490000  9.15845000
  10.92250000 10.39340000  2.69578000
   3.17775000 10.08610000  7.60887000
   1.94336000  3.67572000  1.80099000
   0.04665030 12.80260000  3.44452000
   3.94160000  2.36165000 10.43940000
   8.58445000 12.49530000  0.31129100
   7.51362000  1.49506000  9.88919000
  13.38600000  0.18634200  7.88164000
   3.46516000 10.14890000  9.96800000
   2.61226000 11.87230000  6.20748000
   1.93046000  1.41170000  9.97712000
   4.90423000  8.84204000  6.91555000
  14.27190000 10.94190000  0.47002200
   2.88441000  6.51692000  8.42100000
   7.13374000  9.21928000 11.00390000
   4.42418000 13.90150000  3.25846000
   1.90425000  8.18195000  5.31023000
   7.64550000  2.36153000  7.74588000
   3.46143000 12.54000000  1.75870000
   7.81056000 13.70390000  2.14758000
  10.78440000 11.88080000  0.95759700
   2.26211000  4.35763000  7.68133000
  12.13020000 11.06060000  8.13876000
   1.81977000 10.38860000  4.70405000
   4.55153000 11.99330000 10.90780000



--------------------------------------------------------------------------------------------------------


 k-point     1 :   0.0000 0.0000 0.0000  plane waves:  223807
 k-point     2 :   0.5000 0.0000 0.0000  plane waves:  223850
 k-point     3 :   0.0000 0.5000 0.0000  plane waves:  223850
 k-point     4 :   0.5000 0.5000 0.0000  plane waves:  223676
 k-point     5 :   0.0000 0.0000 0.3333  plane waves:  223623
 k-point     6 :   0.5000 0.0000 0.3333  plane waves:  223708
 k-point     7 :   0.0000 0.5000 0.3333  plane waves:  223708
 k-point     8 :   0.5000 0.5000 0.3333  plane waves:  223792

 maximum and minimum number of plane-waves per node :     14042    13918

 maximum number of plane-waves:    223850
 maximum index in each direction: 
   IXMAX=   41   IYMAX=   41   IZMAX=   31
   IXMIN=  -41   IYMIN=  -41   IZMIN=  -31


 parallel 3D FFT for wavefunctions:
    minimum data exchange during FFTs selected (reduces bandwidth)
 parallel 3D FFT for charge:
    minimum data exchange during FFTs selected (reduces bandwidth)


 total amount of memory used by VASP MPI-rank0   213463. kBytes
=======================================================================

   base                                    :      30000. kBytes
   nonl-proj                               :      44326. kBytes
   fftplans                                :      42992. kBytes
   grid                                    :      33148. kBytes
   one-center                              :         27. kBytes
   wavefun                                 :      62970. kBytes

     INWAV:  cpu time     12.1159: real time     12.1209
 Broyden mixing: mesh for mixing (old mesh)
   NGX = 83   NGY = 83   NGZ = 63
  (NGX  =336   NGY  =336   NGZ  =252)
  gives a total of 434007 points

 initial charge density was supplied:
 number of electron     421.9999999 magnetization 
 keeping initial charge density in first step


--------------------------------------------------------------------------------------------------------


 Maximum index for augmentation-charges        11239 (set IRDMAX)


--------------------------------------------------------------------------------------------------------


 First call to EWALD:  gamma=   0.133
 Maximum number of real-space cells   3x   3x   3
 Maximum number of reciprocal cells   3x   3x   2

    FEWALD:  cpu time      0.0254: real time      0.0257


--------------------------------------- Ionic step        1  -------------------------------------------




--------------------------------------- Iteration      1(   1)  ---------------------------------------


    POTLOK:  cpu time      0.7613: real time      0.7625
    SETDIJ:  cpu time      1.8238: real time      1.8252
    EDDIAG:  cpu time     26.1595: real time     26.1782
     EDDAV:  cpu time    132.3686: real time    132.4776
       DOS:  cpu time      0.0102: real time      0.0103
    CHARGE:  cpu time     11.4392: real time     11.4476
    MIXING:  cpu time      0.0241: real time      0.0244
    --------------------------------------------
      LOOP:  cpu time    172.5867: real time    172.7257

 eigenvalue-minimisations  :  4864
 total energy-change (2. order) :-0.1133731E+04  (-0.1191440E+01)
 number of electron     421.9999999 magnetization 
 augmentation part      -20.6343789 magnetization 

 Broyden mixing:
  rms(total) = 0.13129E+01    rms(broyden)= 0.49853E+02
  rms(prec ) = 0.14107E+01
  weight for this iteration     100.00
  WARNING: grid for Broyden might be to small

 Free energy of the ion-electron system (eV)
  ---------------------------------------------------
  alpha Z        PSCENC =       160.31587597
  Ewald energy   TEWEN  =     -8603.84167192
  -Hartree energ DENC   =     -3049.87997595
  -exchange      EXHF   =         0.00000000
  -V(xc)+E(xc)   XCENC  =      -334.21851499
  PAW double counting   =     42049.15547125   -41094.41147371
  entropy T*S    EENTRO =        -0.07078947
  eigenvalues    EBANDS =      -629.75382094
  atomic energy  EATOM  =     10368.97399388
  Solvation  Ediel_sol  =         0.00000000
  ---------------------------------------------------
  free energy    TOTEN  =     -1133.73090588 eV

  energy without entropy =    -1133.66011641  energy(sigma->0) =    -1133.69551115


--------------------------------------------------------------------------------------------------------




--------------------------------------- Iteration      1(   2)  ---------------------------------------


    POTLOK:  cpu time      0.7465: real time      0.7601
    SETDIJ:  cpu time      1.8119: real time      1.8125
    EDDIAG:  cpu time     26.2476: real time     26.2699
     EDDAV:  cpu time    127.6571: real time    127.7704
       DOS:  cpu time      0.0067: real time      0.0067
    CHARGE:  cpu time     11.6774: real time     11.6878
    MIXING:  cpu time      0.0178: real time      0.0182
    --------------------------------------------
      LOOP:  cpu time    168.1649: real time    168.3255

 eigenvalue-minimisations  :  4568
 total energy-change (2. order) : 0.7531197E+02  (-0.1220194E+01)
 number of electron     421.9999999 magnetization 
 augmentation part      -20.5519463 magnetization 

 Broyden mixing:
  rms(total) = 0.87231E+00    rms(broyden)= 0.28631E+02
  rms(prec ) = 0.92138E+00
  weight for this iteration     100.00
  WARNING: grid for Broyden might be to small

 eigenvalues of (default mixing * dielectric matrix)
  average eigenvalue GAMMA=   0.6352
  0.6352

 Free energy of the ion-electron system (eV)
  ---------------------------------------------------
  alpha Z        PSCENC =       160.31587597
  Ewald energy   TEWEN  =     -8603.84167192
  -Hartree energ DENC   =     -3038.15015519
  -exchange      EXHF   =         0.00000000
  -V(xc)+E(xc)   XCENC  =      -326.32610703
  PAW double counting   =     50196.71118503   -49241.65854888
  entropy T*S    EENTRO =        -0.06832101
  eigenvalues    EBANDS =      -574.37518462
  atomic energy  EATOM  =     10368.97399388
  Solvation  Ediel_sol  =         0.00000000
  ---------------------------------------------------
  free energy    TOTEN  =     -1058.41893377 eV

  energy without entropy =    -1058.35061276  energy(sigma->0) =    -1058.38477326


--------------------------------------------------------------------------------------------------------




--------------------------------------- Iteration      1(   3)  ---------------------------------------


    POTLOK:  cpu time      0.7508: real time      0.7646
    SETDIJ:  cpu time      1.8104: real time      1.8117
    EDDIAG:  cpu time     26.2186: real time     26.2421
     EDDAV:  cpu time    126.4804: real time    126.5935
       DOS:  cpu time      0.0055: real time      0.0055
    CHARGE:  cpu time     11.9926: real time     12.0033
    MIXING:  cpu time      0.0151: real time      0.0151
    --------------------------------------------
      LOOP:  cpu time    167.2732: real time    167.4358

 eigenvalue-minimisations  :  4480
 total energy-change (2. order) :-0.3143933E+01  (-0.8526120E+00)
 number of electron     421.9999999 magnetization 
 augmentation part      -20.4985311 magnetization 

 Broyden mixing:
  rms(total) = 0.49298E+00    rms(broyden)= 0.23788E+02
  rms(prec ) = 0.55069E+00
  weight for this iteration     100.00
  WARNING: grid for Broyden might be to small

 eigenvalues of (default mixing * dielectric matrix)
  average eigenvalue GAMMA=   0.6985
  0.7735  0.6234

 Free energy of the ion-electron system (eV)
  ---------------------------------------------------
  alpha Z        PSCENC =       160.31587597
  Ewald energy   TEWEN  =     -8603.84167192
  -Hartree energ DENC   =     -3043.51996679
  -exchange      EXHF   =         0.00000000
  -V(xc)+E(xc)   XCENC  =      -330.70055927
  PAW double counting   =     57123.82225303   -56168.86460965
  entropy T*S    EENTRO =        -0.06778964
  eigenvalues    EBANDS =      -567.68039219
  atomic energy  EATOM  =     10368.97399388
  Solvation  Ediel_sol  =         0.00000000
  ---------------------------------------------------
  free energy    TOTEN  =     -1061.56286658 eV

  energy without entropy =    -1061.49507694  energy(sigma->0) =    -1061.52897176


--------------------------------------------------------------------------------------------------------




--------------------------------------- Iteration      1(   4)  ---------------------------------------


    POTLOK:  cpu time      0.7434: real time      0.7615
    SETDIJ:  cpu time      1.8133: real time      1.8143
    EDDIAG:  cpu time     26.1717: real time     26.1946
     EDDAV:  cpu time    131.5808: real time    131.6935
       DOS:  cpu time      0.0040: real time      0.0040
    CHARGE:  cpu time     11.7014: real time     11.7105
    MIXING:  cpu time      0.0155: real time      0.0155
    --------------------------------------------
      LOOP:  cpu time    172.0301: real time    172.1939

 eigenvalue-minimisations  :  4816
 total energy-change (2. order) :-0.2962493E+00  (-0.8383251E-01)
 number of electron     421.9999999 magnetization 
 augmentation part      -20.4855334 magnetization 

 Broyden mixing:
  rms(total) = 0.34166E-01    rms(broyden)= 0.29322E+01
  rms(prec ) = 0.49297E-01
  weight for this iteration     100.00
  WARNING: grid for Broyden might be to small

 eigenvalues of (default mixing * dielectric matrix)
  average eigenvalue GAMMA=   1.0263
  1.7525  0.7044  0.6219

 Free energy of the ion-electron system (eV)
  ---------------------------------------------------
  alpha Z        PSCENC =       160.31587597
  Ewald energy   TEWEN  =     -8603.84167192
  -Hartree energ DENC   =     -3051.84680128
  -exchange      EXHF   =         0.00000000
  -V(xc)+E(xc)   XCENC  =      -330.52174084
  PAW double counting   =     66621.05789772   -65666.16742430
  entropy T*S    EENTRO =        -0.07068209
  eigenvalues    EBANDS =      -559.75856304
  atomic energy  EATOM  =     10368.97399388
  Solvation  Ediel_sol  =         0.00000000
  ---------------------------------------------------
  free energy    TOTEN  =     -1061.85911590 eV

  energy without entropy =    -1061.78843381  energy(sigma->0) =    -1061.82377485


--------------------------------------------------------------------------------------------------------




--------------------------------------- Iteration      1(   5)  ---------------------------------------


    POTLOK:  cpu time      0.7443: real time      0.7632
    SETDIJ:  cpu time      1.8128: real time      1.8136
    EDDIAG:  cpu time     26.2108: real time     26.2334
     EDDAV:  cpu time    144.0246: real time    144.1518
       DOS:  cpu time      0.0053: real time      0.0053
    CHARGE:  cpu time     11.6728: real time     11.6832
    MIXING:  cpu time      0.0159: real time      0.0159
    --------------------------------------------
      LOOP:  cpu time    184.4864: real time    184.6665

 eigenvalue-minimisations  :  5576
 total energy-change (2. order) :-0.3427953E-01  (-0.5258499E-02)
 number of electron     421.9999999 magnetization 
 augmentation part      -20.4878529 magnetization 

 Broyden mixing:
  rms(total) = 0.24204E-01    rms(broyden)= 0.60249E+00
  rms(prec ) = 0.28105E-01
  weight for this iteration     100.00
  WARNING: grid for Broyden might be to small

 eigenvalues of (default mixing * dielectric matrix)
  average eigenvalue GAMMA=   1.1798
  2.5401  0.9034  0.6380  0.6380

 Free energy of the ion-electron system (eV)
  ---------------------------------------------------
  alpha Z        PSCENC =       160.31587597
  Ewald energy   TEWEN  =     -8603.84167192
  -Hartree energ DENC   =     -3052.10714003
  -exchange      EXHF   =         0.00000000
  -V(xc)+E(xc)   XCENC  =      -331.68686430
  PAW double counting   =     66294.71498343   -65339.79169443
  entropy T*S    EENTRO =        -0.06922363
  eigenvalues    EBANDS =      -558.40165440
  atomic energy  EATOM  =     10368.97399388
  Solvation  Ediel_sol  =         0.00000000
  ---------------------------------------------------
  free energy    TOTEN  =     -1061.89339542 eV

  energy without entropy =    -1061.82417180  energy(sigma->0) =    -1061.85878361


--------------------------------------------------------------------------------------------------------




--------------------------------------- Iteration      1(   6)  ---------------------------------------


    POTLOK:  cpu time      0.7456: real time      0.7622
    SETDIJ:  cpu time      1.8125: real time      1.8133
    EDDIAG:  cpu time     26.2097: real time     26.2330
     EDDAV:  cpu time    135.9781: real time    136.0969
       DOS:  cpu time      0.0055: real time      0.0055
    CHARGE:  cpu time     11.9020: real time     11.9122
    MIXING:  cpu time      0.0155: real time      0.0156
    --------------------------------------------
      LOOP:  cpu time    176.6690: real time    176.8386

 eigenvalue-minimisations  :  5072
 total energy-change (2. order) :-0.5653968E-02  (-0.9510542E-03)
 number of electron     421.9999999 magnetization 
 augmentation part      -20.4866755 magnetization 

 Broyden mixing:
  rms(total) = 0.13871E-01    rms(broyden)= 0.45250E+00
  rms(prec ) = 0.16814E-01
  weight for this iteration     100.00
  WARNING: grid for Broyden might be to small

 eigenvalues of (default mixing * dielectric matrix)
  average eigenvalue GAMMA=   1.1399
  2.5824  1.0906  0.7652  0.6307  0.6307

 Free energy of the ion-electron system (eV)
  ---------------------------------------------------
  alpha Z        PSCENC =       160.31587597
  Ewald energy   TEWEN  =     -8603.84167192
  -Hartree energ DENC   =     -3052.75435172
  -exchange      EXHF   =         0.00000000
  -V(xc)+E(xc)   XCENC  =      -331.84750066
  PAW double counting   =     66213.37388076   -65258.42940858
  entropy T*S    EENTRO =        -0.06977689
  eigenvalues    EBANDS =      -557.62009024
  atomic energy  EATOM  =     10368.97399388
  Solvation  Ediel_sol  =         0.00000000
  ---------------------------------------------------
  free energy    TOTEN  =     -1061.89904939 eV

  energy without entropy =    -1061.82927250  energy(sigma->0) =    -1061.86416095


--------------------------------------------------------------------------------------------------------




--------------------------------------- Iteration      1(   7)  ---------------------------------------


    POTLOK:  cpu time      0.7462: real time      0.7587
    SETDIJ:  cpu time      1.8116: real time      1.8127
    EDDIAG:  cpu time     26.1238: real time     26.1455
     EDDAV:  cpu time    135.1662: real time    135.2891
       DOS:  cpu time      0.0038: real time      0.0038
    CHARGE:  cpu time     11.6636: real time     11.6728
    MIXING:  cpu time      0.0159: real time      0.0159
    --------------------------------------------
      LOOP:  cpu time    175.5313: real time    175.6985

 eigenvalue-minimisations  :  5040
 total energy-change (2. order) :-0.1098778E-02  (-0.3077823E-03)
 number of electron     421.9999999 magnetization 
 augmentation part      -20.4850257 magnetization 

 Broyden mixing:
  rms(total) = 0.45477E-02    rms(broyden)= 0.62345E-01
  rms(prec ) = 0.55688E-02
  weight for this iteration     100.00
  WARNING: grid for Broyden might be to small

 eigenvalues of (default mixing * dielectric matrix)
  average eigenvalue GAMMA=   1.1587
  2.6106  1.4873  0.9221  0.6851  0.6306  0.6169

 Free energy of the ion-electron system (eV)
  ---------------------------------------------------
  alpha Z        PSCENC =       160.31587597
  Ewald energy   TEWEN  =     -8603.84167192
  -Hartree energ DENC   =     -3053.42029428
  -exchange      EXHF   =         0.00000000
  -V(xc)+E(xc)   XCENC  =      -331.78143768
  PAW double counting   =     66217.39251316   -65262.43066864
  entropy T*S    EENTRO =        -0.06931190
  eigenvalues    EBANDS =      -557.03914675
  atomic energy  EATOM  =     10368.97399388
  Solvation  Ediel_sol  =         0.00000000
  ---------------------------------------------------
  free energy    TOTEN  =     -1061.90014817 eV

  energy without entropy =    -1061.83083627  energy(sigma->0) =    -1061.86549222


--------------------------------------------------------------------------------------------------------




--------------------------------------- Iteration      1(   8)  ---------------------------------------


    POTLOK:  cpu time      0.7444: real time      0.7618
    SETDIJ:  cpu time      1.8116: real time      1.8126
    EDDIAG:  cpu time     26.0843: real time     26.1060
     EDDAV:  cpu time    141.0986: real time    141.2154
       DOS:  cpu time      0.0050: real time      0.0051
    CHARGE:  cpu time     11.6889: real time     11.6975
    MIXING:  cpu time      0.0166: real time      0.0166
    --------------------------------------------
      LOOP:  cpu time    181.4494: real time    181.6150

 eigenvalue-minimisations  :  5424
 total energy-change (2. order) :-0.1585645E-03  (-0.4021923E-04)
 number of electron     421.9999999 magnetization 
 augmentation part      -20.4851140 magnetization 

 Broyden mixing:
  rms(total) = 0.19630E-02    rms(broyden)= 0.94972E-01
  rms(prec ) = 0.25632E-02
  weight for this iteration     100.00
  WARNING: grid for Broyden might be to small

 eigenvalues of (default mixing * dielectric matrix)
  average eigenvalue GAMMA=   1.2606
  2.7606  2.2794  1.0622  0.8437  0.6566  0.6322  0.5899

 Free energy of the ion-electron system (eV)
  ---------------------------------------------------
  alpha Z        PSCENC =       160.31587597
  Ewald energy   TEWEN  =     -8603.84167192
  -Hartree energ DENC   =     -3053.57797655
  -exchange      EXHF   =         0.00000000
  -V(xc)+E(xc)   XCENC  =      -331.80321167
  PAW double counting   =     66251.51792733   -65296.55094140
  entropy T*S    EENTRO =        -0.06959555
  eigenvalues    EBANDS =      -556.86470683
  atomic energy  EATOM  =     10368.97399388
  Solvation  Ediel_sol  =         0.00000000
  ---------------------------------------------------
  free energy    TOTEN  =     -1061.90030674 eV

  energy without entropy =    -1061.83071118  energy(sigma->0) =    -1061.86550896


--------------------------------------------------------------------------------------------------------




--------------------------------------- Iteration      1(   9)  ---------------------------------------


    POTLOK:  cpu time      0.7427: real time      0.7593
    SETDIJ:  cpu time      1.8126: real time      1.8133
    EDDIAG:  cpu time     26.1043: real time     26.1253
     EDDAV:  cpu time    135.0659: real time    135.1788
       DOS:  cpu time      0.0063: real time      0.0063
    CHARGE:  cpu time     11.7412: real time     11.7500
    MIXING:  cpu time      0.0173: real time      0.0174
    --------------------------------------------
      LOOP:  cpu time    175.4906: real time    175.6506

 eigenvalue-minimisations  :  5048
 total energy-change (2. order) :-0.5169154E-04  (-0.8878391E-05)
 number of electron     421.9999999 magnetization 
 augmentation part      -20.4851476 magnetization 

 Broyden mixing:
  rms(total) = 0.10737E-02    rms(broyden)= 0.24309E-01
  rms(prec ) = 0.12258E-02
  weight for this iteration     100.00
  WARNING: grid for Broyden might be to small

 eigenvalues of (default mixing * dielectric matrix)
  average eigenvalue GAMMA=   1.3076
  3.1710  2.5527  1.1856  0.9588  0.7379  0.6536  0.6251  0.5764

 Free energy of the ion-electron system (eV)
  ---------------------------------------------------
  alpha Z        PSCENC =       160.31587597
  Ewald energy   TEWEN  =     -8603.84167192
  -Hartree energ DENC   =     -3053.61612504
  -exchange      EXHF   =         0.00000000
  -V(xc)+E(xc)   XCENC  =      -331.81714375
  PAW double counting   =     66248.05588374   -65293.08661419
  entropy T*S    EENTRO =        -0.06952534
  eigenvalues    EBANDS =      -556.81503177
  atomic energy  EATOM  =     10368.97399388
  Solvation  Ediel_sol  =         0.00000000
  ---------------------------------------------------
  free energy    TOTEN  =     -1061.90035843 eV

  energy without entropy =    -1061.83083308  energy(sigma->0) =    -1061.86559576


--------------------------------------------------------------------------------------------------------




--------------------------------------- Iteration      1(  10)  ---------------------------------------


    POTLOK:  cpu time      0.7416: real time      0.7596
    SETDIJ:  cpu time      1.8102: real time      1.8116
    EDDIAG:  cpu time     26.0300: real time     26.0504
     EDDAV:  cpu time    133.4101: real time    133.5222
       DOS:  cpu time      0.0038: real time      0.0038
    CHARGE:  cpu time     11.7115: real time     11.7217
    MIXING:  cpu time      0.0165: real time      0.0165
    --------------------------------------------
      LOOP:  cpu time    173.7235: real time    173.8856

 eigenvalue-minimisations  :  4952
 total energy-change (2. order) :-0.2053535E-04  (-0.2955391E-05)
 number of electron     421.9999999 magnetization 
 augmentation part      -20.4851715 magnetization 

 Broyden mixing:
  rms(total) = 0.43790E-03    rms(broyden)= 0.12705E-01
  rms(prec ) = 0.51092E-03
  weight for this iteration     100.00
  WARNING: grid for Broyden might be to small

 eigenvalues of (default mixing * dielectric matrix)
  average eigenvalue GAMMA=   1.3293
  3.5459  2.5791  1.4183  0.9862  0.9290  0.6832  0.5630  0.6394  0.6199

 Free energy of the ion-electron system (eV)
  ---------------------------------------------------
  alpha Z        PSCENC =       160.31587597
  Ewald energy   TEWEN  =     -8603.84167192
  -Hartree energ DENC   =     -3053.63082900
  -exchange      EXHF   =         0.00000000
  -V(xc)+E(xc)   XCENC  =      -331.82300113
  PAW double counting   =     66238.08715278   -65283.11609603
  entropy T*S    EENTRO =        -0.06954137
  eigenvalues    EBANDS =      -556.79626215
  atomic energy  EATOM  =     10368.97399388
  Solvation  Ediel_sol  =         0.00000000
  ---------------------------------------------------
  free energy    TOTEN  =     -1061.90037896 eV

  energy without entropy =    -1061.83083759  energy(sigma->0) =    -1061.86560828


--------------------------------------------------------------------------------------------------------




--------------------------------------- Iteration      1(  11)  ---------------------------------------


    POTLOK:  cpu time      0.7434: real time      0.7611
    SETDIJ:  cpu time      1.8116: real time      1.8127
    EDDIAG:  cpu time     26.0827: real time     26.1052
     EDDAV:  cpu time    137.8316: real time    137.9500
       DOS:  cpu time      0.0044: real time      0.0044
    CHARGE:  cpu time     11.6965: real time     11.7063
    MIXING:  cpu time      0.0172: real time      0.0172
    --------------------------------------------
      LOOP:  cpu time    178.1874: real time    178.3570

 eigenvalue-minimisations  :  5216
 total energy-change (2. order) :-0.2771681E-05  (-0.6534313E-06)
 number of electron     421.9999999 magnetization 
 augmentation part      -20.4852455 magnetization 

 Broyden mixing:
  rms(total) = 0.17666E-03    rms(broyden)= 0.11575E-01
  rms(prec ) = 0.23439E-03
  weight for this iteration     100.00
  WARNING: grid for Broyden might be to small

 eigenvalues of (default mixing * dielectric matrix)
  average eigenvalue GAMMA=   1.3364
  3.7238  2.5953  1.6697  1.0474  1.0474  0.7976  0.5537  0.6774  0.6275  0.6240

 Free energy of the ion-electron system (eV)
  ---------------------------------------------------
  alpha Z        PSCENC =       160.31587597
[...]
   -.143E+01 0.815E+01 -.218E+02   0.617E-01 -.844E+01 0.195E+02   0.203E+00 0.658E+00 0.158E+01   0.298E-04 -.291E-04 0.937E-05
 -----------------------------------------------------------------------------------------------
   0.883E+01 -.547E+01 -.349E-02   0.394E-12 0.870E-13 0.568E-13   -.882E+01 0.547E+01 -.520E-02   0.307E-03 -.170E-03 0.502E-03


 POSITION                                       TOTAL-FORCE (eV/Angst)
 -----------------------------------------------------------------------------------
     13.28980      5.97263      9.43921         0.163502      0.155074     -0.041005
      8.79380      6.95220      1.50377        -0.544388     -0.257394     -1.439600
     13.42070      8.53920      2.44178        -0.314749      0.061048     -0.300931
     10.24350      8.63252      6.00861        -0.244238     -0.050882      0.261933
      9.25194      5.23229      3.14591         0.044501      0.402508     -0.872994
      5.79582      8.89438      1.98444        -0.279787     -0.139100      0.560626
     11.21940      4.93226      5.63914        -0.505719      0.279508     -0.065951
      7.85044      6.92872      7.16434        -0.411513      0.027514     -0.200864
      8.33328      4.31074      0.00444        -0.231921      0.769969     -0.431857
      6.64040      6.19197      1.42741        -1.408112     -0.693492      0.470853
      7.64286      5.90049      9.17159         0.586077     -0.342706      0.986998
      7.37691      1.94493      4.45659         0.197098      0.810132      0.282624
     11.21920      3.49106      1.47742        -0.380722     -0.339954      0.132770
      9.73932      9.68396      8.92580         0.120787      0.831747      0.877919
     12.34010      4.75457      3.16494         0.417472     -0.606890      0.143048
     14.05580      4.85695      0.58320         1.288789     -0.092090     -0.533611
     11.53230      7.38079      4.28383        -0.501398     -0.725985     -0.685256
     10.80900      7.21084      2.54757         0.009869     -0.188852     -0.120768
      9.62326      9.18669      8.42973        -0.303547     -0.863990     -0.798961
      7.95581      8.37014     10.06810        -0.017171      0.451291      0.271685
     10.16660      7.38046      2.21398         0.383656     -0.218609      0.077285
      9.32552      5.57715      7.06039         0.296655      0.141269      0.134388
     10.90480      6.64316      9.59740        -0.026116      0.204821      0.285602
     12.08540      8.16599      9.76372         0.122908      0.274256     -0.654722
     14.05220      6.98273      3.47055        -1.048401     -0.257671     -0.035272
     12.13150      8.13384      7.21471        -0.297254     -0.750108     -0.408532
      7.65444      6.37164      4.77529        -0.160623      0.148294     -0.626407
     11.45500      4.23504      9.00371        -0.500827     -0.346013      0.013297
      8.54814      6.89270      0.76169         0.438288      0.000325      1.178063
      8.02844      9.01526      6.46479        -0.603939      0.396889     -0.058923
     11.96260      5.35375      3.02301        -0.416252      0.663943     -0.210957
      9.63314      8.63859      6.45788         0.522085     -0.059196     -0.422591
     12.85070      5.38800      9.55503         0.025716     -0.030389     -0.038898
     10.62030      6.20265      9.08880        -0.355489     -0.304362     -0.275888
     11.85710      7.81701      4.74387         0.625436      0.746640      0.811798
     10.18480      9.18146      2.74654        -0.503401     -0.968513     -0.258719
      7.52079      8.95302      1.28295         0.227776      0.206675     -0.454220
     13.12510      3.82135      4.76278        -0.239316      0.710286      0.670953
     13.53140      2.48591      7.82195         0.640346      0.160851      0.148211
      5.93402      0.37988      1.71215        -0.414587     -1.059197      0.022766
      5.13308      9.32981      3.25595        -1.044709      0.579585     -0.313138
      8.21026     14.01260      5.91641        -1.173135      1.420307     -0.970489
      4.93193      8.48178     10.62250         0.124860     -0.464811     -0.353288
     10.97140      1.26017     10.36530         0.031180     -0.886456     -0.497168
      4.93660      3.82902      5.21881         0.979869      0.526856      0.140950
      6.75567     11.50250     10.51370         0.763106     -1.425779     -0.251836
      0.95153      4.68758     11.12080        -2.248502      0.251471      0.272953
     10.01490     11.81310      4.19744         1.073355      0.267636      1.087075
      1.30468      9.21401     10.66520        -0.220502      0.327674      0.255671
      9.73907      4.76290      5.90414         1.161244     -0.733676      0.872909
      6.21521      0.81380      6.71005         1.903450     -1.037705     -0.337315
      9.10702     14.23510      9.81009         0.184075      0.771065      0.198917
     12.51990     12.08880     10.44090        -0.415798      0.035631     -0.579570
     11.03630     13.43080      2.78113        -0.408921     -0.583179     -0.666850
      9.94827      0.81914      5.16633         0.205155     -0.015081      0.662619
      0.45723      0.19265      0.22182         0.027903      0.784020      0.757581
      1.73862      8.25656      7.49294         0.757958     -0.839000      0.023909
     14.25740     11.24080      6.91462        -0.819600      0.033364      0.312133
      1.97628      6.70325     10.58390         0.000034      0.360517     -0.503871
      6.86566      9.98779      6.51192         0.473839     -0.882991      0.432674
     12.54530      8.75705      8.44416         0.124575      1.083264      1.092917
      4.05197      1.43825      7.05690        -1.425257     -0.112057     -1.326981
      6.40128      2.58635      1.87919        -0.833261      0.969909      0.354764
      6.87974      6.17398      7.99230        -0.044380     -0.040763     -0.335921
      2.17960      5.20653      3.72212        -1.877106      0.428572     -2.731651
      1.07612     14.32460      4.84946        -1.139822     -0.046636      0.256402
      1.00034     12.73020      1.27234         0.645160      0.382278      0.201504
      5.80663     13.17010      7.26845        -0.227435      0.346019      0.007128
     14.04690      3.04872      5.63560        -0.128165      0.233419     -1.305697
      4.23773      7.87104      4.82306        -0.080136      0.284684      0.883328
      9.72350      2.60874      6.79527         0.467336     -0.060907     -0.377159
     13.91550      1.38886      3.96930         0.966091     -0.216790      1.036780
      4.29416      5.72778      4.01555         2.113658     -0.088612      0.143092
      0.89868      1.60809      2.27211         0.326890     -0.413835     -0.949367
      6.08642      4.10737      7.37905        -0.057614     -0.385853     -0.622423
      8.28613      5.14516      4.21830        -0.257722     -0.506152      0.494467
      8.14877      2.91683      0.34563         0.168137      0.345125      1.271929
     12.77110     13.99790      4.03388         0.871718      0.189297     -0.195196
      1.59806      4.04302      5.45220        -1.175868     -1.379006      2.002428
      2.06067      8.52563      1.82642        -0.827317     -0.055499     -0.083955
      3.11744      2.40455      5.05439         1.155921      0.011632      1.655216
      4.14723      3.33794      8.33921         0.966932     -0.386020      0.542705
      7.15271     11.54440      8.19039        -0.000006      0.142014     -0.105965
      7.88049     12.56900      4.09039        -0.494752     -0.982178      0.539113
      0.84435     13.40280      7.02415         0.097705      0.789258      0.158066
      8.91227     12.94020      7.76993         1.299889     -0.127791      0.258769
      4.29842      3.62104      1.14650         0.463223     -0.290332      0.720937
     11.81860     14.06020      6.15193         0.008402      0.515592      0.037285
      6.30485     10.87710      4.47759        -0.217748      1.435167      0.495056
      5.40530      0.55209     10.49300         0.353929      0.157646     -0.139866
      0.15455      9.43573      8.37515        -0.596702      0.271519      0.841182
      4.75368     12.63190      5.23128        -0.226855     -1.112802      0.339520
      3.00814     10.37330      2.76344         1.432852      0.811138     -0.118744
      5.03748      7.33322      8.58650        -0.222804     -0.017310      0.530072
      2.67232      0.77256      3.64095         0.055104     -0.624150     -0.963827
      4.44378     13.46960      9.03397        -0.457108      0.256376      1.938260
      0.88203      7.11535      3.41750         2.031072      0.705419      0.449055
     10.82110     12.01860      6.55662        -1.403685      0.766176     -0.113549
     11.37840      2.80367      8.54494        -0.732002      0.026810      0.060205
      6.83469      3.32145      4.04476         0.160198     -0.892408     -0.459606
      5.17669      5.68122      1.80853         0.173547      0.423803     -0.258579
      3.66864      7.17836      0.94304         0.451590      0.254739     -0.620626
     10.26080      2.36479      1.18677        -0.085658     -0.798863     -0.025220
     13.20580     10.01220      2.45651         0.206659     -0.320808      0.139411
      9.69239      0.63070      2.75039        -0.423946      0.653943      0.184353
     12.93240     14.48390     10.18220         0.069737     -0.596034      0.271787
     14.22170     10.68580      4.43617        -0.272294      1.136490      0.372732
      2.60419      0.03239      8.28908        -0.371654     -0.676680     -0.512050
      0.80801      3.30490      9.15845        -0.541408     -0.237544      0.194594
     10.92250     10.39340      2.69578         0.349433     -0.085097     -0.327547
      3.17775     10.08610      7.60887        -0.061543      0.814859      0.851286
      1.94336      3.67572      1.80099         1.029482      0.242191      0.894581
      0.04665     12.80260      3.44452         0.276968     -0.399058      0.452694
      3.94160      2.36165     10.43940         0.675519      0.197155     -0.386809
      8.58445     12.49530      0.31129         0.914796      1.552813     -0.150750
      7.51362      1.49506      9.88919        -0.101872     -1.445743     -0.991930
     13.38600      0.18634      7.88164         0.503542     -0.798461     -0.578749
      3.46516     10.14890      9.96800        -0.591412     -0.187208      0.098906
      2.61226     11.87230      6.20748         0.949575      0.386495     -0.075594
      1.93046      1.41170      9.97712        -1.008447     -0.168280      0.023985
      4.90423      8.84204      6.91555         0.979415     -0.297081     -1.067030
     14.27190     10.94190      0.47002         0.287284     -0.579371      0.186193
      2.88441      6.51692      8.42100        -0.672584     -0.730040      0.518953
      7.13374      9.21928     11.00390        -0.558817     -0.263015      0.014213
      4.42418     13.90150      3.25846         0.337862      1.308006      0.120555
      1.90425      8.18195      5.31023         0.368067     -0.354501     -2.259769
      7.64550      2.36153      7.74588        -1.029871     -0.099258      0.161927
      3.46143     12.54000      1.75870        -1.814890     -1.901376     -0.773905
      7.81056     13.70390      2.14758         0.795445      1.398877     -0.472124
     10.78440     11.88080      0.95760        -0.202629      0.344697     -0.551086
      2.26211      4.35763      7.68133        -0.335977      1.153481     -0.181898
     12.13020     11.06060      8.13876         1.319044     -0.185743      0.537431
      1.81977     10.38860      4.70405         0.486660     -0.170573     -0.495532
      4.55153     11.99330     10.90780        -1.141020      0.377879     -0.712436
 -----------------------------------------------------------------------------------
    total drift:                                0.009395     -0.001687     -0.008188


--------------------------------------------------------------------------------------------------------



  FREE ENERGIE OF THE ION-ELECTRON SYSTEM (eV)
  ---------------------------------------------------
  free  energy   TOTEN  =     -1061.90038140 eV

  energy  without entropy=    -1061.83084472  energy(sigma->0) =    -1061.86561306



--------------------------------------------------------------------------------------------------------


    POTLOK:  cpu time      2.5420: real time      2.5433


--------------------------------------------------------------------------------------------------------


     LOOP+:  cpu time   2339.0703: real time   2341.2089
    4ORBIT:  cpu time      0.0000: real time      0.0000



 total charge

# of ion       s       p       d       tot
------------------------------------------
    1        0.620   0.033   0.000   0.653
    2        0.590   0.028   0.000   0.618
    3        0.569   0.017   0.000   0.586
    4        0.606   0.030   0.000   0.637
    5        0.585   0.018   0.000   0.602
    6        0.557   0.019   0.000   0.576
    7        0.557   0.014   0.000   0.571
    8        0.571   0.016   0.000   0.588
    9        0.585   0.017   0.000   0.602
   10        0.515   0.012   0.000   0.527
   11        0.599   0.018   0.000   0.617
   12        0.545   0.016   0.000   0.560
   13        0.550   0.015   0.000   0.565
   14        0.638   0.038   0.000   0.676
   15        0.627   0.036   0.000   0.663
   16        0.522   0.011   0.000   0.533
   17        0.636   0.038   0.000   0.674
   18        0.621   0.033   0.000   0.654
   19        0.636   0.039   0.000   0.674
   20        0.560   0.015   0.000   0.575
   21        0.616   0.035   0.000   0.651
   22        0.581   0.017   0.000   0.598
   23        0.625   0.035   0.000   0.660
   24        0.557   0.014   0.000   0.571
   25        0.593   0.020   0.000   0.613
   26        0.588   0.018   0.000   0.606
   27        0.562   0.016   0.000   0.577
   28        0.562   0.015   0.000   0.577
   29        0.586   0.027   0.000   0.614
   30        0.561   0.015   0.000   0.576
   31        0.631   0.036   0.000   0.666
   32        0.604   0.032   0.000   0.636
   33        0.612   0.034   0.000   0.646
   34        0.625   0.035   0.000   0.660
   35        0.637   0.038   0.000   0.675
   36        0.605   0.020   0.000   0.625
   37        0.567   0.016   0.000   0.583
   38        0.571   0.017   0.000   0.588
   39        0.745   0.975   0.000   1.719
   40        0.749   0.957   0.000   1.706
   41        0.744   0.982   0.000   1.727
   42        0.772   0.914   0.000   1.686
   43        0.755   0.976   0.000   1.731
   44        0.748   0.897   0.000   1.644
   45        0.752   0.961   0.000   1.713
   46        0.748   0.971   0.000   1.719
   47        0.743   0.939   0.000   1.681
   48        0.757   0.956   0.000   1.712
   49        0.744   0.828   0.000   1.572
   50        0.740   1.039   0.000   1.778
   51        0.759   0.929   0.000   1.688
   52        0.750   0.874   0.000   1.624
   53        0.749   0.873   0.000   1.622
   54        0.765   1.000   0.000   1.765
   55        0.749   0.892   0.000   1.641
   56        0.748   0.895   0.000   1.643
   57        0.768   1.048   0.000   1.816
   58        0.765   0.849   0.000   1.614
   59        0.765   0.918   0.000   1.683
   60        0.742   1.002   0.000   1.744
   61        0.735   1.017   0.000   1.753
   62        0.762   0.949   0.000   1.711
   63        0.755   0.966   0.000   1.721
   64        0.741   1.054   0.000   1.795
   65        0.758   1.016   0.000   1.774
   66        0.768   0.938   0.000   1.707
   67        0.750   0.902   0.000   1.652
   68        0.763   0.974   0.000   1.737
   69        0.738   0.980   0.000   1.718
   70        0.749   0.955   0.000   1.704
   71        0.744   0.950   0.000   1.694
   72        0.768   0.936   0.000   1.704
   73        0.755   0.996   0.000   1.750
   74        0.753   0.903   0.000   1.655
   75        0.750   0.951   0.000   1.701
   76        0.732   1.055   0.000   1.787
   77        0.744   1.028   0.000   1.772
   78        0.760   0.982   0.000   1.742
   79        0.753   1.018   0.000   1.771
   80        0.767   0.921   0.000   1.687
   81        0.760   0.997   0.000   1.756
   82        0.762   0.998   0.000   1.760
   83        0.750   0.992   0.000   1.742
   84        0.753   0.983   0.000   1.736
   85        0.730   0.875   0.000   1.605
   86        0.755   0.952   0.000   1.707
   87        0.742   0.945   0.000   1.687
   88        0.758   0.911   0.000   1.669
   89        0.750   0.964   0.000   1.714
   90        0.758   0.920   0.000   1.678
   91        0.766   0.958   0.000   1.724
   92        0.754   0.897   0.000   1.651
   93        0.757   0.962   0.000   1.719
   94        0.752   1.020   0.000   1.772
   95        0.763   0.989   0.000   1.752
   96        0.765   0.954   0.000   1.719
   97        0.745   0.975   0.000   1.720
   98        0.752   0.934   0.000   1.686
   99        0.739   0.959   0.000   1.698
  100        0.743   0.991   0.000   1.734
  101        0.737   0.948   0.000   1.685
  102        0.754   1.004   0.000   1.758
  103        0.733   0.965   0.000   1.697
  104        0.745   0.960   0.000   1.705
  105        0.749   0.926   0.000   1.675
  106        0.749   0.902   0.000   1.651
  107        0.757   0.951   0.000   1.708
  108        0.760   0.947   0.000   1.707
  109        0.747   0.936   0.000   1.683
  110        0.747   1.038   0.000   1.785
  111        0.760   0.975   0.000   1.735
  112        0.755   0.914   0.000   1.669
  113        0.759   0.967   0.000   1.726
  114        0.755   0.993   0.000   1.748
  115        0.749   0.947   0.000   1.696
  116        0.748   0.966   0.000   1.714
  117        0.764   0.895   0.000   1.659
  118        0.753   0.943   0.000   1.696
  119        0.777   0.905   0.000   1.682
  120        0.752   0.983   0.000   1.735
  121        0.758   1.000   0.000   1.758
  122        0.764   0.878   0.000   1.642
  123        0.754   0.975   0.000   1.729
  124        0.738   0.990   0.000   1.728
  125        0.747   0.966   0.000   1.713
  126        0.763   0.983   0.000   1.745
  127        0.747   0.975   0.000   1.722
  128        0.752   0.922   0.000   1.675
  129        0.755   0.961   0.000   1.715
  130        0.752   0.928   0.000   1.680
  131        0.752   0.978   0.000   1.730
  132        0.755   0.911   0.000   1.666
  133        0.766   1.022   0.000   1.788
  134        0.749   0.955   0.000   1.703
--------------------------------------------------
tot         94.627  92.750   0.000 187.377


 total amount of memory used by VASP MPI-rank0   213463. kBytes
=======================================================================

   base                                    :      30000. kBytes
   nonl-proj                               :      44326. kBytes
   fftplans                                :      42992. kBytes
   grid                                    :      33148. kBytes
   one-center                              :         27. kBytes
   wavefun                                 :      62970. kBytes

  
  
 General timing and accounting informations for this job:
 ========================================================
  
                  Total CPU time used (sec):     2417.539
                            User time (sec):     2409.118
                          System time (sec):        8.421
                         Elapsed time (sec):     2419.566
  
                   Maximum memory used (kb):      378896.
                   Average memory used (kb):          N/A
  
                          Minor page faults:       262994
                          Major page faults:         1164
                 Voluntary context switches:         2297
