 vasp.6.5.0 16Dec24 (build Jan 20 2025 08:32:48) complex                         
 executed on        HPECrayEX_GCC date 2025.07.22  01:23:25
 running  128 mpi-ranks, with    1 threads/rank, on    1 nodes
 distrk:  each k-point on  128 cores,    1 groups
 distr:  one band on NCORE=  16 cores,    8 groups


--------------------------------------------------------------------------------------------------------


 INCAR:
   SYSTEM = a-Si SPC
   NCORE = 16
   ISTART = 1
   ICHARG = 1
   ISPIN = 1
   ISYM = 1
   EDIFF = 1E-6
   NELM = 150
   EDIFFG = -0.01
   NSW = 0
   ISIF = 2
   IBRION = -1
   PREC = Accurate
   ENCUT = 1200
   KSPACING = 0.23
   KGAMMA = .TRUE.
   METAGGA = SCAN
   LASPH = .TRUE.
   LDIAG = .FALSE.
   LMIXTAU = .TRUE.
   ADDGRID = .TRUE.
   ALGO = Normal
   ISMEAR = 0
   SIGMA = 0.1
   LORBIT = 11
   NEDOS = 2000
   LWAVE = .FALSE.
   LCHARG = .FALSE.

 POTCAR:    PAW_PBE H 15Jun2001                   
 POTCAR:    PAW_PBE Si 05Jan2001                  
 POTCAR:    PAW_PBE H 15Jun2001                   
   SHA256 =  030f79b5d3ab3cf0e668861823c8fb652ff669f3e15e46930bd03bfd63a607b6 H/POTCAR              
   COPYR  = (c) Copyright 15Jun2001 Georg Kresse                                                    
   COPYR  = This file is part of the software VASP. Any use, copying, and all other rights are regul
   COPYR  = If you do not have a valid VASP license, you may not use, copy or distribute this file. 
   VRHFIN =H: ultrasoft test                                                                        
   LEXCH  = PE                                                                                      
   EATOM  =    12.4884 eV,    0.9179 Ry                                                             
                                                                                                    
   TITEL  = PAW_PBE H 15Jun2001                                                                     
   LULTRA =        F    use ultrasoft PP ?                                                          
   IUNSCR =        0    unscreen: 0-lin 1-nonlin 2-no                                               
   RPACOR =    0.000    partial core radius                                                         
   POMASS =    1.000; ZVAL   =    1.000    mass and valenz                                          
   RCORE  =    1.100    outmost cutoff radius                                                       
   RWIGS  =    0.700; RWIGS  =    0.370    wigner-seitz radius (au A)                               
   ENMAX  =  250.000; ENMIN  =  200.000 eV                                                          
   RCLOC  =    0.701    cutoff for local pot                                                        
   LCOR   =        T    correct aug charges                                                         
   LPAW   =        T    paw PP                                                                      
   EAUG   =  400.000                                                                                
   RMAX   =    1.123    core radius for proj-oper                                                   
   RAUG   =    1.200    factor for augmentation sphere                                              
   RDEP   =    1.112    radius for radial grids                                                     
   RDEPT  =    0.926    core radius for aug-charge                                                  
                                                                                                    
   Atomic configuration                                                                             
    2 entries                                                                                       
     n  l   j            E        occ.                                                              
     1  0  0.50        -6.4927   1.0000                                                             
     2  1  0.50        -3.4015   0.0000                                                             
   Description                                                                                      
     l       E           TYP  RCUT    TYP  RCUT                                                     
     0     -6.4927494     23  1.100                                                                 
     0      6.8029130     23  1.100                                                                 
     1     -4.0817478     23  1.100                                                                 
  local pseudopotential read in
  atomic valenz-charges read in
  non local Contribution for L=           0  read in
    real space projection operators read in
  non local Contribution for L=           0  read in
    real space projection operators read in
  non local Contribution for L=           1  read in
    real space projection operators read in
    PAW grid and wavefunctions read in

   number of l-projection  operators is LMAX  =           3
   number of lm-projection operators is LMMAX =           5

 POTCAR:    PAW_PBE Si 05Jan2001                  
   SHA256 =  79d9987ad8750f624c4d6acb2a16d13abf6a777132adc04dc6c8399be72b42bb Si/POTCAR             
   COPYR  = (c) Copyright 05Jan2001 Georg Kresse                                                    
   COPYR  = This file is part of the software VASP. Any use, copying, and all other rights are regul
   COPYR  = If you do not have a valid VASP license, you may not use, copy or distribute this file. 
   VRHFIN =Si: s2p2                                                                                 
   LEXCH  = PE                                                                                      
   EATOM  =   103.0669 eV,    7.5752 Ry                                                             
                                                                                                    
   TITEL  = PAW_PBE Si 05Jan2001                                                                    
   LULTRA =        F    use ultrasoft PP ?                                                          
   IUNSCR =        1    unscreen: 0-lin 1-nonlin 2-no                                               
   RPACOR =    1.500    partial core radius                                                         
   POMASS =   28.085; ZVAL   =    4.000    mass and valenz                                          
   RCORE  =    1.900    outmost cutoff radius                                                       
   RWIGS  =    2.480; RWIGS  =    1.312    wigner-seitz radius (au A)                               
   ENMAX  =  245.345; ENMIN  =  184.009 eV                                                          
   ICORE  =        2    local potential                                                             
   LCOR   =        T    correct aug charges                                                         
   LPAW   =        T    paw PP                                                                      
   EAUG   =  322.069                                                                                
   DEXC   =    0.000                                                                                
   RMAX   =    1.950    core radius for proj-oper                                                   
   RAUG   =    1.300    factor for augmentation sphere                                              
   RDEP   =    1.993    radius for radial grids                                                     
   RDEPT  =    1.837    core radius for aug-charge                                                  
                                                                                                    
   Atomic configuration                                                                             
    6 entries                                                                                       
     n  l   j            E        occ.                                                              
     1  0  0.50     -1785.8828   2.0000                                                             
     2  0  0.50      -139.4969   2.0000                                                             
     2  1  1.50       -95.5546   6.0000                                                             
     3  0  0.50       -10.8127   2.0000                                                             
     3  1  0.50        -4.0811   2.0000                                                             
     3  2  1.50        -4.0817   0.0000                                                             
   Description                                                                                      
     l       E           TYP  RCUT    TYP  RCUT                                                     
     0    -10.8127223     23  1.900                                                                 
     0     -7.6451159     23  1.900                                                                 
     1     -4.0811372     23  1.900                                                                 
     1      2.4879257     23  1.900                                                                 
     2     -4.0817478      7  1.900                                                                 
  local pseudopotential read in
  partial core-charges read in
  partial kinetic energy density read in
  atomic valenz-charges read in
  non local Contribution for L=           0  read in
    real space projection operators read in
  non local Contribution for L=           0  read in
    real space projection operators read in
  non local Contribution for L=           1  read in
    real space projection operators read in
  non local Contribution for L=           1  read in
    real space projection operators read in
    PAW grid and wavefunctions read in

   number of l-projection  operators is LMAX  =           4
   number of lm-projection operators is LMMAX =           8

 -----------------------------------------------------------------------------
|                                                                             |
|               ----> ADVICE to this user running VASP <----                  |
|                                                                             |
|     You have a (more or less) 'large supercell' and for larger cells it     |
|     might be more efficient to use real-space projection operators.         |
|     Therefore, try LREAL= Auto in the INCAR file.                           |
|     Mind: For very accurate calculation, you might also keep the            |
|     reciprocal projection scheme (i.e. LREAL=.FALSE.).                      |
|                                                                             |
 -----------------------------------------------------------------------------

 -----------------------------------------------------------------------------
|                                                                             |
|               ----> ADVICE to this user running VASP <----                  |
|                                                                             |
|     You enforced a specific xc type in the INCAR file but a different       |
|     type was found in the POTCAR file.                                      |
|     I HOPE YOU KNOW WHAT YOU ARE DOING!                                     |
|                                                                             |
 -----------------------------------------------------------------------------

  PAW_PBE H 15Jun2001                   :
 energy of atom  1       EATOM=  -12.4884
 kinetic energy error for atom=    0.0000 (will be added to EATOM!!)
  PAW_PBE Si 05Jan2001                  :
 energy of atom  2       EATOM= -103.0669
 kinetic energy error for atom=    0.0001 (will be added to EATOM!!)


 POSCAR:  H Si
  positions in cartesian coordinates
  No initial velocities read in


 exchange-correlation table for SCAN
   RHO(1)=    0.500       N(1)  =     2000
   RHO(2)=  100.500       N(2)  =     4000



--------------------------------------------------------------------------------------------------------


 ion  position               nearest neighbor table
   1  0.447  0.558  0.478-  65 1.58
   2  0.203  0.889  0.511-  41 1.46
   3  0.909  0.495  0.501-  45 1.54
   4  0.134  0.777  0.614-  89 1.57
   5  0.320  0.957  0.351-  85 1.53
   6  0.304  0.774  0.457-  62 1.48
   7  0.232  0.538  0.447-  16 0.70
   8  0.235  0.627  0.606-  21 0.76
   9  0.253  0.772  0.653-  27 0.75
  10  0.349  0.639  0.503-  13 0.78
  11  0.120  0.915  0.449-  36 1.49
  12  0.118  0.579  0.585-  24 0.79
  13  0.322  0.651  0.525-  10 0.78
  14  0.385  0.587  0.354-  94 1.53
  15  0.262  0.827  0.399-  23 0.79
  16  0.191  0.559  0.443-   7 0.70
  17  0.190  0.678  0.500-  61 1.47
  18  0.276  0.794  0.562-  47 1.53
  19  0.117  0.829  0.404-  26 0.73
  20  0.254  0.682  0.406-  70 1.58
  21  0.255  0.662  0.590-   8 0.76
  22  0.128  0.808  0.469-  61 1.41
  23  0.230  0.822  0.421-  15 0.79
  24  0.091  0.609  0.567-  12 0.79
  25  0.222  0.545  0.537-  73 1.43
  26  0.093  0.836  0.382-  19 0.73
  27  0.214  0.803  0.646-   9 0.75
  28  0.280  0.186  0.566-  49 2.17  54 2.28  46 2.36  92 2.38
  29  0.692  0.164  0.626- 118 2.42  84 2.51 115 2.52  67 3.12
  30  0.598  0.297  0.545- 118 2.31  79 2.32 119 2.40  81 2.45  84 3.08
  31  0.460  0.818  0.525-  62 2.21  80 2.23  47 2.27 112 2.32
  32  0.831  0.095  0.405-  72 2.22  95 2.23  38 2.27  55 2.35
  33  0.515  0.591  0.583-  88 2.26  97 2.35  80 2.36 120 2.37  64 3.15
  34  0.738  0.551  0.560-  88 2.21 108 2.30 114 2.47  86 2.52
  35  0.625  0.923  0.391- 102 2.24 101 2.24 103 2.42
  36  0.035  0.965  0.463-  11 1.49  66 2.32  58 2.35 117 2.52  41 3.08
  37  0.236  0.376  0.478-  49 2.20  73 2.31  96 2.31  63 2.36
  38  0.715  0.196  0.391-  32 2.27  75 2.29 109 2.29
  39  0.502  0.210  0.422-  59 2.20  75 2.21 107 2.27  87 2.27
  40  0.027  0.415  0.395-  91 2.23  44 2.32  96 2.33
  41  0.223  0.987  0.510-   2 1.46  92 2.30  68 2.31  66 2.40  36 3.08
  42  0.197  0.166  0.424-  68 2.32  56 2.34 117 2.37  49 2.44
  43  0.715  0.460  0.356- 109 2.26  71 2.30 105 2.41 116 2.95
  44  0.973  0.564  0.404-  57 2.28  40 2.32  52 2.44  71 2.44
  45  0.011  0.505  0.513-   3 1.54  69 2.25  52 2.26  96 2.39
  46  0.411  0.240  0.605- 118 2.26  64 2.32  28 2.36
  47  0.366  0.813  0.587-  18 1.53  31 2.27  76 2.32 120 2.50
  48  0.650  0.939  0.578- 112 2.22 115 2.28 100 2.31  67 2.50
  49  0.255  0.230  0.496-  28 2.17  37 2.20 107 2.39  42 2.44  68 3.08
  50  0.020  0.293  0.595-  54 2.25  53 2.36  69 2.39
  51  0.983  0.560  0.640-  83 2.33  69 2.34
  52  0.991  0.642  0.478-  45 2.26  98 2.30  61 2.37  44 2.44
  53  0.972  0.168  0.550-  50 2.36  82 2.36  77 2.43  66 2.47
  54  0.166  0.252  0.609-  50 2.25  28 2.28 104 2.36
  55  0.873  0.999  0.344- 113 2.29  32 2.35
  56  0.270  0.255  0.368-  42 2.34  63 2.49
  57  0.054  0.643  0.350-  44 2.28  70 2.38
  58  0.899  0.878  0.464-  98 2.32  36 2.35  95 2.38 113 2.38
  59  0.469  0.095  0.376-  39 2.20  85 2.40
  60  0.625  0.652  0.473- 108 2.18  65 2.28  90 2.32  80 2.34
  61  0.111  0.740  0.502-  22 1.41  17 1.47  89 2.35  52 2.37
  62  0.405  0.764  0.460-   6 1.48  31 2.21 103 2.29  65 2.34
  63  0.322  0.395  0.410-  87 2.29  37 2.36  99 2.44  56 2.49
  64  0.442  0.396  0.611-  97 2.32  46 2.32  81 2.49  33 3.15
  65  0.483  0.629  0.441-   1 1.58  60 2.28  62 2.34  94 2.36
  66  0.072  0.037  0.531-  74 2.32  36 2.32  41 2.40  53 2.47
  67  0.577  0.990  0.651-  48 2.50  29 3.12
  68  0.295  0.048  0.446-  85 2.23 107 2.30  41 2.31  42 2.32  49 3.08
  69  0.974  0.448  0.582-  45 2.25 114 2.28  51 2.34  50 2.39
  70  0.216  0.639  0.360-  20 1.58  99 2.30  57 2.38
  71  0.806  0.563  0.395-  90 2.28  43 2.30 116 2.34  44 2.44
  72  0.952  0.185  0.416- 117 2.19  32 2.22  91 2.26  77 2.26
  73  0.270  0.461  0.543-  25 1.43 104 2.30  37 2.31  97 2.34
  74  0.042  0.951  0.597-  78 2.28  66 2.32 106 2.34  89 2.40
  75  0.630  0.159  0.455-  39 2.21  38 2.29 119 2.29 102 2.38
  76  0.320  0.942  0.627-  47 2.32  92 2.36 106 2.38
  77  0.983  0.262  0.481-  72 2.26  96 2.30 110 2.32  53 2.43
  78  0.902  0.966  0.631-  74 2.28 115 2.34  93 2.42
  79  0.535  0.405  0.496-  30 2.32  97 2.33  87 2.36 108 2.37
  80  0.571  0.718  0.541-  31 2.23  60 2.34  33 2.36 100 2.38
  81  0.613  0.385  0.617-  84 2.26  88 2.37  30 2.45  64 2.49
  82  0.826  0.109  0.531- 119 2.24 115 2.27  53 2.36  95 2.36
  83  0.955  0.708  0.612-  93 2.28  89 2.28  51 2.33  86 2.47
  84  0.755  0.322  0.615- 114 2.22  81 2.26  29 2.51  30 3.08
  85  0.376  0.966  0.395-   5 1.53  68 2.23 103 2.28  59 2.40
  86  0.825  0.700  0.558-  98 2.27 100 2.42  83 2.47  34 2.52
  87  0.474  0.363  0.424-  39 2.27  63 2.29 105 2.32  79 2.36
  88  0.643  0.545  0.619-  34 2.21  33 2.26  81 2.37
  89  0.063  0.794  0.574-   4 1.57  83 2.28  61 2.35  74 2.40
  90  0.751  0.693  0.429-  71 2.28 101 2.29  98 2.30  60 2.32
  91  0.923  0.312  0.374-  40 2.23  72 2.26 109 2.27
  92  0.336  0.033  0.560-  41 2.30 111 2.31  76 2.36  28 2.38
  93  0.877  0.810  0.656-  83 2.28  78 2.42
  94  0.488  0.585  0.363-  14 1.53 105 2.29  65 2.36
  95  0.804  0.011  0.467-  32 2.23  82 2.36 102 2.37  58 2.38
  96  0.079  0.384  0.469-  77 2.30  37 2.31  40 2.33  45 2.39
  97  0.430  0.478  0.544-  64 2.32  79 2.33  73 2.34  33 2.35
  98  0.860  0.729  0.483-  86 2.27  52 2.30  90 2.30  58 2.32
  99  0.253  0.486  0.349-  70 2.30  63 2.44
 100  0.692  0.787  0.583-  48 2.31  80 2.38  86 2.42
 101  0.726  0.811  0.378-  35 2.24  90 2.29 113 2.36
 102  0.643  0.996  0.459-  35 2.24 112 2.28  95 2.37  75 2.38
 103  0.478  0.849  0.404-  85 2.28  62 2.29  35 2.42
 104  0.217  0.405  0.612-  73 2.30  54 2.36
 105  0.553  0.442  0.367-  94 2.29  87 2.32  43 2.41
 106  0.166  0.982  0.645-  74 2.34  76 2.38
 107  0.395  0.158  0.473-  39 2.27  68 2.30 111 2.39  49 2.39
 108  0.657  0.512  0.495-  60 2.18 116 2.26  34 2.30  79 2.37
 109  0.776  0.341  0.395-  43 2.26  91 2.27  38 2.29 116 2.37 110 2.86
 110  0.841  0.335  0.488- 116 2.27  77 2.32 114 2.44 119 2.53 109 2.86
 111  0.476  0.081  0.532- 118 2.29  92 2.31 112 2.33 107 2.39
 112  0.555  0.945  0.518-  48 2.22 102 2.28  31 2.32 111 2.33
 113  0.879  0.863  0.383-  55 2.29 101 2.36  58 2.38
 114  0.827  0.407  0.563-  84 2.22  69 2.28 110 2.44  34 2.47
 115  0.775  0.028  0.592-  82 2.27  48 2.28  78 2.34  29 2.52
 116  0.774  0.456  0.453- 108 2.26 110 2.27  71 2.34 109 2.37  43 2.95
 117  0.062  0.087  0.403-  72 2.19  42 2.37  36 2.52
 118  0.545  0.172  0.586-  46 2.26 111 2.29  30 2.31  29 2.42
 119  0.723  0.216  0.511-  82 2.24  75 2.29  30 2.40 110 2.53
 120  0.436  0.688  0.635-  33 2.37  47 2.50

  LATTYP: Found a simple tetragonal cell.
 ALAT       =    14.5722492107
 C/A-ratio  =     1.9969895779
  
  Lattice vectors:
  
 A1 = (  14.5722492107,   0.0000000000,   0.0000000000)
 A2 = (   0.0000000000,  14.5722492107,   0.0000000000)
 A3 = (   0.0000000000,   0.0000000000,  29.1006298000)


Analysis of symmetry for initial positions (statically):
=====================================================================
 Subroutine PRICEL returns:
 Original cell was already a primitive cell.
 

 Routine SETGRP: Setting up the symmetry group for a 
 simple tetragonal supercell.


 Subroutine GETGRP returns: Found  1 space group operations
 (whereof  1 operations were pure point group operations)
 out of a pool of 16 trial point group operations.


The static configuration has the point symmetry C_1 .


Analysis of symmetry for dynamics (positions and initial velocities):
=====================================================================
 Subroutine PRICEL returns:
 Original cell was already a primitive cell.
 

 Routine SETGRP: Setting up the symmetry group for a 
 simple tetragonal supercell.


 Subroutine GETGRP returns: Found  1 space group operations
 (whereof  1 operations were pure point group operations)
 out of a pool of 16 trial point group operations.


The dynamic configuration has the point symmetry C_1 .


 Subroutine INISYM returns: Found  1 space group operations
 (whereof  1 operations are pure point group operations),
 and found     1 'primitive' translations


----------------------------------------------------------------------------------------

                                     Primitive cell                                     

  volume of cell :    6179.5317

  direct lattice vectors                    reciprocal lattice vectors
    14.572249211  0.000000000  0.000000000     0.068623586  0.000000000  0.000000000
     0.000000000 14.572249211  0.000000000     0.000000000  0.068623586  0.000000000
     0.000000000  0.000000000 29.100629800     0.000000000  0.000000000  0.034363517

  length of vectors
    14.572249211 14.572249211 29.100629800     0.068623586  0.068623586  0.034363517

  position of ions in fractional coordinates (direct lattice)
     0.447332454  0.558176015  0.478044286
     0.202950139  0.889094045  0.510752513
     0.909447801  0.495341515  0.500599812
     0.133823542  0.777470920  0.613960245
     0.320230593  0.956619654  0.351233938
     0.303922884  0.774348547  0.457063641
     0.232268194  0.537515512  0.447382407
     0.234532086  0.626790681  0.605626405
     0.252755765  0.772433949  0.653409907
     0.349095732  0.638797063  0.503172608
     0.119814723  0.915068073  0.448855914
     0.117808855  0.579253750  0.585057778
     0.321743743  0.650629142  0.525444635
     0.385073019  0.587107719  0.354439917
     0.261523115  0.827257332  0.398608548
     0.190517604  0.558875290  0.442984220
     0.189968615  0.678134162  0.500113568
     0.275637614  0.794167039  0.561919790
     0.117286630  0.829439562  0.404247945
     0.254439788  0.682408725  0.405565442
     0.255307190  0.662257409  0.589571426
     0.127871818  0.808035865  0.468591570
     0.230085277  0.822282122  0.420695356
     0.090867235  0.608816791  0.566539278
     0.222039162  0.545293310  0.536890779
     0.093278668  0.835903904  0.382470410
     0.213627969  0.802696950  0.646022094
     0.279739932  0.186147654  0.566046505
     0.691615951  0.163960276  0.625639374
     0.597529583  0.297320608  0.545462415
     0.459877532  0.818274504  0.524839150
     0.830928694  0.095402568  0.404661338
     0.514772283  0.590870351  0.582642710
     0.737813350  0.550503212  0.560022924
     0.624598843  0.923323490  0.391372622
     0.034851655  0.965080942  0.462606132
     0.236489917  0.375806090  0.478366272
     0.715044044  0.196134444  0.391459906
     0.502177797  0.210016309  0.422396693
     0.027090053  0.414712919  0.395024433
     0.223209880  0.987411057  0.509576937
     0.197347023  0.165916734  0.424172600
     0.715373437  0.460355838  0.355694185
     0.972595225  0.563544439  0.404079220
     0.011398789  0.505285073  0.513019474
     0.410972933  0.239831885  0.605138443
     0.365881747  0.812866966  0.586827842
     0.649700665  0.939367685  0.577643849
     0.255114358  0.230134686  0.495820534
     0.019744790  0.293304070  0.595362022
     0.982559370  0.560262859  0.639558316
     0.990801062  0.641974335  0.477559417
     0.971867815  0.168058476  0.550070906
     0.165985358  0.251762096  0.608900904
     0.873276309  0.998534941  0.343635175
     0.270044105  0.255456103  0.368458720
     0.054080121  0.642685962  0.350313477
     0.898811145  0.878484839  0.464020191
     0.469362684  0.095328455  0.375979038
     0.625020192  0.651795057  0.472779108
     0.110759154  0.740482807  0.502088439
     0.404773478  0.764302054  0.459549841
     0.321966769  0.394818941  0.410253657
     0.442464983  0.395629385  0.611311505
     0.483471007  0.628890562  0.441173606
     0.072019081  0.036838170  0.531298460
     0.576606938  0.990217762  0.651046384
     0.295438263  0.048147681  0.445970410
     0.973631441  0.448279460  0.582245811
     0.216019501  0.638534921  0.359790660
     0.806038919  0.563170440  0.394626504
     0.951747380  0.185079871  0.415801647
     0.270267132  0.460558278  0.543112294
     0.041651772  0.950992520  0.596628661
     0.629698948  0.158513622  0.454652009
     0.320402152  0.942380260  0.627161334
     0.982566232  0.262121512  0.481441807
     0.902208013  0.966199507  0.631209356
     0.534707435  0.404510650  0.495776892
     0.570930395  0.717768400  0.541000999
     0.612904012  0.385219874  0.616763964
     0.826358363  0.108708682  0.530688164
     0.955494227  0.707646421  0.611779880
     0.754934934  0.322355865  0.614990120
     0.375965983  0.965767178  0.395463256
     0.824828057  0.699933130  0.558069702
     0.473620091  0.363415415  0.423629656
     0.643118977  0.545014698  0.619494146
     0.062676049  0.793837645  0.574249764
     0.751366508  0.692604131  0.428801022
     0.922630392  0.311678721  0.373600361
     0.335543260  0.032999916  0.560312609
     0.877476072  0.809833803  0.656364825
     0.488477098  0.585391443  0.362968117
     0.803801790  0.010844860  0.466964114
     0.079407783  0.383941416  0.469215955
     0.429684526  0.478453250  0.543641492
     0.859730013  0.728940320  0.483482313
     0.253024770  0.486390254  0.349013333
     0.692391398  0.787277230  0.583125173
     0.725886570  0.810684736  0.378339228
     0.642906244  0.996098803  0.458536117
     0.478289240  0.848908073  0.404229733
     0.217094146  0.405080226  0.612303923
     0.552666228  0.441937268  0.366754324
     0.166202208  0.981626089  0.645026239
     0.395072848  0.158283733  0.472721721
     0.656687918  0.512194095  0.495071065
     0.775693569  0.341232841  0.395198656
     0.841338892  0.334620959  0.487813147
     0.476165340  0.080739080  0.532483658
     0.555179910  0.945090892  0.518055104
     0.879157350  0.863133743  0.383217816
     0.827353405  0.407073055  0.563051381
     0.775487698  0.027798248  0.592353152
     0.774074052  0.456329006  0.452636245
     0.062173518  0.086596103  0.402700212
     0.545420949  0.171930905  0.586311702
     0.723155351  0.215941270  0.510870036
     0.435691149  0.688006351  0.634547772

  ion indices of the primitive-cell ions
   primitive index   ion index
                 1           1
                 2           2
                 3           3
                 4           4
                 5           5
                 6           6
                 7           7
                 8           8
                 9           9
                10          10
                11          11
                12          12
                13          13
                14          14
                15          15
                16          16
                17          17
                18          18
                19          19
                20          20
                21          21
                22          22
                23          23
                24          24
                25          25
                26          26
                27          27
                28          28
                29          29
                30          30
                31          31
                32          32
                33          33
                34          34
                35          35
                36          36
                37          37
                38          38
                39          39
                40          40
                41          41
                42          42
                43          43
                44          44
                45          45
                46          46
                47          47
                48          48
                49          49
                50          50
                51          51
                52          52
                53          53
                54          54
                55          55
                56          56
                57          57
                58          58
                59          59
                60          60
                61          61
                62          62
                63          63
                64          64
                65          65
                66          66
                67          67
                68          68
                69          69
                70          70
                71          71
                72          72
                73          73
                74          74
                75          75
                76          76
                77          77
                78          78
                79          79
                80          80
                81          81
                82          82
                83          83
                84          84
                85          85
                86          86
                87          87
                88          88
                89          89
                90          90
                91          91
                92          92
                93          93
                94          94
                95          95
                96          96
                97          97
                98          98
                99          99
               100         100
               101         101
               102         102
               103         103
               104         104
               105         105
               106         106
               107         107
               108         108
               109         109
               110         110
               111         111
               112         112
               113         113
               114         114
               115         115
               116         116
               117         117
               118         118
               119         119
               120         120

----------------------------------------------------------------------------------------


 -----------------------------------------------------------------------------
|                                                                             |
|           W    W    AA    RRRRR   N    N  II  N    N   GGGG   !!!           |
|           W    W   A  A   R    R  NN   N  II  NN   N  G    G  !!!           |
|           W    W  A    A  R    R  N N  N  II  N N  N  G       !!!           |
|           W WW W  AAAAAA  RRRRR   N  N N  II  N  N N  G  GGG   !            |
|           WW  WW  A    A  R   R   N   NN  II  N   NN  G    G                |
|           W    W  A    A  R    R  N    N  II  N    N   GGGG   !!!           |
|                                                                             |
|     The requested file  could not be found or opened for reading            |
|     k-point information. Automatic k-point generation is used as a          |
|     fallback, which may lead to unwanted results.                           |
|                                                                             |
 -----------------------------------------------------------------------------



Automatic generation of k-mesh.
 Grid dimensions derived from KSPACING:
 generate k-points for:    2    2    1

 Generating k-lattice:

  Cartesian coordinates                     Fractional coordinates (reciprocal lattice)
     0.034311793  0.000000000  0.000000000     0.500000000  0.000000000  0.000000000
     0.000000000  0.034311793  0.000000000     0.000000000  0.500000000  0.000000000
     0.000000000  0.000000000  0.034363517     0.000000000  0.000000000  1.000000000

  Length of vectors
     0.034311793  0.034311793  0.034363517

  Shift w.r.t. Gamma in fractional coordinates (k-lattice)
     0.000000000  0.000000000  0.000000000

 
 Subroutine IBZKPT returns following result:
 ===========================================
 
 Found      4 irreducible k-points:
 
 Following reciprocal coordinates:
            Coordinates               Weight
  0.000000  0.000000  0.000000      1.000000
  0.500000  0.000000  0.000000      1.000000
  0.000000  0.500000  0.000000      1.000000
  0.500000  0.500000  0.000000      1.000000
 
 Following cartesian coordinates:
            Coordinates               Weight
  0.000000  0.000000  0.000000      1.000000
  0.034312  0.000000  0.000000      1.000000
  0.000000  0.034312  0.000000      1.000000
  0.034312  0.034312  0.000000      1.000000
 


--------------------------------------------------------------------------------------------------------




 Dimension of arrays:
   k-points           NKPTS =      4   k-points in BZ     NKDIM =      4   number of bands    NBANDS=    264
   number of dos      NEDOS =   2000   number of ions     NIONS =    120
   non local maximal  LDIM  =      4   non local SUM 2l+1 LMDIM =      8
   total plane-waves  NPLWV = ******
   max r-space proj   IRMAX =      1   max aug-charges    IRDMAX= 410632
   dimension x,y,z NGX =   168 NGY =  168 NGZ =  336
   dimension x,y,z NGXF=   336 NGYF=  336 NGZF=  672
   support grid    NGXF=   672 NGYF=  672 NGZF= 1344
   ions per type =              27  93
   NGX,Y,Z   is equivalent  to a cutoff of  19.17, 19.17, 19.19 a.u.
   NGXF,Y,Z  is equivalent  to a cutoff of  38.33, 38.33, 38.39 a.u.

 SYSTEM =  a-Si SPC                                
 POSCAR =   H Si                                   

 Startparameter for this run:
   NWRITE =      2    write-flag & timer
   PREC   = accura    normal or accurate (medium, high low for compatibility)
   ISTART =      1    job   : 0-new  1-cont  2-samecut
   ICHARG =      1    charge: 1-file 2-atom 10-const
   ISPIN  =      1    spin polarized calculation?
   LNONCOLLINEAR =      F non collinear calculations
   LSORBIT =      F    spin-orbit coupling
   INIWAV =      1    electr: 0-lowe 1-rand  2-diag
   LASPH  =      T    aspherical Exc in radial PAW
 Electronic Relaxation 1
   ENCUT  = 1200.0 eV  88.20 Ry    9.39 a.u.  41.16 41.16 82.20*2*pi/ulx,y,z
   ENINI  = 1200.0     initial cutoff
   ENAUG  =  400.0 eV  augmentation charge cutoff
   NELM   =    150;   NELMIN=  2; NELMDL=  0     # of ELM steps 
   EDIFF  = 0.1E-05   stopping-criterion for ELM
   LREAL  =      F    real-space projection
   NLSPLINE    = F    spline interpolate recip. space projectors
   LCOMPAT=      F    compatible to vasp.4.4
   GGA_COMPAT  = T    GGA compatible to vasp.4.4-vasp.4.6
   LMAXPAW     = -100 max onsite density
   LMAXMIX     =    2 max onsite mixed and CHGCAR
   VOSKOWN=      0    Vosko Wilk Nusair interpolation
   ROPT   =    0.00000   0.00000
 Ionic relaxation
   EDIFFG = -.1E-01   stopping-criterion for IOM
   NSW    =      0    number of steps for IOM
   NBLOCK =      1;   KBLOCK =      1    inner block; outer block 
   IBRION =     -1    ionic relax: 0-MD 1-quasi-New 2-CG
   NFREE  =      0    steps in history (QN), initial steepest desc. (CG)
   ISIF   =      2    stress and relaxation
   IWAVPR =     10    prediction:  0-non 1-charg 2-wave 3-comb
   ISYM   =      1    0-nonsym 1-usesym 2-fastsym
   LCORR  =      T    Harris-Foulkes like correction to forces

   POTIM  = 0.5000    time-step for ionic-motion
   TEIN   =    0.0    initial temperature
   TEBEG  =    0.0;   TEEND  =   0.0 temperature during run
   SMASS  =  -3.00    Nose mass-parameter (am)
   estimated Nose-frequenzy (Omega)   =  0.10E-29 period in steps = 0.13E+47 mass=  -0.485E-26a.u.
   SCALEE = 1.0000    scale energy and forces
   NPACO  =    256;   APACO  = 10.0  distance and # of slots for P.C.
   PSTRESS=    0.0 pullay stress

  Mass of Ions in am
   POMASS =   1.00 28.09
  Ionic Valenz
   ZVAL   =   1.00  4.00
  Atomic Wigner-Seitz radii
   RWIGS  =  -1.00 -1.00
  virtual crystal weights 
   VCA    =   1.00  1.00
   NELECT =     399.0000    total number of electrons
   NUPDOWN=      -1.0000    fix difference up-down

 DOS related values:
   EMIN   =  10.00;   EMAX   =-10.00  energy-range for DOS
   EFERMI =   0.00;   METHOD = LEGACY      
   ISMEAR =     0;   SIGMA  =   0.10  broadening in eV -4-tet -1-fermi 0-gaus
   EFERMI_NEDOS =   21; number of points for ismear=-14 and -15

 Electronic relaxation 2 (details)
   IALGO  =     38    algorithm
   LDIAG  =      F    sub-space diagonalisation (order eigenvalues)
   LSUBROT=      F    optimize rotation matrix (better conditioning)
   TURBO    =      0    0=normal 1=particle mesh
   IRESTART =      0    0=no restart 2=restart with 2 vectors
   NREBOOT  =      0    no. of reboots
   NMIN     =      0    reboot dimension
   EREF     =   0.00    reference energy to select bands
   IMIX   =      4    mixing-type and parameters
     AMIX     =   0.40;   BMIX     =  1.00
     AMIX_MAG =   1.60;   BMIX_MAG =  1.00
     AMIN     =   0.10
     WC   =   100.;   INIMIX=   1;  MIXPRE=   1;  MAXMIX= -45

 Intra band minimization:
   WEIMIN = 0.0000     energy-eigenvalue tresh-hold
   EBREAK =  0.95E-09  absolut break condition
   DEPER  =   0.30     relativ break condition  

   TIME   =   0.40     timestep for ELM

  volume/ion in A,a.u.               =      51.50       347.51
  Fermi-wavevector in a.u.,A,eV,Ry     =   0.656771  1.241117  5.868847  0.431348
  Thomas-Fermi vector in A             =   1.728068

 Write flags
   LWAVE        =      F    write WAVECAR
   LDOWNSAMPLE  =      F    k-point downsampling of WAVECAR
   LCHARG       =      F    write CHGCAR
   LVTOT        =      F    write LOCPOT, total local potential
   LVHAR        =      F    write LOCPOT, Hartree potential only
   WRT_POTENTIAL= false  ! write potential to hdf5 file
   LELF         =      F    write electronic localiz. function (ELF)
   LORBIT       =     11    0 simple, 1 ext, 2 COOP (PROOUT), +10 PAW based schemes


 Python interface
   PLUGINS active      =      F    recompile with -DPLUGINS to activate

 Dipole corrections
   LMONO      =      F    monopole corrections only (constant potential shift)
   LDIPOL     =      F    correct potential (dipole corrections)
   IDIPOL     =      0    1-x, 2-y, 3-z, 4-all directions 
   EPSILON    =  1.0000000 bulk dielectric constant
   LVACPOTAV  =      F  vacuum potentials using an averaging scheme for the charge density
   VACPOTFLAT =  0.1000000 required flatness to determine vacuum potential

Coulomb truncation method
  LTRUNCATE          =      F  Coulomb kernel truncation to be used
  IDIMENSIONALITY    =      3  Dimensionality of cutoff (0 molecules / 2 surfaces)
  ISURFACE           =     -1  Direction of surface normal
  LCOARSEN           =      F  Coarsen the charge grid before padding, preferred


 Exchange correlation treatment:
   METAGGA = SCAN    functional components
   XC_C    = 1    coefficients multiplying the functional components
   LIBXC   =     F    Libxc                    
   VOSKOWN =     0    Vosko Wilk Nusair interpolation
   LHFCALC =     F    Hartree Fock is set to
   LHFONE  =     F    Hartree Fock one center treatment
   AEXX    =    0.0000 exact exchange contribution

 Parameters of functionals:
   SCAN:
     P1 =  0.000000E+00
     P2 =  0.000000E+00
     P3 =  0.000000E+00

 Accuracy and mixing parameters for tau-dependent meta-GGA functionals:
   LMAXTAU = 6
   LMIXTAU = T

 Van der Waals corrections
   IVDW    =     0    specifies the selected vdW correction

 Linear response parameters
   LEPSILON=     F    determine dielectric tensor
   LRPA    =     F    only Hartree local field effects (RPA)
   LNABLA  =     F    use nabla operator in PAW spheres
   LVEL    =     F    velocity operator in full k-point grid
   CSHIFT  =0.1000    complex shift for real part using Kramers Kronig
   OMEGAMAX=  -1.0    maximum frequency
   DEG_THRESHOLD= 0.2000000E-02 threshold for treating states as degnerate
   RTIME   =   -0.100 relaxation time in fs
  (WPLASMAI=    0.000 imaginary part of plasma frequency in eV, 0.658/RTIME)
   DFIELD  = 0.0000000 0.0000000 0.0000000 field for delta impulse in time

  Optional k-point grid parameters
   LKPOINTS_OPT  =     F    use optional k-point grid
   KPOINTS_OPT_MODE=     1    mode for optional k-point grid

 Orbital magnetization related:
   ORBITALMAG=     F  switch on orbital magnetization
   LCHIMAG   =     F  perturbation theory with respect to B field
   DQ        =  0.001000  dq finite difference perturbation B field
   LLRAUG    =     F  two centre corrections for induced B field
   LBONE     =     F  B-component reconstruction in AE one-centre
   LVGVCALC  =     T  calculate vGv susceptibility
   LVGVAPPL  =     F  apply vGv susceptibility instead of pGv for G=0

 Random number generation:
   RANDOM_GENERATOR = DEFAULT
   PCG_SEED         = not used


--------------------------------------------------------------------------------------------------------


 Static calculation
 charge density and potential will be updated during run
 non-spin polarized calculation
 Variant of blocked Davidson
 perform Loewdin sub-space diagonalisation
    ordering is kept fixed
    before iterative eigenvector-optimisation
 modified Broyden-mixing scheme, WC =      100.0
 initial mixing is a Kerker type mixing with AMIX =  0.4000 and BMIX =      1.0000
 Hartree-type preconditioning will be used
 using additional bands           64
 reciprocal scheme for non local part
 use partial core corrections
 calculate Harris-corrections to forces   (improved forces if not selfconsistent)
 use gradient corrections 
 use of overlap-Matrix (Vanderbilt PP)
 Gauss-broadening in eV      SIGMA  =   0.10


--------------------------------------------------------------------------------------------------------


  energy-cutoff  :     1200.00
  volume of cell :     6179.53
      direct lattice vectors                 reciprocal lattice vectors
    14.572249211  0.000000000  0.000000000     0.068623586  0.000000000  0.000000000
     0.000000000 14.572249211  0.000000000     0.000000000  0.068623586  0.000000000
     0.000000000  0.000000000 29.100629800     0.000000000  0.000000000  0.034363517

  length of vectors
    14.572249211 14.572249211 29.100629800     0.068623586  0.068623586  0.034363517



 old parameters found on file WAVECAR:
  energy-cutoff  :     1200.00
  volume of cell :     6179.53
      direct lattice vectors                 reciprocal lattice vectors
    14.572249211  0.000000000  0.000000000     0.068623586  0.000000000  0.000000000
     0.000000000 14.572249211  0.000000000     0.000000000  0.068623586  0.000000000
     0.000000000  0.000000000 29.100629800     0.000000000  0.000000000  0.034363517

  length of vectors


 k-points in units of 2pi/SCALE and weight: read from INCAR                         
   0.00000000  0.00000000  0.00000000       0.250
   0.03431179  0.00000000  0.00000000       0.250
   0.00000000  0.03431179  0.00000000       0.250
   0.03431179  0.03431179  0.00000000       0.250

 k-points in reciprocal lattice and weights: read from INCAR                         
   0.00000000  0.00000000  0.00000000       0.250
   0.50000000  0.00000000  0.00000000       0.250
   0.00000000  0.50000000  0.00000000       0.250
   0.50000000  0.50000000  0.00000000       0.250

 position of ions in fractional coordinates (direct lattice) 
   0.44733245  0.55817602  0.47804429
   0.20295014  0.88909405  0.51075251
   0.90944780  0.49534151  0.50059981
   0.13382354  0.77747092  0.61396024
   0.32023059  0.95661965  0.35123394
   0.30392288  0.77434855  0.45706364
   0.23226819  0.53751551  0.44738241
   0.23453209  0.62679068  0.60562640
   0.25275577  0.77243395  0.65340991
   0.34909573  0.63879706  0.50317261
   0.11981472  0.91506807  0.44885591
   0.11780886  0.57925375  0.58505778
   0.32174374  0.65062914  0.52544463
   0.38507302  0.58710772  0.35443992
   0.26152311  0.82725733  0.39860855
   0.19051760  0.55887529  0.44298422
   0.18996862  0.67813416  0.50011357
   0.27563761  0.79416704  0.56191979
   0.11728663  0.82943956  0.40424795
   0.25443979  0.68240872  0.40556544
   0.25530719  0.66225741  0.58957143
   0.12787182  0.80803587  0.46859157
   0.23008528  0.82228212  0.42069536
   0.09086724  0.60881679  0.56653928
   0.22203916  0.54529331  0.53689078
   0.09327867  0.83590390  0.38247041
   0.21362797  0.80269695  0.64602209
   0.27973993  0.18614765  0.56604651
   0.69161595  0.16396028  0.62563937
   0.59752958  0.29732061  0.54546241
   0.45987753  0.81827450  0.52483915
   0.83092869  0.09540257  0.40466134
   0.51477228  0.59087035  0.58264271
   0.73781335  0.55050321  0.56002292
   0.62459884  0.92332349  0.39137262
   0.03485165  0.96508094  0.46260613
   0.23648992  0.37580609  0.47836627
   0.71504404  0.19613444  0.39145991
   0.50217780  0.21001631  0.42239669
   0.02709005  0.41471292  0.39502443
   0.22320988  0.98741106  0.50957694
   0.19734702  0.16591673  0.42417260
   0.71537344  0.46035584  0.35569419
   0.97259523  0.56354444  0.40407922
   0.01139879  0.50528507  0.51301947
   0.41097293  0.23983189  0.60513844
   0.36588175  0.81286697  0.58682784
   0.64970066  0.93936768  0.57764385
   0.25511436  0.23013469  0.49582053
   0.01974479  0.29330407  0.59536202
   0.98255937  0.56026286  0.63955832
   0.99080106  0.64197434  0.47755942
   0.97186781  0.16805848  0.55007091
   0.16598536  0.25176210  0.60890090
   0.87327631  0.99853494  0.34363517
   0.27004411  0.25545610  0.36845872
   0.05408012  0.64268596  0.35031348
   0.89881115  0.87848484  0.46402019
   0.46936268  0.09532845  0.37597904
   0.62502019  0.65179506  0.47277911
   0.11075915  0.74048281  0.50208844
   0.40477348  0.76430205  0.45954984
   0.32196677  0.39481894  0.41025366
   0.44246498  0.39562939  0.61131151
   0.48347101  0.62889056  0.44117361
   0.07201908  0.03683817  0.53129846
   0.57660694  0.99021776  0.65104638
   0.29543826  0.04814768  0.44597041
   0.97363144  0.44827946  0.58224581
   0.21601950  0.63853492  0.35979066
   0.80603892  0.56317044  0.39462650
   0.95174738  0.18507987  0.41580165
   0.27026713  0.46055828  0.54311229
   0.04165177  0.95099252  0.59662866
   0.62969895  0.15851362  0.45465201
   0.32040215  0.94238026  0.62716133
   0.98256623  0.26212151  0.48144181
   0.90220801  0.96619951  0.63120936
   0.53470744  0.40451065  0.49577689
   0.57093040  0.71776840  0.54100100
   0.61290401  0.38521987  0.61676396
   0.82635836  0.10870868  0.53068816
   0.95549423  0.70764642  0.61177988
   0.75493493  0.32235587  0.61499012
   0.37596598  0.96576718  0.39546326
   0.82482806  0.69993313  0.55806970
   0.47362009  0.36341542  0.42362966
   0.64311898  0.54501470  0.61949415
   0.06267605  0.79383765  0.57424976
   0.75136651  0.69260413  0.42880102
   0.92263039  0.31167872  0.37360036
   0.33554326  0.03299992  0.56031261
   0.87747607  0.80983380  0.65636483
   0.48847710  0.58539144  0.36296812
   0.80380179  0.01084486  0.46696411
   0.07940778  0.38394142  0.46921595
   0.42968453  0.47845325  0.54364149
   0.85973001  0.72894032  0.48348231
   0.25302477  0.48639025  0.34901333
   0.69239140  0.78727723  0.58312517
   0.72588657  0.81068474  0.37833923
   0.64290624  0.99609880  0.45853612
   0.47828924  0.84890807  0.40422973
   0.21709415  0.40508023  0.61230392
   0.55266623  0.44193727  0.36675432
   0.16620221  0.98162609  0.64502624
   0.39507285  0.15828373  0.47272172
   0.65668792  0.51219410  0.49507107
   0.77569357  0.34123284  0.39519866
   0.84133889  0.33462096  0.48781315
   0.47616534  0.08073908  0.53248366
   0.55517991  0.94509089  0.51805510
   0.87915735  0.86313374  0.38321782
   0.82735340  0.40707305  0.56305138
   0.77548770  0.02779825  0.59235315
   0.77407405  0.45632901  0.45263625
   0.06217352  0.08659610  0.40270021
   0.54542095  0.17193091  0.58631170
   0.72315535  0.21594127  0.51087004
   0.43569115  0.68800635  0.63454777

 position of ions in cartesian coordinates  (Angst):
   6.51864000  8.13388000 13.91138980
   2.95744000 12.95610000 14.86321980
  13.25270000  7.21824000 14.56776980
   1.95011000 11.32950000 17.86662980
   4.66648000 13.94010000 10.22112880
   4.42884000 11.28400000 13.30083980
   3.38467000  7.83281000 13.01910980
   3.41766000  9.13375000 17.62410980
   3.68322000 11.25610000 19.01463980
   5.08711000  9.30871000 14.64263980
   1.74597000 13.33460000 13.06198980
   1.71674000  8.44103000 17.02554980
   4.68853000  9.48113000 15.29076980
   5.61138000  8.55548000 10.31442480
   3.81098000 12.05500000 11.59975980
   2.77627000  8.14407000 12.89111980
   2.76827000  9.88194000 14.55361980
   4.01666000 11.57280000 16.35221980
   1.70913000 12.08680000 11.76386980
   3.70776000  9.94423000 11.80220980
   3.72040000  9.65058000 17.15689980
   1.86338000 11.77490000 13.63630980
   3.35286000 11.98250000 12.24249980
   1.32414000  8.87183000 16.48664980
   3.23561000  7.94615000 15.62385980
   1.35928000 12.18100000 11.13012980
   3.11304000 11.69710000 18.79964980
   4.07644000  2.71259000 16.47230980
  10.07840000  2.38927000 18.20649980
   8.70735000  4.33263000 15.87329980
   6.70145000 11.92410000 15.27314980
  12.10850000  1.39023000 11.77589980
   7.50139000  8.61031000 16.95526980
  10.75160000  8.02207000 16.29701980
   9.10181000 13.45490000 11.38918980
   0.50786700 14.06340000 13.46212980
   3.44619000  5.47634000 13.92075980
  10.41980000  2.85812000 11.39172980
   7.31786000  3.06041000 12.29200980
   0.39476300  6.04330000 11.49545980
   3.25267000 14.38880000 14.82900980
   2.87579000  2.41778000 12.34368980
  10.42460000  6.70842000 10.35092480
  14.17290000  8.21211000 11.75895980
   0.16610600  7.36314000 14.92918980
   5.98880000  3.49489000 17.60990980
   5.33172000 11.84530000 17.07705980
   9.46760000 13.68870000 16.80979980
   3.71759000  3.35358000 14.42868980
   0.28772600  4.27410000 17.32540980
  14.31810000  8.16429000 18.61154980
  14.43820000  9.35501000 13.89727980
  14.16230000  2.44899000 16.00740980
   2.41878000  3.66874000 17.71939980
  12.72560000 14.55090000 10.00000000
   3.93515000  3.72257000 10.72238080
   0.78806900  9.36538000 10.19434280
  13.09770000 12.80150000 13.50327980
   6.83967000  1.38915000 10.94122680
   9.10795000  9.49812000 13.75816980
   1.61401000 10.79050000 14.61108980
   5.89846000 11.13760000 13.37318980
   4.69178000  5.75340000 11.93863980
   6.44771000  5.76521000 17.78954980
   7.04526000  9.16435000 12.83842980
   1.04948000  0.53681500 15.46111980
   8.40246000 14.42970000 18.94585980
   4.30520000  0.70162000 12.97801980
  14.18800000  6.53244000 16.94371980
   3.14789000  9.30489000 10.47013480
  11.74580000  8.20666000 11.48387980
  13.86910000  2.69703000 12.10008980
   3.93840000  6.71137000 15.80490980
   0.60696000 13.85810000 17.36226980
   9.17613000  2.30990000 13.23065980
   4.66898000 13.73260000 18.25078980
  14.31820000  3.81970000 14.01025980
  13.14720000 14.07970000 18.36858980
   7.79189000  5.89463000 14.42741980
   8.31974000 10.45950000 15.74346980
   8.93139000  5.61352000 17.94821980
  12.04190000  1.58413000 15.44335980
  13.92370000 10.31200000 17.80317980
  11.00110000  4.69745000 17.89659980
   5.47867000 14.07340000 11.50822980
  12.01960000 10.19960000 16.24017980
   6.90171000  5.29578000 12.32788980
   9.37169000  7.94209000 18.02766980
   0.91333100 11.56800000 16.71102980
  10.94910000 10.09280000 12.47837980
  13.44480000  4.54186000 10.87200580
   4.88962000  0.48088300 16.30544980
  12.78680000 11.80110000 19.10062980
   7.11821000  8.53047000 10.56260080
  11.71320000  0.15803400 13.58894980
   1.15715000  5.59489000 13.65447980
   6.26147000  6.97214000 15.82030980
  12.52820000 10.62230000 14.06963980
   3.68714000  7.08780000 10.15650780
  10.08970000 11.47240000 16.96930980
  10.57780000 11.81350000 11.00990980
   9.36859000 14.51540000 13.34368980
   6.96975000 12.37050000 11.76333980
   3.16355000  5.90293000 17.81842980
   8.05359000  6.44002000 10.67278180
   2.42194000 14.30450000 18.77066980
   5.75710000  2.30655000 13.75649980
   9.56942000  7.46382000 14.40687980
  11.30360000  4.97253000 11.50052980
  12.26020000  4.87618000 14.19566980
   6.93880000  1.17655000 15.49560980
   8.09022000 13.77210000 15.07572980
  12.81130000 12.57780000 11.15187980
  12.05640000  5.93197000 16.38514980
  11.30060000  0.40508300 17.23784980
  11.28000000  6.64974000 13.17199980
   0.90600800  1.26190000 11.71882980
   7.94801000  2.50542000 17.06203980
  10.53800000  3.14675000 14.86663980
   6.34900000 10.02580000 18.46573980



--------------------------------------------------------------------------------------------------------


 k-point     1 :   0.0000 0.0000 0.0000  plane waves:  583373
 k-point     2 :   0.5000 0.0000 0.0000  plane waves:  583386
 k-point     3 :   0.0000 0.5000 0.0000  plane waves:  583386
 k-point     4 :   0.5000 0.5000 0.0000  plane waves:  583156

 maximum and minimum number of plane-waves per node :     36506    36397

 maximum number of plane-waves:    583386
 maximum index in each direction: 
   IXMAX=   41   IYMAX=   41   IZMAX=   82
   IXMIN=  -41   IYMIN=  -41   IZMIN=  -82


 parallel 3D FFT for wavefunctions:
    minimum data exchange during FFTs selected (reduces bandwidth)
 parallel 3D FFT for charge:
    minimum data exchange during FFTs selected (reduces bandwidth)


 total amount of memory used by VASP MPI-rank0   398243. kBytes
=======================================================================

   base                                    :      30000. kBytes
   nonl-proj                               :      88641. kBytes
   fftplans                                :     114281. kBytes
   grid                                    :      88184. kBytes
   one-center                              :         24. kBytes
   wavefun                                 :      77113. kBytes

     INWAV:  cpu time     22.4590: real time     22.4724
 Broyden mixing: mesh for mixing (old mesh)
   NGX = 83   NGY = 83   NGZ =165
  (NGX  =336   NGY  =336   NGZ  =672)
  gives a total of ****** points

 initial charge density was supplied:
 number of electron     398.9999999 magnetization 
 keeping initial charge density in first step


--------------------------------------------------------------------------------------------------------


 Maximum index for augmentation-charges        11460 (set IRDMAX)


--------------------------------------------------------------------------------------------------------


 First call to EWALD:  gamma=   0.097
 Maximum number of real-space cells   3x   3x   2
 Maximum number of reciprocal cells   2x   2x   4

    FEWALD:  cpu time      0.0176: real time      0.0176


--------------------------------------- Ionic step        1  -------------------------------------------




--------------------------------------- Iteration      1(   1)  ---------------------------------------


    POTLOK:  cpu time      2.3138: real time      2.3145
    SETDIJ:  cpu time      1.9247: real time      1.9266
    EDDIAG:  cpu time     46.4478: real time     46.4752
     EDDAV:  cpu time    220.3096: real time    220.4331
       DOS:  cpu time      0.0084: real time      0.0084
    CHARGE:  cpu time     26.8295: real time     26.8537
    MIXING:  cpu time      0.0564: real time      0.0573
    --------------------------------------------
      LOOP:  cpu time    297.8908: real time    298.0694

 eigenvalue-minimisations  :  2120
 total energy-change (2. order) :-0.1018068E+04  (-0.1123611E+01)
 number of electron     398.9999999 magnetization 
 augmentation part      -20.8122686 magnetization 

 Broyden mixing:
  rms(total) = 0.11937E+01    rms(broyden)= 0.11937E+01
  rms(prec ) = 0.11958E+01
  weight for this iteration     100.00

 Free energy of the ion-electron system (eV)
  ---------------------------------------------------
  alpha Z        PSCENC =        54.78235163
  Ewald energy   TEWEN  =     67887.59167150
  -Hartree energ DENC   =    -76635.23930250
  -exchange      EXHF   =         0.00000000
  -V(xc)+E(xc)   XCENC  =      -372.34415061
  PAW double counting   =     36774.10338425   -35847.96893157
  entropy T*S    EENTRO =        -0.21491870
  eigenvalues    EBANDS =     -2801.17924500
  atomic energy  EATOM  =      9922.40150358
  Solvation  Ediel_sol  =         0.00000000
  ---------------------------------------------------
  free energy    TOTEN  =     -1018.06763741 eV

  energy without entropy =    -1017.85271871  energy(sigma->0) =    -1017.96017806


--------------------------------------------------------------------------------------------------------




--------------------------------------- Iteration      1(   2)  ---------------------------------------


    POTLOK:  cpu time      2.2938: real time      2.2974
    SETDIJ:  cpu time      1.9345: real time      1.9361
    EDDIAG:  cpu time     46.4082: real time     46.4353
     EDDAV:  cpu time    220.3795: real time    220.5025
       DOS:  cpu time      0.0035: real time      0.0035
    CHARGE:  cpu time     26.7234: real time     26.7490
    MIXING:  cpu time      0.0446: real time      0.0447
    --------------------------------------------
      LOOP:  cpu time    297.7870: real time    297.9680

 eigenvalue-minimisations  :  2128
 total energy-change (2. order) : 0.7149333E+02  (-0.1145168E+01)
 number of electron     398.9999999 magnetization 
 augmentation part      -20.7365091 magnetization 

 Broyden mixing:
  rms(total) = 0.80869E+00    rms(broyden)= 0.80869E+00
  rms(prec ) = 0.81171E+00
  weight for this iteration     100.00

 eigenvalues of (default mixing * dielectric matrix)
  average eigenvalue GAMMA=   2.5856
  2.5856

 Free energy of the ion-electron system (eV)
  ---------------------------------------------------
  alpha Z        PSCENC =        54.78235163
  Ewald energy   TEWEN  =     67887.59167150
  -Hartree energ DENC   =    -76620.79150756
  -exchange      EXHF   =         0.00000000
  -V(xc)+E(xc)   XCENC  =      -363.19888570
  PAW double counting   =     43699.84258100   -42773.46056696
  entropy T*S    EENTRO =        -0.20284320
  eigenvalues    EBANDS =     -2753.53861114
  atomic energy  EATOM  =      9922.40150358
  Solvation  Ediel_sol  =         0.00000000
  ---------------------------------------------------
  free energy    TOTEN  =      -946.57430684 eV

  energy without entropy =     -946.37146364  energy(sigma->0) =     -946.47288524


--------------------------------------------------------------------------------------------------------




--------------------------------------- Iteration      1(   3)  ---------------------------------------


    POTLOK:  cpu time      2.2779: real time      2.3056
    SETDIJ:  cpu time      1.9116: real time      1.9130
    EDDIAG:  cpu time     46.3852: real time     46.4133
     EDDAV:  cpu time    220.6649: real time    220.7873
       DOS:  cpu time      0.0037: real time      0.0037
    CHARGE:  cpu time     26.7110: real time     26.7355
    MIXING:  cpu time      0.0430: real time      0.0430
    --------------------------------------------
      LOOP:  cpu time    297.9972: real time    298.2014

 eigenvalue-minimisations  :  2128
 total energy-change (2. order) :-0.2893503E+01  (-0.9475611E+00)
 number of electron     398.9999999 magnetization 
 augmentation part      -20.6704805 magnetization 

 Broyden mixing:
  rms(total) = 0.25333E+00    rms(broyden)= 0.25333E+00
  rms(prec ) = 0.40235E+00
  weight for this iteration     100.00

 eigenvalues of (default mixing * dielectric matrix)
  average eigenvalue GAMMA=   1.6921
  0.7345  2.6496

 Free energy of the ion-electron system (eV)
  ---------------------------------------------------
  alpha Z        PSCENC =        54.78235163
  Ewald energy   TEWEN  =     67887.59167150
  -Hartree energ DENC   =    -76621.65437992
  -exchange      EXHF   =         0.00000000
  -V(xc)+E(xc)   XCENC  =      -365.59010420
  PAW double counting   =     56598.19746502   -55672.08074665
  entropy T*S    EENTRO =        -0.20155816
  eigenvalues    EBANDS =     -2752.91401228
  atomic energy  EATOM  =      9922.40150358
  Solvation  Ediel_sol  =         0.00000000
  ---------------------------------------------------
  free energy    TOTEN  =      -949.46780948 eV

  energy without entropy =     -949.26625132  energy(sigma->0) =     -949.36703040


--------------------------------------------------------------------------------------------------------




--------------------------------------- Iteration      1(   4)  ---------------------------------------


    POTLOK:  cpu time      2.2657: real time      2.2913
    SETDIJ:  cpu time      1.9119: real time      1.9128
    EDDIAG:  cpu time     46.3869: real time     46.4152
     EDDAV:  cpu time    240.9352: real time    241.0808
       DOS:  cpu time      0.0037: real time      0.0037
    CHARGE:  cpu time     26.7188: real time     26.7456
    MIXING:  cpu time      0.0433: real time      0.0433
    --------------------------------------------
      LOOP:  cpu time    318.2655: real time    318.4928

 eigenvalue-minimisations  :  2464
 total energy-change (2. order) : 0.3016745E-01  (-0.2828273E+00)
 number of electron     398.9999999 magnetization 
 augmentation part      -20.6709506 magnetization 

 Broyden mixing:
  rms(total) = 0.19526E+00    rms(broyden)= 0.19526E+00
  rms(prec ) = 0.35789E+00
  weight for this iteration     100.00

 eigenvalues of (default mixing * dielectric matrix)
  average eigenvalue GAMMA=   1.2987
  2.6037  0.9532  0.3391

 Free energy of the ion-electron system (eV)
  ---------------------------------------------------
  alpha Z        PSCENC =        54.78235163
  Ewald energy   TEWEN  =     67887.59167150
  -Hartree energ DENC   =    -76620.18949116
  -exchange      EXHF   =         0.00000000
  -V(xc)+E(xc)   XCENC  =      -367.63223184
  PAW double counting   =     57894.15960258   -56968.04294507
  entropy T*S    EENTRO =        -0.22296768
  eigenvalues    EBANDS =     -2752.28513557
  atomic energy  EATOM  =      9922.40150358
  Solvation  Ediel_sol  =         0.00000000
  ---------------------------------------------------
  free energy    TOTEN  =      -949.43764203 eV

  energy without entropy =     -949.21467435  energy(sigma->0) =     -949.32615819


--------------------------------------------------------------------------------------------------------




--------------------------------------- Iteration      1(   5)  ---------------------------------------


    POTLOK:  cpu time      2.2897: real time      2.2912
    SETDIJ:  cpu time      1.9231: real time      1.9244
    EDDIAG:  cpu time     46.3472: real time     46.3743
     EDDAV:  cpu time    238.3425: real time    238.4743
       DOS:  cpu time      0.0057: real time      0.0057
    CHARGE:  cpu time     26.7472: real time     26.7728
    MIXING:  cpu time      0.0444: real time      0.0444
    --------------------------------------------
      LOOP:  cpu time    315.6999: real time    315.8873

 eigenvalue-minimisations  :  2432
 total energy-change (2. order) : 0.3319845E-01  (-0.9848908E-01)
 number of electron     398.9999999 magnetization 
 augmentation part      -20.6710218 magnetization 

 Broyden mixing:
  rms(total) = 0.76166E-01    rms(broyden)= 0.76166E-01
  rms(prec ) = 0.10763E+00
  weight for this iteration     100.00

 eigenvalues of (default mixing * dielectric matrix)
  average eigenvalue GAMMA=   1.1353
  2.5734  1.0780  0.6138  0.2758

 Free energy of the ion-electron system (eV)
  ---------------------------------------------------
  alpha Z        PSCENC =        54.78235163
  Ewald energy   TEWEN  =     67887.59167150
  -Hartree energ DENC   =    -76623.76755366
  -exchange      EXHF   =         0.00000000
  -V(xc)+E(xc)   XCENC  =      -368.43406605
  PAW double counting   =     57772.13517111   -56845.99309505
  entropy T*S    EENTRO =        -0.20863141
  eigenvalues    EBANDS =     -2747.91179523
  atomic energy  EATOM  =      9922.40150358
  Solvation  Ediel_sol  =         0.00000000
  ---------------------------------------------------
  free energy    TOTEN  =      -949.40444358 eV

  energy without entropy =     -949.19581217  energy(sigma->0) =     -949.30012787


--------------------------------------------------------------------------------------------------------




--------------------------------------- Iteration      1(   6)  ---------------------------------------


    POTLOK:  cpu time      2.2765: real time      2.3041
    SETDIJ:  cpu time      1.9284: real time      1.9294
    EDDIAG:  cpu time     46.4163: real time     46.4421
     EDDAV:  cpu time    225.3280: real time    225.4616
       DOS:  cpu time      0.0052: real time      0.0052
    CHARGE:  cpu time     26.7111: real time     26.7365
    MIXING:  cpu time      0.0456: real time      0.0457
    --------------------------------------------
      LOOP:  cpu time    302.7109: real time    302.9244

 eigenvalue-minimisations  :  2216
 total energy-change (2. order) :-0.1808294E-01  (-0.2438610E-01)
 number of electron     398.9999999 magnetization 
 augmentation part      -20.6717981 magnetization 

 Broyden mixing:
  rms(total) = 0.51086E-01    rms(broyden)= 0.51086E-01
  rms(prec ) = 0.66155E-01
  weight for this iteration     100.00

 eigenvalues of (default mixing * dielectric matrix)
  average eigenvalue GAMMA=   1.0588
  2.5542  1.2521  0.7220  0.3010  0.4646

 Free energy of the ion-electron system (eV)
  ---------------------------------------------------
  alpha Z        PSCENC =        54.78235163
  Ewald energy   TEWEN  =     67887.59167150
  -Hartree energ DENC   =    -76623.61039865
  -exchange      EXHF   =         0.00000000
  -V(xc)+E(xc)   XCENC  =      -368.71706434
  PAW double counting   =     57642.26297845   -56716.10385015
  entropy T*S    EENTRO =        -0.20490567
  eigenvalues    EBANDS =     -2747.82481287
  atomic energy  EATOM  =      9922.40150358
  Solvation  Ediel_sol  =         0.00000000
  ---------------------------------------------------
  free energy    TOTEN  =      -949.42252651 eV

  energy without entropy =     -949.21762085  energy(sigma->0) =     -949.32007368


--------------------------------------------------------------------------------------------------------




--------------------------------------- Iteration      1(   7)  ---------------------------------------


    POTLOK:  cpu time      2.2937: real time      2.3211
    SETDIJ:  cpu time      1.9266: real time      1.9278
    EDDIAG:  cpu time     46.3435: real time     46.3699
     EDDAV:  cpu time    240.6805: real time    240.8163
       DOS:  cpu time      0.0023: real time      0.0024
    CHARGE:  cpu time     26.7641: real time     26.7880
    MIXING:  cpu time      0.0451: real time      0.0452
    --------------------------------------------
      LOOP:  cpu time    318.0559: real time    318.2706

 eigenvalue-minimisations  :  2480
 total energy-change (2. order) : 0.6316117E-02  (-0.3292019E-02)
 number of electron     398.9999999 magnetization 
 augmentation part      -20.6702779 magnetization 

 Broyden mixing:
  rms(total) = 0.31331E-01    rms(broyden)= 0.31331E-01
  rms(prec ) = 0.35013E-01
  weight for this iteration     100.00

 eigenvalues of (default mixing * dielectric matrix)
  average eigenvalue GAMMA=   1.0270
  2.5439  1.3432  0.7644  0.7644  0.2951  0.4511

 Free energy of the ion-electron system (eV)
  ---------------------------------------------------
  alpha Z        PSCENC =        54.78235163
  Ewald energy   TEWEN  =     67887.59167150
  -Hartree energ DENC   =    -76621.15350155
  -exchange      EXHF   =         0.00000000
  -V(xc)+E(xc)   XCENC  =      -368.69581770
  PAW double counting   =     57623.79403042   -56697.62382176
  entropy T*S    EENTRO =        -0.20579053
  eigenvalues    EBANDS =     -2750.30683600
  atomic energy  EATOM  =      9922.40150358
  Solvation  Ediel_sol  =         0.00000000
  ---------------------------------------------------
  free energy    TOTEN  =      -949.41621040 eV

  energy without entropy =     -949.21041987  energy(sigma->0) =     -949.31331513


--------------------------------------------------------------------------------------------------------




--------------------------------------- Iteration      1(   8)  ---------------------------------------


    POTLOK:  cpu time      2.2906: real time      2.2921
    SETDIJ:  cpu time      1.9243: real time      1.9255
    EDDIAG:  cpu time     46.3469: real time     46.3738
     EDDAV:  cpu time    228.4844: real time    228.6155
       DOS:  cpu time      0.0042: real time      0.0042
    CHARGE:  cpu time     26.7887: real time     26.8137
    MIXING:  cpu time      0.0459: real time      0.0459
    --------------------------------------------
      LOOP:  cpu time    305.8850: real time    306.0707

 eigenvalue-minimisations  :  2272
 total energy-change (2. order) :-0.7089488E-03  (-0.1227192E-02)
 number of electron     398.9999999 magnetization 
 augmentation part      -20.6696990 magnetization 

 Broyden mixing:
  rms(total) = 0.24457E-01    rms(broyden)= 0.24457E-01
  rms(prec ) = 0.27935E-01
  weight for this iteration     100.00

 eigenvalues of (default mixing * dielectric matrix)
  average eigenvalue GAMMA=   1.1109
  2.4795  2.1500  0.9168  0.9168  0.6070  0.2959  0.4105

 Free energy of the ion-electron system (eV)
  ---------------------------------------------------
  alpha Z        PSCENC =        54.78235163
  Ewald energy   TEWEN  =     67887.59167150
  -Hartree energ DENC   =    -76620.92105732
  -exchange      EXHF   =         0.00000000
  -V(xc)+E(xc)   XCENC  =      -368.61292163
  PAW double counting   =     57607.80808695   -56681.62963673
  entropy T*S    EENTRO =        -0.20721753
  eigenvalues    EBANDS =     -2750.62969980
  atomic energy  EATOM  =      9922.40150358
  Solvation  Ediel_sol  =         0.00000000
  ---------------------------------------------------
  free energy    TOTEN  =      -949.41691934 eV

  energy without entropy =     -949.20970182  energy(sigma->0) =     -949.31331058


--------------------------------------------------------------------------------------------------------




--------------------------------------- Iteration      1(   9)  ---------------------------------------


    POTLOK:  cpu time      2.2966: real time      2.2982
    SETDIJ:  cpu time      1.9284: real time      1.9296
    EDDIAG:  cpu time     46.4087: real time     46.4370
     EDDAV:  cpu time    226.9095: real time    227.0457
       DOS:  cpu time      0.0050: real time      0.0050
    CHARGE:  cpu time     26.7882: real time     26.8116
    MIXING:  cpu time      0.0460: real time      0.0469
    --------------------------------------------
      LOOP:  cpu time    304.3823: real time    304.5739

 eigenvalue-minimisations  :  2248
 total energy-change (2. order) :-0.1857446E-03  (-0.8347166E-03)
 number of electron     398.9999999 magnetization 
 augmentation part      -20.6673725 magnetization 

 Broyden mixing:
  rms(total) = 0.98166E-02    rms(broyden)= 0.98166E-02
  rms(prec ) = 0.11232E-01
  weight for this iteration     100.00

 eigenvalues of (default mixing * dielectric matrix)
  average eigenvalue GAMMA=   1.1398
  2.5346  2.5346  1.0398  1.0398  0.6360  0.6360  0.2954  0.4016

 Free energy of the ion-electron system (eV)
  ---------------------------------------------------
  alpha Z        PSCENC =        54.78235163
  Ewald energy   TEWEN  =     67887.59167150
  -Hartree energ DENC   =    -76619.27356962
  -exchange      EXHF   =         0.00000000
  -V(xc)+E(xc)   XCENC  =      -368.37130183
  PAW double counting   =     57614.01078936   -56687.81657331
  entropy T*S    EENTRO =        -0.20669408
  eigenvalues    EBANDS =     -2752.53528232
  atomic energy  EATOM  =      9922.40150358
  Solvation  Ediel_sol  =         0.00000000
  ---------------------------------------------------
  free energy    TOTEN  =      -949.41710509 eV

  energy without entropy =     -949.21041101  energy(sigma->0) =     -949.31375805


--------------------------------------------------------------------------------------------------------




--------------------------------------- Iteration      1(  10)  ---------------------------------------


    POTLOK:  cpu time      2.2922: real time      2.2936
    SETDIJ:  cpu time      1.9114: real time      1.9125
    EDDIAG:  cpu time     46.4094: real time     46.4366
     EDDAV:  cpu time    226.1312: real time    226.2675
       DOS:  cpu time      0.0063: real time      0.0063
    CHARGE:  cpu time     26.7659: real time     26.7905
    MIXING:  cpu time      0.0473: real time      0.0474
    --------------------------------------------
      LOOP:  cpu time    303.5637: real time    303.7544

 eigenvalue-minimisations  :  2224
 total energy-change (2. order) :-0.3790844E-03  (-0.3468086E-03)
 number of electron     398.9999999 magnetization 
 augmentation part      -20.6668670 magnetization 

 Broyden mixing:
  rms(total) = 0.35745E-02    rms(broyden)= 0.35744E-02
  rms(prec ) = 0.41804E-02
  weight for this iteration     100.00

 eigenvalues of (default mixing * dielectric matrix)
  average eigenvalue GAMMA=   1.1291
  2.6045  2.6045  1.2069  0.9115  0.9115  0.6143  0.6143  0.2955  0.3992

 Free energy of the ion-electron system (eV)
  ---------------------------------------------------
  alpha Z        PSCENC =        54.78235163
  Ewald energy   TEWEN  =     67887.59167150
  -Hartree energ DENC   =    -76619.00684869
  -exchange      EXHF   =         0.00000000
  -V(xc)+E(xc)   XCENC  =      -368.31100093
  PAW double counting   =     57632.90650249   -56706.70419256
  entropy T*S    EENTRO =        -0.20726346
  eigenvalues    EBANDS =     -2752.87020774
  atomic energy  EATOM  =      9922.40150358
  Solvation  Ediel_sol  =         0.00000000
  ---------------------------------------------------
  free energy    TOTEN  =      -949.41748417 eV

  energy without entropy =     -949.21022072  energy(sigma->0) =     -949.31385244


--------------------------------------------------------------------------------------------------------




--------------------------------------- Iteration      1(  11)  ---------------------------------------


    POTLOK:  cpu time      2.2805: real time      2.2998
    SETDIJ:  cpu time      1.9140: real time      1.9150
    EDDIAG:  cpu time     46.3527: real time     46.3811
     EDDAV:  cpu time    227.0484: real time    227.1734
       DOS:  cpu time      0.0023: real time      0.0023
    CHARGE:  cpu time     26.7767: real time     26.8007
    MIXING:  cpu time      0.0492: real time      0.0493
    --------------------------------------------
      LOOP:  cpu time    304.4239: real time    304.6215

 eigenvalue-minimisations  :  2248
 total energy-change (2. order) :-0.5301135E-04  (-0.9127362E-04)
 number of electron     398.9999999 magnetization 
 augmentation part      -20.6669545 magnetization 

 Broyden mixing:
  rms(total) = 0.19503E-02    rms(broyden)= 0.19503E-02
  rms(prec ) = 0.23248E-02
  weight for this iteration     100.00

 eigenvalues of (default mixing * dielectric matrix)
  average eigenvalue GAMMA=   1.1383
  2.6576  2.6576  1.4376  1.0300  0.8631  0.8631  0.2955  0.5895  0.5895  0.4000

 Free energy of the ion-electron system (eV)
  ---------------------------------------------------
  alpha Z        PSCENC =        54.78235163
  Ewald energy   TEWEN  =     67887.59167150
  -Hartree energ DENC   =    -76618.68675688
  -exchange      EXHF   =         0.00000000
  -V(xc)+E(xc)   XCENC  =      -368.31943814
  PAW double counting   =     57631.13755154   -56704.93181289
  entropy T*S    EENTRO =        -0.20691194
  eigenvalues    EBANDS =     -2753.18569559
  atomic energy  EATOM  =      9922.40150358
  Solvation  Ediel_sol  =         0.00000000
  ---------------------------------------------------
  free energy    TOTEN  =      -949.41753718 eV

  energy without entropy =     -949.21062524  energy(sigma->0) =     -949.31408121


--------------------------------------------------------------------------------------------------------




--------------------------------------- Iteration      1(  12)  ---------------------------------------


    POTLOK:  cpu time      2.2966: real time      2.2980
    SETDIJ:  cpu time      1.9284: real time      1.9298
    EDDIAG:  cpu time     46.3624: real time     46.3907
     EDDAV:  cpu time    229.8725: real time    230.0136
       DOS:  cpu time      0.0040: real time      0.0041
    CHARGE:  cpu time     26.7820: real time     26.8061
    MIXING:  cpu time      0.0490: real time      0.0490
    --------------------------------------------
      LOOP:  cpu time    307.2949: real time    307.4912

 eigenvalue-minimisations  :  2288
 total energy-change (2. order) :-0.5298908E-04  (-0.3462487E-04)
 number of electron     398.9999999 magnetization 
 augmentation part      -20.6670668 magnetization 

 Broyden mixing:
  rms(total) = 0.12048E-02    rms(broyden)= 0.12048E-02
  rms(prec ) = 0.14887E-02
  weight for this iteration     100.00

 eigenvalues of (default mixing * dielectric matrix)
  average eigenvalue GAMMA=   1.1791
  2.8022  2.8022  1.8237  1.2033  0.8761  0.8761  0.2955  0.7414  0.3994  0.5750
  0.5750

 Free energy of the ion-electron system (eV)
  ---------------------------------------------------
  alpha Z        PSCENC =        54.78235163
  Ewald energy   TEWEN  =     67887.59167150
  -Hartree energ DENC   =    -76618.43371260
  -exchange      EXHF   =         0.00000000
  -V(xc)+E(xc)   XCENC  =      -368.32891356
  PAW double counting   =     57626.45885515   -56700.25166577
  entropy T*S    EENTRO =        -0.20699846
  eigenvalues    EBANDS =     -2753.43068165
  atomic energy  EATOM  =      9922.40150358
  Solvation  Ediel_sol  =         0.00000000
  ---------------------------------------------------
  free energy    TOTEN  =      -949.41759017 eV

  energy without entropy =     -949.21059172  energy(sigma->0) =     -949.31409095


--------------------------------------------------------------------------------------------------------




--------------------------------------- Iteration      1(  13)  ---------------------------------------


    POTLOK:  cpu time      2.2655: real time      2.2934
    SETDIJ:  cpu time      1.9239: real time      1.9251
    EDDIAG:  cpu time     46.3906: real time     46.4168
     EDDAV:  cpu time    224.9844: real time    225.1129
       DOS:  cpu time      0.0095: real time      0.0099
    CHARGE:  cpu time     26.7556: real time     26.8254
    MIXING:  cpu time      0.0653: real time      0.0655
    --------------------------------------------
      LOOP:  cpu time    302.3948: real time    302.6492

 eigenvalue-minimisations  :  2200
 total energy-change (2. order) :-0.1070569E-03  (-0.3652638E-04)
 number of electron     398.9999999 magnetization 
 augmentation part      -20.6671572 magnetization 

 Broyden mixing:
  rms(total) = 0.63464E-03    rms(broyden)= 0.63464E-03
  rms(prec ) = 0.93860E-03
  weight for this iteration     100.00

 eigenvalues of (default mixing * dielectric matrix)
  average eigenvalue GAMMA=   1.2052
  2.8374  2.8374  2.0939  1.3458  0.9747  0.9747  0.7862  0.7862  0.2955  0.3995
  0.5658  0.5658

 Free energy of the ion-electron system (eV)
  ---------------------------------------------------
  alpha Z        PSCENC =        54.78235163
  Ewald energy   TEWEN  =     67887.59167150
  -Hartree energ DENC   =    -76618.02008114
  -exchange      EXHF   =         0.00000000
  -V(xc)+E(xc)   XCENC  =      -368.33490207
  PAW double counting   =     57622.03858550   -56695.83011029
  entropy T*S    EENTRO =        -0.20695989
  eigenvalues    EBANDS =     -2753.83975605
  atomic energy  EATOM  =      9922.40150358
  Solvation  Ediel_sol  =         0.00000000
  ---------------------------------------------------
  free energy    TOTEN  =      -949.41769723 eV

  energy without entropy =     -949.21073734  energy(sigma->0) =     -949.31421728


[...]
   0.449E+01 -.240E+02 -.382E+03   -.563E+01 0.261E+02 0.385E+03   0.179E+01 -.140E+01 -.274E+01   -.222E-04 0.409E-04 0.653E-04
   -.364E+01 -.888E+01 0.744E+02   0.304E+01 0.801E+01 -.753E+02   0.519E+00 0.604E+00 0.179E+01   -.321E-04 0.320E-04 -.163E-04
   0.131E+02 0.480E+01 0.131E+02   -.114E+02 -.194E+01 -.144E+02   -.191E+01 -.423E+01 0.130E+01   -.810E-05 -.111E-04 -.131E-04
   0.161E+02 0.112E+02 0.298E+03   -.155E+02 -.112E+02 -.300E+03   -.622E+00 -.881E+00 0.980E+00   0.165E-04 0.189E-04 -.387E-04
   -.660E+01 0.789E+01 0.217E+02   0.745E+01 -.809E+01 -.197E+02   -.155E+01 -.618E+00 -.679E+00   0.217E-04 0.130E-04 -.230E-04
   -.398E+01 0.130E+02 -.976E+02   0.306E+01 -.141E+02 0.977E+02   0.538E+00 0.848E+00 -.597E+00   -.881E-05 0.244E-04 0.222E-06
   0.613E+01 0.212E+02 -.443E+02   -.544E+01 -.196E+02 0.456E+02   -.152E+01 -.110E+01 -.182E+01   0.593E-05 -.846E-05 -.318E-05
   -.398E+02 0.334E+02 0.328E+03   0.381E+02 -.295E+02 -.328E+03   0.105E+01 -.379E+01 -.333E+00   0.393E-04 -.190E-04 -.589E-04
   -.114E+02 -.141E+01 -.206E+03   0.126E+02 0.221E+01 0.206E+03   -.112E+01 0.428E+00 -.119E+01   0.249E-04 0.517E-05 -.269E-05
   -.179E+02 0.128E+02 -.277E+03   0.180E+02 -.123E+02 0.273E+03   -.799E-01 0.149E+00 0.393E+01   -.940E-05 -.104E-04 0.241E-04
   -.169E+01 -.145E+02 0.126E+03   0.297E+00 0.158E+02 -.125E+03   0.117E+01 -.410E+00 -.147E+01   0.252E-04 0.634E-05 -.347E-04
   -.318E+02 0.341E+02 0.306E+03   0.299E+02 -.326E+02 -.307E+03   0.234E+01 -.292E+01 0.669E+00   0.130E-04 0.557E-06 -.439E-04
   0.306E+01 0.246E+02 -.275E+03   -.480E+01 -.226E+02 0.273E+03   0.215E+01 -.266E+01 0.314E+01   -.327E-04 0.149E-04 0.105E-04
   -.344E+01 -.154E+01 -.470E+02   0.338E+01 0.945E+00 0.464E+02   0.157E+00 0.280E+01 0.301E+00   0.922E-07 0.780E-05 -.154E-04
   0.115E+02 0.130E+01 -.378E+03   -.109E+02 -.221E+01 0.383E+03   -.826E+00 0.133E+01 -.492E+01   0.290E-05 -.103E-04 0.539E-04
 -----------------------------------------------------------------------------------------------
   -.237E+02 -.486E+01 -.113E+02   -.240E-12 0.208E-12 -.119E-11   0.237E+02 0.486E+01 0.113E+02   -.196E-04 0.180E-03 -.196E-02


 POSITION                                       TOTAL-FORCE (eV/Angst)
 -----------------------------------------------------------------------------------
      6.51864      8.13388     13.91139         0.117264      0.148279     -0.506756
      2.95744     12.95610     14.86322         0.248369     -0.389020      0.015629
     13.25270      7.21824     14.56777         0.089657     -0.297871     -0.295171
      1.95011     11.32950     17.86663        -0.535162     -0.202487     -1.288948
      4.66648     13.94010     10.22113         0.285671     -0.033109      0.456571
      4.42884     11.28400     13.30084         0.367336     -0.257539      0.234320
      3.38467      7.83281     13.01911         1.740637     -0.827504      0.582971
      3.41766      9.13375     17.62411         0.317930      0.252707     -0.127951
      3.68322     11.25610     19.01464         0.048928     -0.192075      0.380288
      5.08711      9.30871     14.64264        -0.594513      0.261525      0.995310
      1.74597     13.33460     13.06199        -0.241961      0.272204      0.281993
      1.71674      8.44103     17.02555        -0.469870      0.642414     -0.661343
      4.68853      9.48113     15.29077         0.489941     -0.160765     -0.844607
      5.61138      8.55548     10.31442         0.085638     -0.202453     -0.277902
      3.81098     12.05500     11.59976        -1.040349      0.149025      1.005463
      2.77627      8.14407     12.89112        -1.953108      1.073822     -0.184636
      2.76827      9.88194     14.55362         0.208302     -0.046691      0.361170
      4.01666     11.57280     16.35222         0.332864     -0.199750      0.306733
      1.70913     12.08680     11.76387        -0.052682     -0.184106      0.072966
      3.70776      9.94423     11.80221        -0.378005     -0.395864     -1.140464
      3.72040      9.65058     17.15690        -0.122788     -0.346053      0.429773
      1.86338     11.77490     13.63631         0.184575      0.770501     -0.763589
      3.35286     11.98250     12.24250         0.973599      0.470461     -1.487513
      1.32414      8.87183     16.48665         0.666976     -0.650947      0.822441
      3.23561      7.94615     15.62386        -0.343581      0.879772     -0.149603
      1.35928     12.18100     11.13013        -0.478312     -0.012569     -0.684696
      3.11304     11.69710     18.79965         0.114567     -0.287892      0.265468
      4.07644      2.71259     16.47231         0.787675     -1.215529      2.092088
     10.07840      2.38927     18.20650         0.336155     -0.903073     -0.422967
      8.70735      4.33263     15.87330         0.934821      0.178618      0.335855
      6.70145     11.92410     15.27315         0.670877      1.291145      0.438186
     12.10850      1.39023     11.77590        -0.116972     -0.441617     -0.952404
      7.50139      8.61031     16.95527        -1.001912      0.755582     -0.205477
     10.75160      8.02207     16.29702         1.791425     -0.264058     -0.152277
      9.10181     13.45490     11.38919        -1.761502     -0.236521     -1.045470
      0.50787     14.06340     13.46213         0.032035      0.904267     -0.800139
      3.44619      5.47634     13.92076         0.384397      1.108673     -0.010648
     10.41980      2.85812     11.39173        -0.208395      0.101494     -0.154463
      7.31786      3.06041     12.29201        -0.605953      0.777254      0.262707
      0.39476      6.04330     11.49546         0.877171      0.680940     -0.030732
      3.25267     14.38880     14.82901        -0.127262      0.611495      0.434190
      2.87579      2.41778     12.34369        -0.391390     -0.402387      0.125157
     10.42460      6.70842     10.35092        -1.393126     -0.496649      0.224136
     14.17290      8.21211     11.75896        -0.610088      0.388570      0.056632
      0.16611      7.36314     14.92919        -0.241573     -0.718059     -1.026695
      5.98880      3.49489     17.60991        -0.478281      1.271128     -0.215967
      5.33172     11.84530     17.07706        -0.653612     -0.763727      0.456325
      9.46760     13.68870     16.80980         0.328231     -0.347120      1.851033
      3.71759      3.35358     14.42869         0.151121     -0.546667     -1.919114
      0.28773      4.27410     17.32541         0.331096     -0.497257      0.119174
     14.31810      8.16429     18.61155         0.337495     -0.534523      0.805629
     14.43820      9.35501     13.89728         0.808258      0.578833     -0.575491
     14.16230      2.44899     16.00741         0.827345      0.312298     -1.177931
      2.41878      3.66874     17.71940        -0.168459      0.803213      0.247330
     12.72560     14.55090     10.00000         0.501424      0.326229     -0.547647
      3.93515      3.72257     10.72238         0.678935      0.221057     -0.075274
      0.78807      9.36538     10.19434         0.940198      0.120672     -0.429864
     13.09770     12.80150     13.50328         0.154485      0.460224     -0.767419
      6.83967      1.38915     10.94123        -0.169432     -0.990091     -0.874620
      9.10795      9.49812     13.75817        -0.368579      1.253458     -0.521667
      1.61401     10.79050     14.61109        -0.442800     -1.526421      0.277089
      5.89846     11.13760     13.37319        -0.021848     -0.761394     -1.135809
      4.69178      5.75340     11.93864        -1.198646     -0.343708     -0.420850
      6.44771      5.76521     17.78955         0.048599     -1.384688      0.844458
      7.04526      9.16435     12.83843        -0.811416     -0.424390     -0.085214
      1.04948      0.53682     15.46112        -0.017833      0.703536      0.265526
      8.40246     14.42970     18.94586         0.200873      0.523788     -0.801407
      4.30520      0.70162     12.97802        -0.484919     -0.014258      0.024748
     14.18800      6.53244     16.94372         0.237508     -0.527787      1.242874
      3.14789      9.30489     10.47013        -0.521463      0.032217      1.431072
     11.74580      8.20666     11.48388         1.332429      0.204342      0.508409
     13.86910      2.69703     12.10009         0.391737      0.328540     -0.284999
      3.93840      6.71137     15.80491         0.584768     -0.704159     -0.290029
      0.60696     13.85810     17.36227         0.228998     -0.832594     -0.878021
      9.17613      2.30990     13.23066         0.583160     -1.016728     -0.164170
      4.66898     13.73260     18.25079         0.080357      0.915136     -0.465616
     14.31820      3.81970     14.01026        -0.414860     -0.160293      1.119471
     13.14720     14.07970     18.36859        -0.664375     -1.212312      0.415479
      7.79189      5.89463     14.42742         0.023992      0.304345      0.232483
      8.31974     10.45950     15.74347         1.201482     -0.524881      0.714204
      8.93139      5.61352     17.94822        -0.914168      1.277394     -0.117288
     12.04190      1.58413     15.44336         0.634290     -0.570727      0.081935
     13.92370     10.31200     17.80318        -0.933309     -0.401225     -1.232045
     11.00110      4.69745     17.89660        -1.287845     -2.091861      1.137696
      5.47867     14.07340     11.50823        -0.150695      0.218448     -1.773885
     12.01960     10.19960     16.24018        -0.822709     -0.481131      1.376458
      6.90171      5.29578     12.32789         0.706483      0.301979     -0.412755
      9.37169      7.94209     18.02767        -0.464495     -0.534298      1.027890
      0.91333     11.56800     16.71103         1.131762      0.393439      1.173451
     10.94910     10.09280     12.47838        -0.948052      0.316147      0.269915
     13.44480      4.54186     10.87201         0.131017      0.110758     -0.393878
      4.88962      0.48088     16.30545        -0.659617      0.232101      1.350673
     12.78680     11.80110     19.10063        -1.358739      1.277853     -0.199575
      7.11821      8.53047     10.56260        -0.168004      0.768797      0.464286
     11.71320      0.15803     13.58895        -0.213774     -0.903782      1.236049
      1.15715      5.59489     13.65448        -0.076821      0.770252     -0.307955
      6.26147      6.97214     15.82031         0.087213      0.276370      0.121560
     12.52820     10.62230     14.06964         0.304021      0.389988      0.169742
      3.68714      7.08780     10.15651        -0.021416     -0.592745     -0.164469
     10.08970     11.47240     16.96931         0.193026     -0.651243     -0.141727
     10.57780     11.81350     11.00991         1.516479      0.123062     -0.099298
      9.36859     14.51540     13.34369         0.669222      0.643793      0.350836
      6.96975     12.37050     11.76334         0.657884      0.389637     -0.280994
      3.16355      5.90293     17.81843        -0.033875     -0.246413      0.572880
      8.05359      6.44002     10.67278         0.821057      0.819156     -0.182864
      2.42194     14.30450     18.77067         0.811799      0.555581      0.205455
      5.75710      2.30655     13.75650        -0.070363     -0.311881      0.963154
      9.56942      7.46382     14.40688        -0.266959     -1.581561      0.045238
     11.30360      4.97253     11.50053        -0.057097     -0.943991     -0.995818
     12.26020      4.87618     14.19567        -0.842801     -0.803431      1.263279
      6.93880      1.17655     15.49561        -0.393699     -0.266810     -0.472265
      8.09022     13.77210     15.07573        -0.886704      0.461955     -0.622881
     12.81130     12.57780     11.15188        -0.744301      0.079390      0.053797
     12.05640      5.93197     16.38515         0.040788      1.234250     -0.949321
     11.30060      0.40508     17.23785         0.033647      0.678213      1.054757
     11.28000      6.64974     13.17200        -0.178140      0.777420     -0.552759
      0.90601      1.26190     11.71883         0.466662     -1.434045      0.073367
      7.94801      2.50542     17.06204         0.474465     -0.730104      0.625400
     10.53800      3.14675     14.86664         0.095946      2.340676     -0.330752
      6.34900     10.02580     18.46574        -0.256446      0.508412     -0.277073
 -----------------------------------------------------------------------------------
    total drift:                                0.017767     -0.000877     -0.000569


--------------------------------------------------------------------------------------------------------



  FREE ENERGIE OF THE ION-ELECTRON SYSTEM (eV)
  ---------------------------------------------------
  free  energy   TOTEN  =      -949.41835603 eV

  energy  without entropy=     -949.21140474  energy(sigma->0) =     -949.31488038



--------------------------------------------------------------------------------------------------------


    POTLOK:  cpu time      4.1726: real time      4.1756


--------------------------------------------------------------------------------------------------------


     LOOP+:  cpu time   7457.3203: real time   7462.4946
    4ORBIT:  cpu time      0.0000: real time      0.0000



 total charge

# of ion       s       p       d       tot
------------------------------------------
    1        0.548   0.015   0.000   0.562
    2        0.583   0.018   0.000   0.601
    3        0.558   0.018   0.000   0.576
    4        0.542   0.015   0.000   0.557
    5        0.549   0.014   0.000   0.562
    6        0.572   0.019   0.000   0.590
    7        0.651   0.044   0.000   0.695
    8        0.604   0.031   0.000   0.635
    9        0.610   0.032   0.000   0.643
   10        0.593   0.031   0.000   0.624
   11        0.576   0.019   0.000   0.595
   12        0.576   0.029   0.000   0.605
   13        0.589   0.029   0.000   0.619
   14        0.544   0.017   0.000   0.561
   15        0.587   0.028   0.000   0.614
   16        0.652   0.043   0.000   0.694
   17        0.578   0.017   0.000   0.594
   18        0.555   0.015   0.000   0.569
   19        0.624   0.038   0.000   0.662
   20        0.527   0.013   0.000   0.540
   21        0.601   0.032   0.000   0.633
   22        0.613   0.023   0.000   0.636
   23        0.584   0.029   0.000   0.614
   24        0.583   0.030   0.000   0.613
   25        0.598   0.019   0.000   0.617
   26        0.628   0.035   0.000   0.663
   27        0.606   0.036   0.000   0.642
   28        0.763   0.960   0.000   1.723
   29        0.811   0.755   0.000   1.566
   30        0.791   0.872   0.000   1.663
   31        0.763   1.036   0.000   1.799
   32        0.766   1.020   0.000   1.785
   33        0.764   0.950   0.000   1.713
   34        0.764   0.922   0.000   1.686
   35        0.782   0.881   0.000   1.663
   36        0.754   0.936   0.000   1.689
   37        0.758   1.000   0.000   1.758
   38        0.802   0.902   0.000   1.704
   39        0.767   1.018   0.000   1.785
   40        0.773   0.908   0.000   1.682
   41        0.756   0.965   0.000   1.721
   42        0.774   0.916   0.000   1.690
   43        0.808   0.853   0.000   1.660
   44        0.766   0.899   0.000   1.665
   45        0.771   0.974   0.000   1.745
   46        0.797   0.869   0.000   1.666
   47        0.756   0.954   0.000   1.711
   48        0.759   0.981   0.000   1.740
   49        0.776   0.979   0.000   1.755
   50        0.785   0.860   0.000   1.645
   51        0.866   0.739   0.000   1.605
   52        0.759   0.949   0.000   1.709
   53        0.756   0.893   0.000   1.649
   54        0.785   0.892   0.000   1.678
   55        0.872   0.742   0.000   1.614
   56        0.868   0.707   0.000   1.575
   57        0.851   0.747   0.000   1.598
   58        0.755   0.930   0.000   1.686
   59        0.844   0.766   0.000   1.610
   60        0.757   1.019   0.000   1.775
   61        0.746   1.033   0.000   1.779
   62        0.754   1.015   0.000   1.769
   63        0.761   0.914   0.000   1.674
   64        0.800   0.835   0.000   1.635
   65        0.761   0.941   0.000   1.702
   66        0.750   0.922   0.000   1.672
   67        0.924   0.572   0.000   1.496
   68        0.765   0.988   0.000   1.753
   69        0.762   0.954   0.000   1.717
   70        0.781   0.867   0.000   1.648
   71        0.763   0.939   0.000   1.701
   72        0.767   1.043   0.000   1.810
   73        0.751   1.009   0.000   1.760
   74        0.761   0.939   0.000   1.700
   75        0.767   0.990   0.000   1.758
   76        0.790   0.858   0.000   1.648
   77        0.775   0.940   0.000   1.715
   78        0.774   0.887   0.000   1.661
   79        0.767   0.932   0.000   1.699
   80        0.763   0.964   0.000   1.727
   81        0.772   0.893   0.000   1.665
   82        0.764   0.964   0.000   1.728
   83        0.765   0.955   0.000   1.720
   84        0.802   0.859   0.000   1.661
   85        0.757   0.973   0.000   1.730
   86        0.763   0.878   0.000   1.641
   87        0.763   0.943   0.000   1.706
   88        0.806   0.912   0.000   1.718
   89        0.751   0.952   0.000   1.702
   90        0.755   0.977   0.000   1.732
   91        0.794   0.930   0.000   1.724
   92        0.765   0.947   0.000   1.712
   93        0.845   0.749   0.000   1.594
   94        0.785   0.887   0.000   1.672
   95        0.765   0.946   0.000   1.711
   96        0.756   0.948   0.000   1.704
   97        0.764   0.929   0.000   1.693
   98        0.757   0.979   0.000   1.735
   99        0.857   0.719   0.000   1.577
  100        0.785   0.840   0.000   1.625
  101        0.784   0.896   0.000   1.680
  102        0.762   0.953   0.000   1.714
  103        0.793   0.876   0.000   1.669
  104        0.837   0.769   0.000   1.606
  105        0.783   0.868   0.000   1.651
  106        0.860   0.731   0.000   1.591
  107        0.774   0.942   0.000   1.717
  108        0.760   1.010   0.000   1.770
  109        0.771   0.950   0.000   1.721
  110        0.779   0.887   0.000   1.667
  111        0.763   0.959   0.000   1.721
  112        0.760   0.998   0.000   1.757
  113        0.796   0.867   0.000   1.663
  114        0.779   0.928   0.000   1.707
  115        0.756   0.927   0.000   1.682
  116        0.778   0.939   0.000   1.717
  117        0.802   0.866   0.000   1.668
  118        0.756   0.958   0.000   1.714
  119        0.768   0.921   0.000   1.690
  120        0.888   0.681   0.000   1.569
--------------------------------------------------
tot         88.555  85.130   0.000 173.685


 total amount of memory used by VASP MPI-rank0   398243. kBytes
=======================================================================

   base                                    :      30000. kBytes
   nonl-proj                               :      88641. kBytes
   fftplans                                :     114281. kBytes
   grid                                    :      88184. kBytes
   one-center                              :         24. kBytes
   wavefun                                 :      77113. kBytes

  
  
 General timing and accounting informations for this job:
 ========================================================
  
                  Total CPU time used (sec):     7621.328
                            User time (sec):     6806.101
                          System time (sec):      815.226
                         Elapsed time (sec):     7628.477
  
                   Maximum memory used (kb):      661096.
                   Average memory used (kb):          N/A
  
                          Minor page faults:      7531173
                          Major page faults:         1166
                 Voluntary context switches:         2573
