ITEM: TIMESTEP
205455
ITEM: NUMBER OF ATOMS
10500
ITEM: BOX BOUNDS pp pp pp
-5.4307216083696852e-01 5.8464255767013682e+01
-5.4307216083696852e-01 5.8464255767013682e+01
-5.4307216083696852e-01 6.8702114703891851e+01
ITEM: ATOMS id type xs ys zs
1 2 0.230584 0.544986 0.49741
2 2 0.277735 0.891625 0.825626
3 2 0.0864721 0.343838 0.256105
4 2 0.19253 0.490643 0.309884
5 2 0.201064 0.391869 0.84202
6 2 0.0347424 0.140251 0.766851
7 2 0.0202828 0.112211 0.228773
8 2 0.483395 0.983149 0.903491
9 2 0.233292 0.460194 0.356422
10 2 0.323769 0.395679 0.81251
11 2 0.388727 0.0592557 0.829
12 2 0.445703 0.308908 0.438382
13 2 0.0291903 0.0513897 0.512011
14 2 0.324472 0.106346 0.546506
15 2 0.310433 0.328302 0.83957
16 2 0.360238 0.167828 0.343072
17 2 0.194881 0.205423 0.0799531
18 2 0.227784 0.500615 0.407309
19 2 0.105664 0.673899 0.350737
20 2 0.0492343 0.886327 0.907176
21 2 0.197098 0.16871 0.318366
22 2 0.331196 0.0300763 0.366212
23 2 0.971265 0.292036 0.341501
24 2 0.670819 0.573302 0.245527
25 2 0.961512 0.432705 0.375904
26 2 0.592715 0.668423 0.914456
27 2 0.250983 0.925401 0.532565
28 2 0.290292 0.915843 0.94863
29 2 0.313591 0.901657 0.213351
30 2 0.453448 0.92923 0.281958
31 2 0.851078 0.452949 0.324862
32 2 0.0676774 0.581257 0.418492
33 2 0.0469622 0.759847 0.712948
34 2 0.0521404 0.656357 0.281544
35 2 0.366807 0.256186 0.629539
36 2 0.909882 0.0633356 0.300231
37 2 0.516418 0.416774 0.299777
38 2 0.562254 0.460846 0.142953
39 2 0.698036 0.533012 0.274999
40 2 0.150993 0.00560925 0.133837
41 2 0.843294 0.303284 0.153806
42 2 0.335737 0.934972 0.218199
43 2 0.118888 0.247163 0.118317
44 2 0.208039 0.386367 0.183265
45 2 0.146928 0.796118 0.727429
46 2 0.447768 0.269289 0.800332
47 2 0.0781044 0.16492 0.794644
48 2 0.74134 0.0879078 0.989741
49 2 0.974156 0.141279 0.496695
50 2 0.0459562 0.819453 0.233171
51 2 0.763181 0.226 0.292942
52 2 0.00668839 0.148624 0.0953833
53 2 0.178683 0.203477 0.383108
54 2 0.211971 0.149242 0.454222
55 2 0.982984 0.133239 0.190496
56 2 0.365289 0.480027 0.876087
57 2 0.868618 0.321055 0.305388
58 2 0.292231 0.207895 0.847547
59 2 0.251925 0.73132 0.338584
60 2 0.958417 0.677916 0.813932
61 2 0.17362 0.915032 0.89068
62 2 0.403478 0.367911 0.253573
63 2 0.259482 0.475705 0.405921
64 2 0.0702721 0.223467 0.282464
65 2 0.45861 0.00256616 0.182576
66 2 0.772746 0.588831 0.308593
67 2 0.066511 0.96086 0.221417
68 2 0.370251 0.995646 0.450686
69 2 0.179314 0.259276 0.0769191
70 2 0.188939 0.811534 0.15663
71 2 0.412208 0.437715 0.645358
72 2 0.259736 0.722816 0.370533
73 2 0.121418 0.552293 0.31826
74 2 0.249996 0.708586 0.85261
75 2 0.127881 0.840653 0.353523
76 2 0.58827 0.462346 0.216425
77 2 0.820284 0.284292 0.368214
78 2 0.209052 0.369977 0.789812
79 2 0.959709 0.88689 0.307586
80 2 0.684487 0.129576 0.2368
81 2 0.65371 0.450194 0.209156
82 2 0.362296 0.498453 0.706409
83 2 0.400914 0.360275 0.467679
84 2 0.264521 0.240855 0.162067
85 2 0.257618 0.0424506 0.14396
86 2 0.202548 0.938383 0.237565
87 2 0.258726 0.778565 0.460454
88 2 0.0576411 0.810983 0.103188
89 2 0.179043 0.946668 0.473786
90 2 0.0130282 0.00157153 0.224609
91 2 0.339276 0.340629 0.381834
92 2 0.401761 0.262087 0.447714
93 2 0.50998 0.809245 0.25486
94 2 0.816856 0.0705413 0.983831
95 2 0.308978 0.441779 0.323496
96 2 0.197135 0.590422 0.278084
97 2 0.140854 0.68817 0.226132
98 2 0.278179 0.53377 0.446947
99 2 0.225613 0.0618209 0.131968
100 2 0.0324209 0.0244243 0.646854
101 2 0.0657289 0.410207 0.0987179
102 2 0.531248 0.135201 0.21363
103 2 0.888441 0.923449 0.291702
104 2 0.543851 0.49036 0.363461
105 2 0.16723 0.251403 0.268925
106 2 0.0057616 0.221156 0.384506
107 2 0.519128 0.457753 0.408864
108 2 0.949336 0.962642 0.8378
109 2 0.138084 0.854569 0.305918
110 2 0.208017 0.651602 0.00665361
111 2 0.679451 0.269287 0.224586
112 2 0.702921 0.379437 0.134043
113 2 0.788797 0.570806 0.105388
114 2 0.623103 0.425586 0.263399
115 2 0.524467 0.615007 0.931271
116 2 0.238585 0.346712 0.807601
117 2 0.290478 0.238122 0.268829
118 2 0.0896702 0.189799 0.27362
119 2 0.362588 0.392921 0.293045
120 2 0.415491 0.24085 0.129936
121 2 0.911929 0.429122 0.178743
122 2 0.283992 0.378189 0.136213
123 2 0.0693323 0.523133 0.777401
124 2 0.268058 0.335088 0.388698
125 2 0.0958346 0.56696 0.998192
126 2 0.998083 0.00684365 0.7486
127 2 0.649467 0.186278 0.189625
128 2 0.0718507 0.844976 0.148847
129 2 0.195963 0.400031 0.80964
130 2 0.986209 0.0604988 0.558962
131 2 0.24146 0.897965 0.812744
132 2 0.389797 0.478431 0.150136
133 2 0.389609 0.575896 0.517821
134 2 0.707714 0.366342 0.333458
135 2 0.531317 0.482797 0.564898
136 2 0.359132 0.715213 0.283158
137 2 0.40287 0.541629 0.153248
138 2 0.178151 0.477825 0.339448
139 2 0.518723 0.508004 0.88057
140 2 0.0747639 0.205315 0.34942
141 2 0.463949 0.243293 0.470557
142 2 0.0602775 0.0395492 0.36735
143 2 0.467675 0.130802 0.379065
144 2 0.333599 0.977363 0.321569
145 2 0.181733 0.37822 0.318339
146 2 0.496364 0.776512 0.430606
147 2 0.312315 0.244312 0.418854
148 2 0.403118 0.618363 0.146171
149 2 0.55919 0.33621 0.366867
150 2 0.036762 0.313209 0.772945
151 2 0.514005 0.198869 0.500777
152 2 0.406398 0.0787401 0.804446
153 2 0.315438 0.383385 0.333101
154 2 0.362866 0.517569 0.111322
155 2 0.235966 0.575775 0.334636
156 2 0.323702 0.200346 0.388596
157 2 0.240159 0.539033 0.449771
158 2 0.177602 0.271963 0.424398
159 2 0.449614 0.166198 0.386087
160 2 0.625326 0.120957 0.290131
161 2 0.0334195 0.941279 0.532543
162 2 0.422519 0.383999 0.100593
163 2 0.488268 0.892762 0.317524
164 2 0.00649282 0.801546 0.083661
165 2 0.0379555 0.203838 0.0127124
166 2 0.142034 0.369084 0.322226
167 2 0.207239 0.549496 0.336546
168 2 0.0480477 0.378984 0.523634
169 2 0.584994 0.108949 0.220873
170 2 0.422307 0.940295 0.988661
171 2 0.311295 0.495747 0.202896
172 2 0.965018 0.886017 0.382652
173 2 0.106593 0.0428387 0.562261
174 2 0.264578 0.503554 0.590582
175 2 0.256464 0.798963 0.184622
176 2 0.153941 0.192171 0.12844
177 2 0.120932 0.140372 0.231161
178 2 0.206804 0.394502 0.443867
179 2 0.134386 0.244007 0.882714
180 2 0.157476 0.130999 0.184915
181 2 0.275697 0.87963 0.444868
182 2 0.62016 0.373582 0.869782
183 2 0.115368 0.249395 0.37657
184 2 0.248978 0.189783 0.133156
185 2 0.309566 0.250387 0.21695
186 2 0.370329 0.150754 0.273962
187 2 0.210381 0.370264 0.342014
188 2 0.941942 0.116693 0.503533
189 2 0.209766 0.149433 0.103993
190 2 0.277463 0.472208 0.242162
191 2 0.289128 0.618565 0.840324
192 2 0.0509093 0.115067 0.380195
193 2 0.286219 0.311616 0.271552
194 2 0.333515 0.151951 0.472229
195 2 0.0847254 0.944122 0.411271
196 2 0.902928 0.438055 0.232316
197 2 0.307991 0.393171 0.862944
198 2 0.40532 0.256523 0.15947
199 2 0.065933 0.494131 0.180703
200 2 0.916002 0.918628 0.446551
201 2 0.14854 0.768999 0.444932
202 2 0.196075 0.203421 0.244268
203 2 0.546582 0.287961 0.4765
204 2 0.388334 0.0924599 0.497032
205 2 0.179267 0.347102 0.491928
206 2 0.112711 0.958018 0.53634
207 2 0.106046 0.216978 0.226355
208 2 0.21761 0.967206 0.217699
209 2 0.985235 0.717074 0.221444
210 2 0.258447 0.124974 0.372494
211 2 0.116167 0.473576 0.335993
212 2 0.293056 0.510705 0.646688
213 2 0.352973 0.268661 0.506617
214 2 0.418653 0.218906 0.560324
215 2 0.538981 0.700137 0.390451
216 2 0.48777 0.678386 0.430591
217 2 0.344952 0.513508 0.193241
218 2 0.242604 0.20661 0.504061
219 2 0.23601 0.10007 0.128843
220 2 0.992429 0.0744161 0.29088
221 2 0.405385 0.307343 0.361527
222 2 0.379082 0.93796 0.181832
223 2 0.975695 0.473307 0.0700305
224 2 0.499257 0.202309 0.348812
225 2 0.865502 0.228685 0.744628
226 2 0.955761 0.959099 0.959554
227 2 0.146995 0.486866 0.0994978
228 2 0.17706 0.0138574 0.397722
229 2 0.373033 0.400772 0.595925
230 2 0.246785 0.132073 0.301581
231 2 0.0517783 0.115002 0.300427
232 2 0.0166577 0.581066 0.454847
233 2 0.118886 0.0211508 0.148471
234 2 0.00310423 0.201513 0.817787
235 2 0.904317 0.639922 0.373015
236 2 0.290293 0.48187 0.291087
237 2 0.614847 0.00998662 0.218981
238 2 0.232085 0.492651 0.105996
239 2 0.304851 0.406059 0.228773
240 2 0.64798 0.345542 0.936026
241 2 0.750089 0.102369 0.399162
242 2 0.280353 0.88449 0.291181
243 2 0.974008 0.799839 0.454193
244 2 0.158996 0.163429 0.325737
245 2 0.331389 0.251094 0.756314
246 2 0.91967 0.919198 0.339764
247 2 0.0174645 0.26113 0.220551
248 2 0.231817 0.472626 0.455897
249 2 0.43478 0.374777 0.381176
250 2 0.42565 0.466138 0.214939
251 2 0.0898406 0.117293 0.314154
252 2 0.268893 0.860326 0.187475
253 2 0.375264 0.99446 0.483948
254 2 0.58475 0.329265 0.341671
255 2 0.183116 0.861953 0.920439
256 2 0.154086 0.258185 0.77008
257 2 0.445877 0.456576 0.865159
258 2 0.0183928 0.583961 0.0643382
259 2 0.53937 0.928768 0.315468
260 2 0.400302 0.511572 0.563512
261 2 0.426571 0.922593 0.420114
262 2 0.34762 0.735887 0.401511
263 2 0.503627 0.836569 0.604858
264 2 0.56012 0.266576 0.173532
265 2 0.0192117 0.192744 0.227425
266 2 0.458349 0.533449 0.312664
267 2 0.382673 0.0361478 0.773361
268 2 0.0698542 0.344344 0.592167
269 2 0.734464 0.247704 0.52948
270 2 0.42334 0.133222 0.585309
271 2 0.430903 0.333447 0.134135
272 2 0.394133 0.828021 0.313036
273 2 0.194849 0.177115 0.770528
274 2 0.783167 0.632876 0.264728
275 2 0.51804 0.523779 0.628891
276 2 0.451349 0.840986 0.23007
277 2 0.34454 0.680925 0.852836
278 2 0.9657 0.43373 0.224153
279 2 0.742279 0.340237 0.427775
280 2 0.438621 0.156235 0.20147
281 2 0.118543 0.184268 0.0849419
282 2 0.965605 0.0872918 0.816396
283 2 0.268096 0.189313 0.36976
284 2 0.508155 0.608037 0.437148
285 2 0.112983 0.171004 0.698103
286 2 0.220281 0.468535 0.261785
287 2 0.979525 0.214374 0.183081
288 2 0.191233 0.286943 0.875085
289 2 0.00959975 0.714031 0.516849
290 2 0.189921 0.795775 0.18686
291 2 0.389017 0.0919717 0.285313
292 2 0.446296 0.644844 0.262433
293 2 0.200447 0.160894 0.573476
294 2 0.979763 0.458826 0.273535
295 2 0.137244 0.308813 0.119537
296 2 0.101099 0.701859 0.265884
297 2 0.506463 0.992425 0.364319
298 2 0.243462 0.975368 0.461941
299 2 0.219166 0.0798328 0.367531
300 2 0.426554 0.0285165 0.636609
301 2 0.449928 0.283905 0.411775
302 2 0.124793 0.325863 0.217437
303 2 0.230082 0.220922 0.079287
304 2 0.540084 0.294006 0.23052
305 2 0.0776223 0.414527 0.278333
306 2 0.220357 0.124822 0.258028
307 2 0.267087 0.207451 0.313604
308 2 0.518297 0.334445 0.507274
309 2 0.947028 0.864312 0.357815
310 2 0.108223 0.278828 0.250969
311 2 0.350842 0.201767 0.193516
312 2 0.627993 0.366742 0.363253
313 2 0.47935 0.190938 0.321079
314 2 0.289958 0.251401 0.888162
315 2 0.285189 0.574632 0.515742
316 2 0.805996 0.211387 0.068821
317 2 0.195739 0.999222 0.928361
318 2 0.0759714 0.0362188 0.183388
319 2 0.934727 0.22902 0.372136
320 2 0.107465 0.0689798 0.258293
321 2 0.532708 0.266031 0.428965
322 2 0.0661745 0.181472 0.0583682
323 2 0.3428 0.447638 0.518422
324 2 0.452879 0.0960229 0.166061
325 2 0.337867 0.549212 0.112698
326 2 0.607991 0.609378 0.279904
327 2 0.139314 0.577893 0.0989858
328 2 0.32543 0.187389 0.336303
329 2 0.092853 0.841758 0.713032
330 2 0.702561 0.857952 0.496563
331 2 0.197447 0.477286 0.394546
332 2 0.647907 0.522126 0.306103
333 2 0.221258 0.171496 0.345101
334 2 0.163688 0.15813 0.27216
335 2 0.135964 0.586542 0.238404
336 2 0.260187 0.16982 0.559756
337 2 0.173695 0.867994 0.766002
338 2 0.210749 0.277779 0.062762
339 2 0.298715 0.419046 0.0909594
340 2 0.0824224 0.0411393 0.481181
341 2 0.19628 0.322567 0.19681
342 2 0.00170027 0.969909 0.241768
343 2 0.914523 0.608127 0.354119
344 2 0.373203 0.868287 0.889156
345 2 0.313541 0.658936 0.764671
346 2 0.221619 0.36084 0.159891
347 2 0.128625 0.954462 0.175419
348 2 0.369203 0.505141 0.244786
349 2 0.139668 0.480556 0.209423
350 2 0.227937 0.24439 0.39213
351 2 0.119846 0.316987 0.766478
352 2 0.432907 0.342244 0.401554
353 2 0.442921 0.145613 0.297754
354 2 0.110199 0.69949 0.0312446
355 2 0.186315 0.83499 0.384254
356 2 0.127303 0.18004 0.153237
357 2 0.256582 0.0256951 0.204578
358 2 0.194475 0.574074 0.155357
359 2 0.683892 0.283948 0.58313
360 2 0.935314 0.200366 0.255711
361 2 0.1712 0.586051 0.566628
362 2 0.470453 0.399957 0.888068
363 2 0.0925274 0.736162 0.68123
364 2 0.279357 0.85586 0.350613
365 2 0.269435 0.0945104 0.212359
366 2 0.18328 0.319238 0.28139
367 2 0.30765 0.281157 0.87122
368 2 0.749469 0.022684 0.458785
369 2 0.469232 0.342755 0.0810009
370 2 0.454438 0.458868 0.606548
371 2 0.242233 0.631817 0.309764
372 2 0.0745317 0.247055 0.0441877
373 2 0.300322 0.36583 0.557443
374 2 0.569461 0.903477 0.205259
375 2 0.375822 0.758325 0.886335
376 2 0.475703 0.196065 0.377721
377 2 0.166725 0.130945 0.343025
378 2 0.697043 0.0637653 0.00798251
379 2 0.25061 0.512197 0.802383
380 2 0.0875852 0.396784 0.362338
381 2 0.338919 0.741931 0.177881
382 2 0.0927574 0.713809 0.398193
383 2 0.291953 0.31011 0.355323
384 2 0.539944 0.589588 0.547864
385 2 0.163521 0.082648 0.802247
386 2 0.286331 0.243004 0.478489
387 2 0.31995 0.457394 0.195729
388 2 0.42405 0.124348 0.446644
389 2 0.135951 0.83533 0.210877
390 2 0.111112 0.819431 0.799035
391 2 0.718475 0.155189 0.517904
392 2 0.241118 0.171905 0.213987
393 2 0.187326 0.839999 0.58031
394 2 0.983421 0.435899 0.786831
395 2 0.899599 0.56474 0.321587
396 2 0.966436 0.664813 0.378137
397 2 0.771562 0.716842 0.893643
398 2 0.350013 0.44863 0.247262
399 2 0.726056 0.975427 0.361712
400 2 0.624411 0.405829 0.890775
401 2 0.973998 0.912848 0.535545
402 2 0.376621 0.885049 0.423753
403 2 0.255246 0.268277 0.185735
404 2 0.586515 0.558431 0.782352
405 2 0.556844 0.402232 0.372543
406 2 0.073379 0.690081 0.419212
407 2 0.0642928 0.182832 0.376724
408 2 0.287304 0.102911 0.90645
409 2 0.638238 0.527598 0.553226
410 2 0.914846 0.936131 0.922969
411 2 0.40725 0.302318 0.441898
412 2 0.140985 0.191522 0.37639
413 2 0.801233 0.408827 0.355886
414 2 0.251127 0.276955 0.391122
415 2 0.301229 0.811594 0.313162
416 2 0.171203 0.491756 0.256497
417 2 0.239559 0.399028 0.201226
418 2 0.193544 0.555785 0.396196
419 2 0.0824508 0.243356 0.358188
420 2 0.462564 0.0474964 0.284381
421 2 0.985968 0.00249744 0.200258
422 2 0.196657 0.594544 0.391716
423 2 0.161107 0.625707 0.355241
424 2 0.967952 0.683472 0.871136
425 2 0.0768866 0.958366 0.253368
426 2 0.156869 0.97304 0.15366
427 2 0.262933 0.401444 0.300237
428 2 0.157826 0.195737 0.198013
429 2 0.362189 0.91601 0.440577
430 2 0.339131 0.1842 0.222966
431 2 0.0487289 0.204446 0.764008
432 2 0.0219656 0.229241 0.241373
433 2 0.550775 0.496406 0.863977
434 2 0.106369 0.365061 0.118279
435 2 0.126839 0.304179 0.304612
436 2 0.310281 0.447292 0.137775
437 2 0.0739864 0.980219 0.302896
438 2 0.199171 0.880909 0.465842
439 2 0.379384 0.680855 0.331639
440 2 0.370012 0.493474 0.212434
441 2 0.0382823 0.214877 0.301227
442 2 0.290311 0.198766 0.260925
443 2 0.660597 0.247698 0.946278
444 2 0.376709 0.12554 0.299609
445 2 0.118015 0.179157 0.872161
446 2 0.449386 0.445397 0.260227
447 2 0.285764 0.128322 0.199151
448 2 0.569351 0.46903 0.885295
449 2 0.998037 0.916109 0.273303
450 2 0.302811 0.0422594 0.264934
451 2 0.393976 0.292251 0.331393
452 2 0.433549 0.279965 0.552868
453 2 0.935696 0.795018 0.313464
454 2 0.171196 0.289924 0.125992
455 2 0.417209 0.266032 0.399775
456 2 0.309616 0.950721 0.335028
457 2 0.401189 0.309971 0.726353
458 2 0.525828 0.763336 0.345019
459 2 0.265981 0.363661 0.411834
460 2 0.389332 0.180503 0.322614
461 2 0.295031 0.385962 0.168587
462 2 0.0328398 0.0845871 0.283081
463 2 0.205199 0.486948 0.362326
464 2 0.510588 0.428065 0.582843
465 2 0.169148 0.399182 0.244316
466 2 0.141232 0.467059 0.0423797
467 2 0.127523 0.22154 0.302553
468 2 0.346926 0.127888 0.671932
469 2 0.567482 0.508758 0.181731
470 2 0.338861 0.485063 0.257248
471 2 0.273017 0.0972078 0.245499
472 2 0.535664 0.267737 0.310192
473 2 0.0269581 0.949305 0.669334
474 2 0.205215 0.580008 0.0139202
475 2 0.194219 0.765687 0.607336
476 2 0.109876 0.918357 0.809566
477 2 0.217506 0.992603 0.75944
478 2 0.144755 0.524434 0.837947
479 2 0.534956 0.554874 0.199938
480 2 0.252536 0.74147 0.218675
481 2 0.454681 0.122979 0.346847
482 2 0.0567218 0.239598 0.128733
483 2 0.185355 0.10387 0.324449
484 2 0.0883022 0.3046 0.0197595
485 2 0.0393619 0.25515 0.19184
486 2 0.00616097 0.0820312 0.772654
487 2 0.197123 0.137007 0.182425
488 2 0.340383 0.33133 0.435025
489 2 0.633243 0.486829 0.511219
490 2 0.821004 0.277885 0.304197
491 2 0.194648 0.529012 0.19361
492 2 0.521868 0.513842 0.791982
493 2 0.546292 0.304293 0.50833
494 2 0.939112 0.367557 0.099358
495 2 0.955595 0.0244855 0.319101
496 2 0.487286 0.479727 0.304412
497 2 0.275125 0.148748 0.491278
498 2 0.233816 0.418797 0.318135
499 2 0.315053 0.0216075 0.397016
500 2 0.127274 0.699251 0.486829
501 2 0.185528 0.998633 0.251727
502 2 0.205687 0.154257 0.211487
503 2 0.134166 0.422772 0.202573
504 2 0.144131 0.27686 0.0739707
505 2 0.242929 0.456603 0.323665
506 2 0.179944 0.289199 0.47719
507 2 0.473708 0.443663 0.308378
508 2 0.91852 0.803706 0.0113689
509 2 0.261301 0.421997 0.271865
510 2 0.305555 0.319326 0.387012
511 2 0.0241059 0.524963 0.315436
512 2 0.114613 0.124188 0.287513
513 2 0.422994 0.465651 0.472369
514 2 0.240074 0.669429 0.104835
515 2 0.0171117 0.463623 0.402602
516 2 0.218313 0.373901 0.271979
517 2 0.404332 0.984946 0.259845
518 2 0.465271 0.187417 0.254931
519 2 0.138608 0.451392 0.471961
520 2 0.446407 0.557439 0.581768
521 2 0.0337926 0.986281 0.977352
522 2 0.376875 0.172473 0.374607
523 2 0.993047 0.402902 0.41936
524 2 0.39002 0.116619 0.388516
525 2 0.298414 0.547179 0.334091
526 2 0.336197 0.839662 0.521483
527 2 0.922684 0.212038 0.285912
528 2 0.353853 0.976878 0.580954
529 2 0.281485 0.140635 0.319638
530 2 0.969605 0.877283 0.734624
531 2 0.148068 0.833003 0.43602
532 2 0.329809 0.538851 0.679826
533 2 0.695489 0.275145 0.367274
534 2 0.349257 0.942121 0.840871
535 2 0.745773 0.245679 0.216873
536 2 0.0826512 0.32076 0.434456
537 2 0.166275 0.0549705 0.505778
538 2 0.294457 0.155393 0.412896
539 2 0.901083 0.122574 0.282298
540 2 0.252833 0.0944564 0.292249
541 2 0.218469 0.510698 0.216839
542 2 0.356838 0.243384 0.250522
543 2 0.579292 0.491565 0.309938
544 2 0.430688 0.401897 0.203526
545 2 0.553801 0.299944 0.262119
546 2 0.183387 0.360849 0.199552
547 2 0.656226 0.0383076 0.188495
548 2 0.262956 0.221653 0.389646
549 2 0.0987523 0.141166 0.343904
550 2 0.612998 0.00144738 0.836544
551 2 0.301947 0.380782 0.412175
552 2 0.317263 0.283335 0.106232
553 2 0.463021 0.680382 0.269373
554 2 0.994079 0.159049 0.719035
555 2 0.171904 0.889476 0.374619
556 2 0.367666 0.124741 0.157755
557 2 0.498874 0.998761 0.397559
558 2 0.0977766 0.911187 0.50441
559 2 0.646203 0.146207 0.436758
560 2 0.570451 0.354009 0.553338
561 2 0.557143 0.589329 0.371654
562 2 0.999965 0.0901961 0.400651
563 2 0.172364 0.103793 0.232689
564 2 0.954762 0.42311 0.532473
565 2 0.437326 0.669192 0.945137
566 2 0.08741 0.431711 0.37721
567 2 0.0818034 0.564957 0.168393
568 2 0.384026 0.700243 0.917242
569 2 0.265065 0.0246494 0.428221
570 2 0.157203 0.580423 0.617997
571 2 0.061066 0.516133 0.56567
572 2 0.842839 0.118419 0.962101
573 2 0.194088 0.449893 0.183188
574 2 0.733635 0.0791304 0.021745
575 2 0.604576 0.988616 0.453064
576 2 0.541632 0.0748816 0.20948
577 2 0.517339 0.490878 0.456694
578 2 0.284433 0.262969 0.607532
579 2 0.670433 0.548089 0.19622
580 2 0.0315914 0.977646 0.943894
581 2 0.599827 0.309446 0.295743
582 2 0.133375 0.393338 0.118876
583 2 0.965931 0.728636 0.250568
584 2 0.451548 0.336811 0.339368
585 2 0.327502 0.493313 0.289498
586 2 0.317933 0.444709 0.490932
587 2 0.596753 0.29037 0.618276
588 2 0.347378 0.355313 0.297101
589 2 0.171191 0.486818 0.557133
590 2 0.378062 0.525548 0.301474
591 2 0.0528686 0.526424 0.00955219
592 2 0.0141345 0.255456 0.369791
593 2 0.0505986 0.0326282 0.751282
594 2 0.326683 0.31455 0.234646
595 2 0.278996 0.135447 0.252312
596 2 0.804213 0.253078 0.89598
597 2 0.244262 0.387387 0.0804855
598 2 0.446784 0.52881 0.364238
599 2 0.990341 0.131157 0.245129
600 2 0.573436 0.32559 0.762094
601 2 0.394989 0.422096 0.143299
602 2 0.250495 0.856784 0.119614
603 2 0.115047 0.916199 0.776158
604 2 0.974307 0.58601 0.415832
605 2 0.341883 0.240878 0.198436
606 2 0.981569 0.337872 0.0400685
607 2 0.452446 0.531099 0.692542
608 2 0.427875 0.402238 0.291645
609 2 0.935684 0.0508104 0.276218
610 2 0.91974 0.179283 0.304528
611 2 0.228512 0.132701 0.351772
612 2 0.545126 0.528369 0.604919
613 2 0.510185 0.28241 0.754875
614 2 0.420203 0.178198 0.469925
615 2 0.3981 0.0324113 0.167436
616 2 0.764222 0.336094 0.349109
617 2 0.166491 0.298673 0.850774
618 2 0.149592 0.0469728 0.739489
619 2 0.224511 0.535148 0.271985
620 2 0.922894 0.145478 0.218934
621 2 0.906472 0.702241 0.375252
622 2 0.215867 0.515195 0.787281
623 2 0.156718 0.0456039 0.403967
624 2 0.195356 0.0537811 0.900941
625 2 0.284347 0.353074 0.267632
626 2 0.135962 0.0179086 0.194094
627 2 0.174896 0.0877141 0.439174
628 2 0.501316 0.368984 0.372447
629 2 0.0209545 0.176687 0.768192
630 2 0.13141 0.469626 0.166197
631 2 0.169756 0.308158 0.250364
632 2 0.93218 0.336694 0.317412
633 2 0.0342798 0.175777 0.304513
634 2 0.439557 0.464514 0.440319
635 2 0.131244 0.576993 0.377654
636 2 0.0164057 0.0472836 0.871917
637 2 0.354822 0.448019 0.933556
638 2 0.019094 0.408616 0.368772
639 2 0.530765 0.184428 0.448516
640 2 0.0326921 0.35201 0.222331
641 2 0.0530187 0.402133 0.253749
642 2 0.315175 0.873555 0.302945
643 2 0.427429 0.280252 0.206553
644 2 0.348957 0.0954112 0.499295
645 2 0.41563 0.0222622 0.90743
646 2 0.256337 0.968865 0.893713
647 2 0.989117 0.766635 0.369443
648 2 0.101856 0.569242 0.226244
649 2 0.252349 0.187121 0.265639
650 2 0.29481 0.136557 0.734772
651 2 0.0669934 0.577193 0.384863
652 2 0.247141 0.0607159 0.681729
653 2 0.281879 0.324386 0.686653
654 2 0.35711 0.83987 0.764664
655 2 0.995951 0.97529 0.177164
656 2 0.351874 0.186257 0.278931
657 2 0.951563 0.0720601 0.434468
658 2 0.883081 0.0483015 0.240475
659 2 0.919336 0.185987 0.858477
660 2 0.413895 0.516389 0.901726
661 2 0.0172699 0.781502 0.417313
662 2 0.319133 0.787096 0.797456
663 2 0.519825 0.639357 0.355598
664 2 0.114825 0.362115 0.0194144
665 2 0.609744 0.0324314 0.291606
666 2 0.910257 0.935198 0.643138
667 2 0.104508 0.0851192 0.776525
668 2 0.423373 0.75903 0.851045
669 2 0.230638 0.328265 0.178202
670 2 0.674673 0.452533 0.676909
671 2 0.10379 0.155642 0.204141
672 2 0.484941 0.817487 0.33124
673 2 0.385027 0.941672 0.978745
674 2 0.335435 0.143542 0.170139
675 2 0.119243 0.101994 0.404879
676 2 0.39586 0.214893 0.510128
677 2 0.354919 0.469788 0.656023
678 2 0.308109 0.85213 0.717693
679 2 0.306109 0.651262 0.175777
680 2 0.41076 0.370323 0.791789
681 2 0.496248 0.927269 0.148775
682 2 0.365208 0.145826 0.398716
683 2 0.455761 0.566132 0.429494
684 2 0.248773 0.148156 0.270655
685 2 0.156658 0.896857 0.32587
686 2 0.0273708 0.280508 0.541412
687 2 0.249442 0.399714 0.0346441
688 2 0.542712 0.0365779 0.169678
689 2 0.279588 0.953757 0.217658
690 2 0.313832 0.283569 0.652239
691 2 0.149305 0.34644 0.807348
692 2 0.624357 0.968507 0.393971
693 2 0.120133 0.0832035 0.201659
694 2 0.172363 0.593354 0.698138
695 2 0.406623 0.610503 0.246944
696 2 0.189223 0.549506 0.280234
697 2 0.401152 0.100826 0.528756
698 2 0.594761 0.734309 0.312027
699 2 0.339077 0.0890871 0.249178
700 2 0.431184 0.915879 0.336304
701 2 0.123891 0.718435 0.0604495
702 2 0.0583172 0.395773 0.423475
703 2 0.362076 0.917257 0.264877
704 2 0.949209 0.997778 0.966205
705 2 0.0964451 0.246745 0.299952
706 2 0.00893754 0.0363177 0.238937
707 2 0.203981 0.416821 0.474288
708 2 0.35121 0.428061 0.442049
709 2 0.0566503 0.153589 0.640055
710 2 0.239941 0.663267 0.374315
711 2 0.972551 0.144531 0.112205
712 2 0.589085 0.162771 0.319493
713 2 0.142918 0.130795 0.896059
714 2 0.88979 0.160485 0.909009
715 2 0.180983 0.506782 0.168901
716 2 0.343218 0.221663 0.329315
717 2 0.979971 0.0565605 0.322888
718 2 0.843758 0.0875122 0.871441
719 2 0.545515 0.595469 0.402901
720 2 0.40252 0.142945 0.154796
721 2 0.538899 0.968694 0.358516
722 2 0.389247 0.90208 0.192346
723 2 0.923027 0.153371 0.354738
724 2 0.182932 0.255636 0.111066
725 2 0.449053 0.44295 0.914703
726 2 0.220921 0.977877 0.651077
727 2 0.246659 0.626047 0.207435
728 2 0.87128 0.24213 0.9562
729 2 0.298625 0.481699 0.413597
730 2 0.132866 0.0945789 0.373896
731 2 0.426756 0.405795 0.628767
732 2 0.139003 0.972989 0.117227
733 2 0.321073 0.29416 0.263022
734 2 0.307101 0.178536 0.36473
735 2 0.105524 0.578099 0.193154
736 2 0.318078 0.427617 0.255701
737 2 0.659106 0.235419 0.153707
738 2 0.273433 0.276214 0.362609
739 2 0.927311 0.0182327 0.944662
740 2 0.208741 0.119808 0.226967
741 2 0.0395145 0.660695 0.0799555
742 2 0.221672 0.310335 0.280976
743 2 0.899816 0.222719 0.573502
744 2 0.971629 0.833857 0.349538
745 2 0.0918071 0.13111 0.0839408
746 2 0.0327186 0.0972747 0.353913
747 2 0.365689 0.543695 0.251451
748 2 0.552214 0.17954 0.37791
749 2 0.0958581 0.115201 0.616946
750 2 0.582382 0.154116 0.576599
751 2 0.503465 0.0288737 0.347867
752 2 0.95898 0.0185656 0.285705
753 2 0.510297 0.552249 0.728555
754 2 0.103479 0.00907507 0.23531
755 2 0.155564 0.262585 0.216489
756 2 0.992829 0.39329 0.488804
757 2 0.862736 0.0445851 0.353606
758 2 0.277125 0.560194 0.120591
759 2 0.322641 0.586769 0.266846
760 2 0.800864 0.4412 0.419042
761 2 0.217787 0.035143 0.967256
762 2 0.121879 0.449448 0.365465
763 2 0.237516 0.498534 0.278197
764 2 0.476542 0.372362 0.552067
765 2 0.575843 0.573152 0.555508
766 2 0.0892201 0.289102 0.154875
767 2 0.240901 0.847292 0.347682
768 2 0.415651 0.806757 0.970233
769 2 0.258169 0.347772 0.442069
770 2 0.225738 0.165009 0.403184
771 2 0.188625 0.468807 0.281827
772 2 0.348073 0.0139649 0.833211
773 2 0.205155 0.665561 0.0896544
774 2 0.0119709 0.0365816 0.619531
775 2 0.147607 0.21796 0.27381
776 2 0.387443 0.11243 0.800149
777 2 0.272513 0.133641 0.166439
778 2 0.0810652 0.553576 0.439045
779 2 0.0334261 0.150865 0.47102
780 2 0.238904 0.0898193 0.261297
781 2 0.430771 0.439752 0.137588
782 2 0.612707 0.148535 0.68471
783 2 0.513692 0.383024 0.548167
784 2 0.145585 0.49904 0.347413
785 2 0.427898 0.312098 0.282413
786 2 0.153598 0.339172 0.160572
787 2 0.033792 0.0322768 0.591863
788 2 0.273906 0.141081 0.439841
789 2 0.328841 0.830474 0.21009
790 2 0.3852 0.365458 0.520841
791 2 0.303905 0.970167 0.364155
792 2 0.312578 0.979415 0.143354
793 2 0.504635 0.379834 0.165014
794 2 0.296184 0.1783 0.313212
795 2 0.221046 0.763626 0.215595
796 2 0.765053 0.985164 0.364696
797 2 0.30071 0.0589163 0.39639
798 2 0.564841 0.450078 0.268308
799 2 0.0729772 0.180763 0.432344
800 2 0.245182 0.189419 0.183976
801 2 0.257988 0.593995 0.46373
802 2 0.166219 0.948325 0.128858
803 2 0.256146 0.852392 0.289962
804 2 0.15832 0.210716 0.840199
805 2 0.299379 0.188067 0.228567
806 2 0.37894 0.00242499 0.963768
807 2 0.174841 0.262208 0.718183
808 2 0.116841 0.287875 0.335256
809 2 0.235125 0.223335 0.823096
810 2 0.262589 0.400483 0.369988
811 2 0.312953 0.178233 0.282023
812 2 0.295144 0.789029 0.502546
813 2 0.169919 0.917432 0.351232
814 2 0.15307 0.95365 0.20173
815 2 0.0441575 0.0936523 0.155153
816 2 0.186798 0.154754 0.702159
817 2 0.339073 0.303699 0.880084
818 2 0.279326 0.491138 0.349974
819 2 0.751222 0.272902 0.329018
820 2 0.0401981 0.596146 0.315232
821 2 0.259008 0.884462 0.414573
822 2 0.943228 0.604625 0.401255
823 2 0.231439 0.491649 0.311417
824 2 0.13903 0.0732787 0.645487
825 2 0.321467 0.375748 0.383417
826 2 0.163616 0.0715156 0.378183
827 2 0.485312 0.052103 0.19788
828 2 0.244325 0.332586 0.30388
829 2 0.11393 0.972811 0.249723
830 2 0.137491 0.155578 0.297189
831 2 0.14438 0.585065 0.324396
832 2 0.119437 0.362591 0.403751
833 2 0.330365 0.0428557 0.315454
834 2 0.930034 0.514375 0.100814
835 2 0.407671 0.742713 0.994821
836 2 0.312696 0.383258 0.508333
837 2 0.561139 0.391957 0.808377
838 2 0.562455 0.0434782 0.198409
839 2 0.0116449 0.0452063 0.167086
840 2 0.630018 0.13828 0.406998
841 2 0.529447 0.00225892 0.15858
842 2 0.217839 0.230902 0.487175
843 2 0.299363 0.296261 0.62274
844 2 0.0612514 0.720156 0.886216
845 2 0.87117 0.206864 0.941863
846 2 0.0524517 0.603554 0.0611182
847 2 0.390414 0.499435 0.385273
848 2 0.135043 0.740416 0.292422
849 2 0.136334 0.753273 0.387383
850 2 0.0732022 0.194315 0.178659
851 2 0.14582 0.517358 0.378187
852 2 0.275047 0.0689319 0.166746
853 2 0.229034 0.31586 0.247764
854 2 0.660007 0.319697 0.329795
855 2 0.175532 0.857231 0.888019
856 2 0.375191 0.506418 0.352954
857 2 0.0989932 0.599052 0.978872
858 2 0.291191 0.426901 0.877982
859 2 0.353379 0.333116 0.350202
860 2 0.355275 0.275745 0.121538
861 2 0.470304 0.343926 0.861896
862 2 0.291538 0.478384 0.528911
863 2 0.962001 0.337344 0.493669
864 2 0.928647 0.581096 0.304721
865 2 0.0950795 0.3804 0.765744
866 2 0.407056 0.831631 0.919823
867 2 0.400786 0.0579342 0.453996
868 2 0.188318 0.391849 0.0635621
869 2 0.255432 0.635513 0.116574
870 2 0.574281 0.306522 0.410426
871 2 0.328705 0.573888 0.386472
872 2 0.688429 0.346069 0.565976
873 2 0.0365238 0.632064 0.362986
874 2 0.662526 0.437532 0.561896
875 2 0.122159 0.345939 0.299223
876 2 0.958691 0.93695 0.88341
877 2 0.586542 0.387721 0.45525
878 2 0.882118 0.936112 0.240598
879 2 0.39903 0.0555876 0.487774
880 2 0.0928263 0.755734 0.353167
881 2 0.202354 0.314001 0.127402
882 2 0.0750969 0.12712 0.198131
883 2 0.265514 0.235393 0.842008
884 2 0.428747 0.128255 0.177013
885 2 0.891322 0.376736 0.152445
886 2 0.380114 0.657878 0.382158
887 2 0.141861 0.0514755 0.211627
888 2 0.431909 0.0980495 0.422105
889 2 0.0674485 0.490537 0.369407
890 2 0.614732 0.544586 0.302989
891 2 0.858176 0.519186 0.262225
892 2 0.180976 0.209437 0.173085
893 2 0.0826127 0.45035 0.330347
894 2 0.234883 0.767432 0.40744
895 2 0.294903 0.0807969 0.349495
896 2 0.157731 0.95156 0.413281
897 2 0.565961 0.475344 0.812069
898 2 0.366851 0.371067 0.0812227
899 2 0.0233733 0.863659 0.295314
900 2 0.121867 0.198488 0.253195
901 2 0.0663549 0.867441 0.72542
902 2 0.527618 0.939465 0.168108
903 2 0.0428665 0.0202367 0.167219
904 2 0.1998 0.0774897 0.927285