ITEM: TIMESTEP
128106
ITEM: NUMBER OF ATOMS
10500
ITEM: BOX BOUNDS pp pp pp
-5.4307216083696852e-01 5.8464255767013682e+01
-5.4307216083696852e-01 5.8464255767013682e+01
-5.4307216083696852e-01 6.1489471092880159e+01
ITEM: ATOMS id type xs ys zs
1 2 0.230491 0.544851 0.494183
2 2 0.277623 0.892157 0.88
3 2 0.0881834 0.345616 0.210787
4 2 0.195074 0.490272 0.273732
5 2 0.194915 0.389541 0.904467
6 2 0.0339018 0.137925 0.810051
7 2 0.0225085 0.114371 0.182078
8 2 0.480473 0.983567 0.961165
9 2 0.235254 0.459581 0.328486
10 2 0.320693 0.398513 0.869697
11 2 0.387716 0.0615997 0.887672
12 2 0.450066 0.304146 0.429331
13 2 0.0296038 0.0513872 0.512099
14 2 0.326322 0.105379 0.559837
15 2 0.303767 0.316909 0.898015
16 2 0.361443 0.168085 0.31299
17 2 0.190844 0.21018 0.00375059
18 2 0.228669 0.50053 0.387624
19 2 0.107779 0.674468 0.320609
20 2 0.0471821 0.886972 0.978814
21 2 0.199278 0.16897 0.284081
22 2 0.331983 0.0302157 0.342732
23 2 0.973228 0.292495 0.316108
24 2 0.673702 0.574862 0.200681
25 2 0.962643 0.433229 0.353745
26 2 0.591094 0.673166 0.970323
27 2 0.250129 0.925034 0.535841
28 2 0.287815 0.913838 0.0372169
29 2 0.314062 0.902035 0.162235
30 2 0.455306 0.929132 0.241245
31 2 0.853638 0.453572 0.293402
32 2 0.0683482 0.580266 0.400135
33 2 0.0457948 0.760058 0.745708
34 2 0.0533253 0.657518 0.240701
35 2 0.36544 0.256494 0.648392
36 2 0.913176 0.0645127 0.266925
37 2 0.518609 0.416195 0.260582
38 2 0.57727 0.46238 0.084644
39 2 0.700232 0.533455 0.235301
40 2 0.141588 0.00642702 0.0747404
41 2 0.848208 0.311455 0.0936404
42 2 0.338114 0.934541 0.166323
43 2 0.118389 0.247338 0.0464138
44 2 0.210586 0.385811 0.122967
45 2 0.145726 0.795537 0.763346
46 2 0.445206 0.269139 0.848074
47 2 0.0778455 0.160941 0.841558
48 2 0.734117 0.0823064 0.07952
49 2 0.974572 0.140932 0.493361
50 2 0.0494176 0.819608 0.185258
51 2 0.765385 0.225532 0.256006
52 2 0.996747 0.129987 0.0180923
53 2 0.180571 0.203381 0.360757
54 2 0.212953 0.148721 0.443348
55 2 0.984422 0.133708 0.13854
56 2 0.36055 0.479309 0.939166
57 2 0.871113 0.320191 0.271851
58 2 0.290911 0.205275 0.906649
59 2 0.254224 0.731299 0.308635
60 2 0.955323 0.678997 0.864027
61 2 0.172425 0.910855 0.958001
62 2 0.405282 0.368777 0.206768
63 2 0.260649 0.47506 0.385844
64 2 0.0720861 0.224671 0.242112
65 2 0.464691 0.00115189 0.130736
66 2 0.773605 0.587839 0.274936
67 2 0.0703487 0.962838 0.173398
68 2 0.371241 0.995719 0.440903
69 2 0.178969 0.270926 0.0156802
70 2 0.195076 0.812795 0.0938142
71 2 0.411251 0.437963 0.668776
72 2 0.261364 0.72306 0.345037
73 2 0.123344 0.547655 0.283555
74 2 0.250242 0.720748 0.910694
75 2 0.129531 0.84027 0.325562
76 2 0.590812 0.462817 0.167604
77 2 0.821442 0.284628 0.345033
78 2 0.207555 0.370158 0.83987
79 2 0.9618 0.887005 0.273034
80 2 0.68796 0.133385 0.189587
81 2 0.657196 0.450465 0.15996
82 2 0.361503 0.498133 0.740321
83 2 0.402249 0.360704 0.458424
84 2 0.268205 0.240829 0.0989989
85 2 0.272857 0.0344697 0.0832734
86 2 0.20437 0.939292 0.19072
87 2 0.259677 0.778463 0.450051
88 2 0.065798 0.815165 0.031779
89 2 0.179728 0.945826 0.467833
90 2 0.0137581 0.00268386 0.178285
91 2 0.341151 0.340183 0.357251
92 2 0.402656 0.26182 0.434928
93 2 0.511303 0.807709 0.208434
94 2 0.816312 0.0685218 0.0659958
95 2 0.311395 0.441982 0.289985
96 2 0.197145 0.587566 0.239093
97 2 0.144439 0.687739 0.17621
98 2 0.278588 0.534193 0.436471
99 2 0.219274 0.0635094 0.0639447
100 2 0.0310035 0.0240921 0.671021
101 2 0.0665988 0.408281 0.0259502
102 2 0.531423 0.135372 0.156918
103 2 0.89005 0.922779 0.252456
104 2 0.544048 0.490108 0.336937
105 2 0.169307 0.252244 0.224642
106 2 0.00704138 0.220203 0.362693
107 2 0.52018 0.458359 0.3904
108 2 0.946843 0.964209 0.897417
109 2 0.14032 0.855228 0.270472
110 2 0.209345 0.645157 0.912759
111 2 0.681373 0.270141 0.176504
112 2 0.704395 0.379047 0.088042
113 2 0.795816 0.568479 0.0311652
114 2 0.625215 0.425781 0.221156
115 2 0.518557 0.616057 0.00343196
116 2 0.237049 0.346735 0.860147
117 2 0.292858 0.237867 0.223513
118 2 0.0920992 0.190964 0.232112
119 2 0.362539 0.393493 0.252445
120 2 0.422399 0.244661 0.0587578
121 2 0.914204 0.431837 0.121702
122 2 0.286182 0.379343 0.0690127
123 2 0.070898 0.527873 0.822614
124 2 0.269586 0.334905 0.365311
125 2 0.0893707 0.566219 0.907661
126 2 0.99634 0.00711834 0.791432
127 2 0.666493 0.187393 0.120138
128 2 0.0747484 0.847164 0.088979
129 2 0.193697 0.398328 0.864824
130 2 0.98548 0.0606177 0.566562
131 2 0.240834 0.896721 0.864959
132 2 0.393394 0.476461 0.0848029
133 2 0.390055 0.575819 0.517934
134 2 0.709099 0.36673 0.30413
135 2 0.530882 0.480791 0.57418
136 2 0.359551 0.714936 0.242804
137 2 0.408716 0.540262 0.0894616
138 2 0.180982 0.476999 0.307764
139 2 0.518952 0.507531 0.947749
140 2 0.0771056 0.205428 0.321605
141 2 0.464463 0.243401 0.461172
142 2 0.062245 0.0391549 0.342357
143 2 0.467891 0.12997 0.353643
144 2 0.335683 0.978197 0.286597
145 2 0.183689 0.377618 0.283566
146 2 0.497012 0.776454 0.416787
147 2 0.31321 0.244399 0.401767
148 2 0.413218 0.613131 0.0822684
149 2 0.560212 0.335425 0.340616
150 2 0.0375772 0.312552 0.823285
151 2 0.514712 0.199954 0.495723
152 2 0.405327 0.0770517 0.857172
153 2 0.315917 0.383104 0.300476
154 2 0.368557 0.518129 0.044023
155 2 0.237048 0.572729 0.302952
156 2 0.324718 0.200496 0.366049
157 2 0.240263 0.53903 0.439177
158 2 0.177993 0.271826 0.408191
159 2 0.449557 0.165703 0.362555
160 2 0.628661 0.120248 0.250113
161 2 0.0334737 0.941533 0.535918
162 2 0.429464 0.386737 0.0260068
163 2 0.489666 0.892754 0.28253
164 2 0.0260027 0.815066 0.0279086
165 2 0.0411712 0.205316 0.930624
166 2 0.143796 0.368059 0.289508
167 2 0.207269 0.54552 0.302986
168 2 0.0490937 0.377942 0.526001
169 2 0.586372 0.110989 0.171883
170 2 0.430957 0.943622 0.0650288
171 2 0.313474 0.495634 0.148646
172 2 0.965999 0.885347 0.360471
173 2 0.105845 0.042627 0.570666
174 2 0.264172 0.503565 0.604147
175 2 0.256849 0.800362 0.133371
176 2 0.15288 0.192024 0.0637744
177 2 0.12255 0.14193 0.181658
178 2 0.207401 0.394494 0.430148
179 2 0.126096 0.247175 0.938805
180 2 0.157787 0.131026 0.126644
181 2 0.276055 0.879986 0.432889
182 2 0.616035 0.368714 0.9313
183 2 0.116749 0.249502 0.352094
184 2 0.252477 0.188211 0.0664496
185 2 0.311959 0.250305 0.161603
186 2 0.372187 0.15031 0.228618
187 2 0.21137 0.369738 0.311712
188 2 0.941605 0.116021 0.501123
189 2 0.208592 0.150528 0.0312444
190 2 0.278336 0.471936 0.193314
191 2 0.289651 0.624944 0.902797
192 2 0.0499113 0.120178 0.357128
193 2 0.287645 0.31107 0.227528
194 2 0.334344 0.150762 0.466308
195 2 0.0857151 0.944613 0.394685
196 2 0.9053 0.439073 0.185151
197 2 0.298588 0.362554 0.934216
198 2 0.410763 0.257054 0.0942073
199 2 0.068559 0.494646 0.123242
200 2 0.916544 0.918996 0.435009
201 2 0.14919 0.769019 0.431909
202 2 0.198179 0.203538 0.196858
203 2 0.54659 0.289852 0.468366
204 2 0.388447 0.092395 0.494344
205 2 0.179481 0.347683 0.487962
206 2 0.113773 0.957413 0.540869
207 2 0.108004 0.218346 0.175864
208 2 0.219465 0.968131 0.168063
209 2 0.990738 0.715165 0.175232
210 2 0.260429 0.125362 0.346986
211 2 0.117121 0.470576 0.306391
212 2 0.292486 0.511021 0.670746
213 2 0.352673 0.267707 0.503353
214 2 0.418431 0.218929 0.567179
215 2 0.539668 0.700263 0.368649
216 2 0.488186 0.678171 0.416148
217 2 0.347273 0.513656 0.137409
218 2 0.242777 0.206539 0.502302
219 2 0.230986 0.101641 0.0640984
220 2 0.994537 0.0792925 0.255555
221 2 0.40672 0.308638 0.333061
222 2 0.382048 0.932189 0.116076
223 2 0.983282 0.475716 0.996922
224 2 0.499768 0.201674 0.319517
225 2 0.864137 0.227264 0.785489
226 2 0.95183 0.963238 0.0415874
227 2 0.149529 0.487338 0.0241401
228 2 0.178152 0.0136002 0.378886
229 2 0.37205 0.402551 0.610314
230 2 0.248906 0.132435 0.261593
231 2 0.0540694 0.116733 0.264877
232 2 0.0178842 0.581197 0.444401
233 2 0.106023 0.0236901 0.0725737
234 2 0.000105037 0.199829 0.86769
235 2 0.905029 0.640003 0.348723
236 2 0.292258 0.479684 0.250565
237 2 0.624285 0.00376964 0.170749
238 2 0.2339 0.493397 0.0322572
239 2 0.305372 0.40477 0.177836
240 2 0.637055 0.345487 0.996151
241 2 0.750547 0.102449 0.378781
242 2 0.282443 0.885508 0.253105
243 2 0.974705 0.799828 0.443951
244 2 0.160988 0.163296 0.292795
245 2 0.328519 0.250553 0.797619
246 2 0.921806 0.919235 0.309361
247 2 0.0197388 0.263086 0.170205
248 2 0.232739 0.47285 0.444585
249 2 0.436448 0.374673 0.356652
250 2 0.429688 0.467063 0.16273
251 2 0.0925645 0.117788 0.280296
252 2 0.269237 0.86103 0.134524
253 2 0.375254 0.994126 0.479216
254 2 0.585696 0.328157 0.311624
255 2 0.187386 0.853539 0.989041
256 2 0.152809 0.256357 0.813648
257 2 0.443468 0.456426 0.934237
258 2 0.0203076 0.587044 0.988022
259 2 0.541335 0.928736 0.279666
260 2 0.39994 0.511361 0.572148
261 2 0.427431 0.923571 0.402629
262 2 0.348679 0.736168 0.382621
263 2 0.502809 0.836205 0.621323
264 2 0.564026 0.266095 0.114499
265 2 0.0202431 0.195389 0.176927
266 2 0.459543 0.533869 0.275918
267 2 0.382227 0.0342647 0.816973
268 2 0.0694439 0.343897 0.60472
269 2 0.734701 0.247822 0.533128
270 2 0.42385 0.134708 0.596271
271 2 0.435645 0.335563 0.0636096
272 2 0.396168 0.827444 0.277225
273 2 0.193902 0.175818 0.815153
274 2 0.785843 0.631333 0.225769
275 2 0.517499 0.523544 0.648803
276 2 0.453505 0.840438 0.179684
277 2 0.342955 0.682108 0.90817
278 2 0.968911 0.434895 0.175915
279 2 0.7427 0.340436 0.413649
280 2 0.440368 0.155088 0.141698
281 2 0.115438 0.185013 0.0130399
282 2 0.963972 0.0862871 0.869668
283 2 0.269433 0.189696 0.344664
284 2 0.508121 0.608158 0.422991
285 2 0.111908 0.170333 0.729897
286 2 0.218331 0.46967 0.217024
287 2 0.979406 0.217165 0.124437
288 2 0.190097 0.273865 0.949721
289 2 0.00974032 0.713716 0.518479
290 2 0.193208 0.79756 0.129387
291 2 0.390436 0.0915517 0.242675
292 2 0.447669 0.643772 0.217685
293 2 0.19968 0.161422 0.583559
294 2 0.981884 0.458579 0.233498
295 2 0.138643 0.311991 0.0454814
296 2 0.102452 0.704844 0.220157
297 2 0.507699 0.992437 0.337299
298 2 0.243796 0.974898 0.454112
299 2 0.221172 0.080971 0.341269
300 2 0.426197 0.0290798 0.656185
301 2 0.450891 0.284441 0.392863
302 2 0.127243 0.326037 0.164646
303 2 0.227152 0.216981 0.987932
304 2 0.542294 0.293206 0.180625
305 2 0.0780348 0.414008 0.239209
306 2 0.221542 0.12547 0.212311
307 2 0.268442 0.207055 0.277133
308 2 0.516562 0.334525 0.504521
309 2 0.948368 0.863486 0.331371
310 2 0.110056 0.280588 0.205391
311 2 0.353248 0.200822 0.132801
312 2 0.628855 0.366772 0.337621
313 2 0.480602 0.191048 0.286578
314 2 0.269437 0.255801 0.963664
315 2 0.285291 0.573978 0.515966
316 2 0.820928 0.232513 0.129913
317 2 0.196816 0.998335 0.00315325
318 2 0.0754837 0.0365848 0.127608
319 2 0.935069 0.229607 0.34942
320 2 0.109265 0.069746 0.215757
321 2 0.533051 0.26548 0.413605
322 2 0.0639572 0.187359 0.985694
323 2 0.343453 0.447846 0.518789
324 2 0.452304 0.0970688 0.100227
325 2 0.344285 0.549766 0.0471953
326 2 0.609911 0.610303 0.240937
327 2 0.140732 0.578685 0.0257346
328 2 0.326131 0.187089 0.30475
329 2 0.0915308 0.842258 0.746212
330 2 0.702847 0.858153 0.494036
331 2 0.19866 0.47721 0.371744
332 2 0.649781 0.522683 0.271758
333 2 0.222469 0.171969 0.315717
334 2 0.165073 0.159202 0.229704
335 2 0.138588 0.585454 0.192724
336 2 0.259074 0.17036 0.567509
337 2 0.171902 0.86708 0.809854
338 2 0.20637 0.27883 0.986039
339 2 0.300766 0.422568 0.0171056
340 2 0.0831504 0.0412816 0.475612
341 2 0.198396 0.322042 0.138723
342 2 0.00561064 0.969866 0.197822
343 2 0.915536 0.608581 0.326159
344 2 0.370856 0.868796 0.953206
345 2 0.312927 0.65837 0.807476
346 2 0.223659 0.360697 0.0953246
347 2 0.129307 0.956442 0.118906
348 2 0.371236 0.504727 0.197338
349 2 0.138599 0.478794 0.153251
350 2 0.229209 0.244423 0.370644
351 2 0.119308 0.315857 0.808556
352 2 0.434674 0.342051 0.381404
353 2 0.443812 0.145567 0.257813
354 2 0.113304 0.691531 0.933744
355 2 0.187528 0.835495 0.362084
356 2 0.126275 0.17979 0.0911234
357 2 0.257882 0.0254845 0.152162
358 2 0.196627 0.574208 0.0933152
359 2 0.683377 0.28408 0.595208
360 2 0.938178 0.202375 0.214318
361 2 0.171304 0.585863 0.575156
362 2 0.46587 0.402421 0.961597
363 2 0.0918528 0.736032 0.709818
364 2 0.281557 0.855867 0.321724
365 2 0.270713 0.0942481 0.159148
366 2 0.184859 0.319149 0.23951
367 2 0.286349 0.288517 0.947882
368 2 0.749758 0.0229055 0.448901
369 2 0.473778 0.349519 0.994448
370 2 0.453587 0.459191 0.623445
371 2 0.238733 0.634176 0.268997
372 2 0.0704118 0.250942 0.961636
373 2 0.300473 0.366328 0.564425
374 2 0.570984 0.902445 0.148664
375 2 0.374096 0.75692 0.953637
376 2 0.47572 0.195645 0.352861
377 2 0.168695 0.13138 0.313871
378 2 0.67273 0.0551751 0.0892217
379 2 0.24835 0.514077 0.853084
380 2 0.0887997 0.396255 0.33743
381 2 0.338987 0.740618 0.12014
382 2 0.093595 0.713533 0.377576
383 2 0.293776 0.309983 0.326375
384 2 0.539173 0.589888 0.553971
385 2 0.162381 0.0816453 0.852695
386 2 0.286567 0.242873 0.471294
387 2 0.322352 0.457205 0.13942
388 2 0.424358 0.123869 0.434918
389 2 0.139413 0.836776 0.158638
390 2 0.106593 0.819253 0.845815
391 2 0.718985 0.155153 0.517754
392 2 0.242924 0.172356 0.159727
393 2 0.186905 0.838588 0.591436
394 2 0.979456 0.432799 0.836309
395 2 0.901524 0.56486 0.289353
396 2 0.967685 0.664224 0.354779
397 2 0.766802 0.715551 0.95666
398 2 0.350859 0.448104 0.197381
399 2 0.727517 0.976247 0.334164
400 2 0.621558 0.402481 0.956962
401 2 0.9739 0.913252 0.539842
402 2 0.377535 0.885783 0.407525
403 2 0.257353 0.268233 0.125306
404 2 0.584364 0.556915 0.82908
405 2 0.558143 0.40148 0.347085
406 2 0.0740631 0.690015 0.402063
407 2 0.066044 0.183473 0.353229
408 2 0.288937 0.103098 0.973674
409 2 0.638785 0.526868 0.562464
410 2 0.911668 0.937749 0.995811
411 2 0.409742 0.302377 0.429104
412 2 0.142957 0.191722 0.351855
413 2 0.802475 0.408735 0.330853
414 2 0.252725 0.277115 0.369113
415 2 0.303354 0.81134 0.278124
416 2 0.173501 0.491342 0.204962
417 2 0.241047 0.398774 0.145584
418 2 0.194001 0.556337 0.374859
419 2 0.0838132 0.244074 0.330706
420 2 0.46336 0.0473974 0.241671
421 2 0.98738 0.00357261 0.149172
422 2 0.197959 0.595364 0.368381
423 2 0.1639 0.625883 0.324216
424 2 0.961938 0.682992 0.930234
425 2 0.0792139 0.9591 0.209671
426 2 0.156766 0.97694 0.096995
427 2 0.263722 0.40234 0.2608
428 2 0.159709 0.197081 0.142092
429 2 0.362807 0.915771 0.428333
430 2 0.341604 0.183788 0.168229
431 2 0.0467726 0.202236 0.80691
432 2 0.0239745 0.23125 0.194485
433 2 0.548865 0.495569 0.925934
434 2 0.108412 0.365747 0.0466842
435 2 0.129148 0.304184 0.268582
436 2 0.311888 0.448836 0.0730151
437 2 0.0768736 0.980239 0.26814
438 2 0.199765 0.880618 0.456731
439 2 0.382026 0.680617 0.299815
440 2 0.372674 0.494574 0.159885
441 2 0.0406917 0.216119 0.264918
442 2 0.292657 0.198358 0.214361
443 2 0.653146 0.245898 0.017322
444 2 0.378003 0.125454 0.259278
445 2 0.11652 0.179623 0.932447
446 2 0.450774 0.444345 0.214552
447 2 0.287804 0.127735 0.141959
448 2 0.566181 0.467091 0.951708
449 2 0.000713394 0.915808 0.233864
450 2 0.304648 0.0424401 0.220068
451 2 0.395593 0.292746 0.298549
452 2 0.433718 0.28024 0.558739
453 2 0.938944 0.801198 0.267061
454 2 0.172842 0.292581 0.0503117
455 2 0.418489 0.266164 0.377878
456 2 0.312385 0.951974 0.30409
457 2 0.399346 0.310023 0.761676
458 2 0.527067 0.763215 0.315944
459 2 0.267013 0.362453 0.393005
460 2 0.389705 0.180167 0.288303
461 2 0.296375 0.385838 0.107102
462 2 0.0354002 0.0861727 0.244669
463 2 0.206982 0.486422 0.334981
464 2 0.509742 0.427651 0.59529
465 2 0.170616 0.400103 0.195374
466 2 0.1457 0.46711 0.957078
467 2 0.129964 0.222252 0.265454
468 2 0.345697 0.12767 0.698617
469 2 0.573023 0.512256 0.130351
470 2 0.340579 0.484194 0.211105
471 2 0.274472 0.0971581 0.197072
472 2 0.535687 0.266208 0.273587
473 2 0.0255802 0.949223 0.697283
474 2 0.205948 0.576161 0.9233
475 2 0.193341 0.765898 0.62327
476 2 0.108414 0.917501 0.861079
477 2 0.216499 0.992185 0.802259
478 2 0.142145 0.545691 0.884393
479 2 0.549316 0.573043 0.139672
480 2 0.254742 0.740949 0.167325
481 2 0.455918 0.12315 0.315406
482 2 0.0535465 0.240473 0.0612077
483 2 0.187875 0.104877 0.291898
484 2 0.0867614 0.306629 0.93107
485 2 0.0401141 0.256849 0.135229
486 2 0.00492061 0.0806993 0.818113
487 2 0.19782 0.13658 0.124888
488 2 0.341867 0.331612 0.419509
489 2 0.633088 0.487523 0.511471
490 2 0.823169 0.277963 0.269093
491 2 0.196826 0.527954 0.136187
492 2 0.519893 0.512559 0.841623
493 2 0.545773 0.305265 0.505309
494 2 0.939011 0.371862 0.0256581
495 2 0.958607 0.025478 0.286363
496 2 0.489311 0.479886 0.266914
497 2 0.27603 0.147962 0.48788
498 2 0.235614 0.418018 0.284207
499 2 0.315558 0.0223114 0.37814
500 2 0.127619 0.698754 0.481034
501 2 0.187578 0.999476 0.207156
502 2 0.206769 0.154559 0.157799
503 2 0.138219 0.421795 0.14424
504 2 0.143668 0.277287 0.998299
505 2 0.245404 0.455604 0.291497
506 2 0.178839 0.28992 0.469466
507 2 0.475419 0.443648 0.271603
508 2 0.956071 0.774964 0.0844829
509 2 0.261129 0.422061 0.227871
510 2 0.307233 0.31868 0.363271
511 2 0.0254744 0.524409 0.281906
512 2 0.116162 0.125065 0.248435
513 2 0.423375 0.465486 0.464189
514 2 0.240571 0.6693 0.0360134
515 2 0.018889 0.464162 0.384501
516 2 0.218501 0.37407 0.228158
517 2 0.406219 0.984789 0.214305
518 2 0.466411 0.187204 0.205757
519 2 0.13949 0.451163 0.464883
520 2 0.445961 0.558132 0.592584
521 2 0.0378931 0.962793 0.0287736
522 2 0.377987 0.172558 0.349062
523 2 0.994943 0.405123 0.404149
524 2 0.391254 0.115753 0.364747
525 2 0.301047 0.5469 0.304168
526 2 0.336021 0.839181 0.522838
527 2 0.925608 0.213483 0.248778
528 2 0.352933 0.976934 0.591733
529 2 0.283587 0.14009 0.28346
530 2 0.967541 0.878239 0.773644
531 2 0.148877 0.83308 0.422556
532 2 0.328809 0.538756 0.709281
533 2 0.696037 0.275108 0.343069
534 2 0.347759 0.942807 0.896359
535 2 0.74832 0.245555 0.16847
536 2 0.083327 0.321546 0.420935
537 2 0.166757 0.0546803 0.505116
538 2 0.29605 0.154453 0.395182
539 2 0.904838 0.122806 0.24895
540 2 0.254262 0.0943481 0.251756
541 2 0.221346 0.510364 0.163137
542 2 0.359465 0.243189 0.200599
543 2 0.580538 0.491647 0.27494
544 2 0.43318 0.401915 0.149391
545 2 0.555398 0.298152 0.217643
546 2 0.185571 0.360752 0.142509
547 2 0.667408 0.0443286 0.126965
548 2 0.264277 0.221376 0.368704
549 2 0.10149 0.141815 0.315487
550 2 0.608676 0.99845 0.89092
551 2 0.302994 0.379978 0.393977
552 2 0.331472 0.293986 0.0338724
553 2 0.464265 0.679849 0.224446
554 2 0.992346 0.158761 0.755175
555 2 0.173299 0.8894 0.351029
556 2 0.367615 0.121972 0.0841
557 2 0.499978 0.99829 0.376139
558 2 0.0968608 0.910686 0.503127
559 2 0.646532 0.147049 0.422674
560 2 0.56995 0.35408 0.560755
561 2 0.55755 0.589762 0.347177
562 2 0.00277491 0.090254 0.381089
563 2 0.172905 0.105647 0.184544
564 2 0.954623 0.423865 0.536451
565 2 0.431092 0.658884 0.0149426
566 2 0.0882189 0.431083 0.354888
567 2 0.0862125 0.565706 0.108563
568 2 0.376472 0.694724 0.987542
569 2 0.266185 0.0241243 0.414455
570 2 0.15726 0.579664 0.636307
571 2 0.0612741 0.515631 0.575618
572 2 0.833281 0.118457 0.038214
573 2 0.196296 0.449465 0.124562
574 2 0.733871 0.0731053 0.11779
575 2 0.605642 0.988365 0.441894
576 2 0.541608 0.0731797 0.153373
577 2 0.517398 0.490068 0.446618
578 2 0.28377 0.263518 0.622245
579 2 0.676157 0.549916 0.144888
580 2 0.0331542 0.999766 0.0150484
581 2 0.601594 0.309137 0.257499
582 2 0.135669 0.394128 0.0469578
583 2 0.968968 0.727113 0.206386
584 2 0.45338 0.335958 0.307289
585 2 0.329598 0.491735 0.249359
586 2 0.318823 0.445084 0.486644
587 2 0.596224 0.291286 0.636112
588 2 0.347872 0.355101 0.257332
589 2 0.171207 0.486642 0.564998
590 2 0.379437 0.524764 0.262799
591 2 0.0474651 0.529585 0.915338
592 2 0.0161825 0.254606 0.346339
593 2 0.049256 0.0313953 0.793936
594 2 0.328507 0.313299 0.184927
595 2 0.280725 0.135677 0.204344
596 2 0.78884 0.24913 0.951693
597 2 0.246226 0.388544 0.00409708
598 2 0.447403 0.528242 0.335827
599 2 0.993158 0.133482 0.202406
600 2 0.570279 0.325068 0.804711
601 2 0.396438 0.42186 0.077344
602 2 0.245851 0.854684 0.066107
603 2 0.113492 0.915752 0.822761
604 2 0.975169 0.586751 0.39926
605 2 0.344621 0.240888 0.140145
606 2 0.982415 0.34267 0.955668
607 2 0.451499 0.531057 0.723844
608 2 0.420104 0.41142 0.258403
609 2 0.937626 0.0526886 0.237044
610 2 0.922037 0.180814 0.270901
611 2 0.230339 0.133235 0.323669
612 2 0.545109 0.527322 0.621496
613 2 0.507982 0.282962 0.794943
614 2 0.420386 0.177828 0.461771
615 2 0.401487 0.0295998 0.105531
616 2 0.765258 0.33565 0.323002
617 2 0.145237 0.30552 0.905506
618 2 0.148494 0.0460373 0.779309
619 2 0.228185 0.53332 0.228699
620 2 0.925116 0.14989 0.172155
621 2 0.907053 0.701445 0.352646
622 2 0.212925 0.516574 0.836918
623 2 0.1584 0.0459908 0.385372
624 2 0.1965 0.0540556 0.970381
625 2 0.28463 0.353102 0.223243
626 2 0.137666 0.0201521 0.140783
627 2 0.176458 0.0876521 0.426575
628 2 0.5021 0.368767 0.346172
629 2 0.0187781 0.174146 0.812565
630 2 0.135148 0.46829 0.101148
631 2 0.172157 0.30884 0.202926
632 2 0.934522 0.337343 0.286306
633 2 0.0367896 0.177 0.269876
634 2 0.439126 0.464563 0.426807
635 2 0.133211 0.577857 0.351163
636 2 0.0165929 0.045772 0.934721
637 2 0.355295 0.431622 0.981236
638 2 0.0202247 0.408956 0.345149
639 2 0.533582 0.185856 0.430236
640 2 0.0368589 0.354436 0.171324
641 2 0.0485271 0.400001 0.216778
642 2 0.317371 0.873885 0.266368
643 2 0.431321 0.279971 0.149873
644 2 0.349016 0.0943046 0.500355
645 2 0.416736 0.022135 0.968438
646 2 0.255942 0.96848 0.962615
647 2 0.989845 0.76636 0.345403
648 2 0.104856 0.568375 0.177166
649 2 0.254241 0.18745 0.220003
650 2 0.293814 0.135956 0.771779
651 2 0.0684838 0.577342 0.361389
652 2 0.24567 0.0603758 0.710869
653 2 0.280475 0.324452 0.717867
654 2 0.355431 0.838425 0.807432
655 2 0.999095 0.97654 0.122715
656 2 0.354121 0.186446 0.234794
657 2 0.952906 0.0723114 0.421761
658 2 0.885613 0.0412076 0.192586
659 2 0.915931 0.182839 0.917567
660 2 0.411423 0.512282 0.969266
661 2 0.0178764 0.781017 0.400846
662 2 0.318761 0.787709 0.846203
663 2 0.520547 0.639927 0.328611
664 2 0.11464 0.361043 0.926042
665 2 0.611762 0.0324025 0.249558
666 2 0.909793 0.935287 0.666533
667 2 0.103298 0.0840054 0.821928
668 2 0.421029 0.757082 0.909798
669 2 0.232211 0.327274 0.115875
670 2 0.67407 0.451951 0.705722
671 2 0.105264 0.157677 0.1513
672 2 0.485934 0.817828 0.298101
673 2 0.391978 0.944675 0.0565753
674 2 0.336856 0.141833 0.101919
675 2 0.121351 0.101828 0.386354
676 2 0.396477 0.214269 0.508631
677 2 0.353714 0.470105 0.681269
678 2 0.306643 0.851747 0.752055
679 2 0.308594 0.649697 0.117827
680 2 0.408 0.370998 0.841205
681 2 0.497573 0.931957 0.0849267
682 2 0.367163 0.145657 0.377571
683 2 0.456114 0.566361 0.415428
684 2 0.250844 0.148245 0.22601
685 2 0.158981 0.897268 0.294445
686 2 0.0270744 0.281163 0.547252
687 2 0.245225 0.401845 0.944612
688 2 0.539709 0.0362713 0.106635
689 2 0.280999 0.953492 0.16745
690 2 0.311669 0.284181 0.675749
691 2 0.149537 0.345563 0.858424
692 2 0.625261 0.969094 0.370525
693 2 0.120609 0.0841696 0.147322
694 2 0.172276 0.59237 0.729421
695 2 0.408666 0.610117 0.20125
696 2 0.192827 0.546587 0.239372
697 2 0.402448 0.100963 0.530264
698 2 0.595745 0.734569 0.277535
699 2 0.340142 0.0888871 0.199823
700 2 0.433243 0.915842 0.305785
701 2 0.131617 0.723701 0.983849
702 2 0.0593525 0.395779 0.409194
703 2 0.364418 0.916996 0.221377
704 2 0.947403 0.00307546 0.0520011
705 2 0.0984485 0.247571 0.262579
706 2 0.00919106 0.0352653 0.19949
707 2 0.204859 0.416817 0.467671
708 2 0.351408 0.427873 0.428837
709 2 0.0557336 0.153347 0.661104
710 2 0.241297 0.663401 0.349593
711 2 0.96921 0.13546 0.0467236
712 2 0.58979 0.162021 0.286391
713 2 0.140728 0.125738 0.974407
714 2 0.871266 0.194175 0.951379
715 2 0.182943 0.506344 0.107298
716 2 0.34449 0.221226 0.296487
717 2 0.983412 0.0576762 0.291025
718 2 0.838455 0.0856966 0.934871
719 2 0.545816 0.595535 0.383185
720 2 0.402928 0.143414 0.0825381
721 2 0.540849 0.969049 0.329383
722 2 0.392712 0.899388 0.136586
723 2 0.924513 0.153659 0.329663
724 2 0.187361 0.237162 0.0339725
725 2 0.458914 0.457091 0.00496334
726 2 0.219429 0.977592 0.675288
727 2 0.247778 0.624585 0.155445
728 2 0.861761 0.251269 0.98933
729 2 0.299537 0.481293 0.396507
730 2 0.134737 0.0947864 0.350801
731 2 0.425161 0.406205 0.64884
732 2 0.137056 0.977892 0.0489482
733 2 0.322836 0.293134 0.21722
734 2 0.30864 0.178847 0.337988
735 2 0.108311 0.578174 0.13872
736 2 0.319102 0.426396 0.208391
737 2 0.674272 0.237429 0.0921163
738 2 0.27467 0.276189 0.335566
739 2 0.923011 0.0169226 0.0242092
740 2 0.209713 0.120913 0.177106
741 2 0.0426157 0.664429 0.00207404
742 2 0.223684 0.310545 0.238442
743 2 0.900205 0.222576 0.585001
744 2 0.972633 0.832663 0.31995
745 2 0.0844902 0.126428 0.00363927
746 2 0.0371208 0.0981315 0.326873
747 2 0.367514 0.543417 0.205787
748 2 0.552478 0.179249 0.354298
749 2 0.0949473 0.114818 0.635083
750 2 0.582203 0.154625 0.586363
751 2 0.504611 0.0286498 0.316616
752 2 0.961748 0.0205014 0.24832
753 2 0.509058 0.551943 0.76673
754 2 0.104928 0.0100848 0.188253
755 2 0.157328 0.263526 0.163641
756 2 0.993489 0.39392 0.484925
757 2 0.862721 0.0435237 0.325667
758 2 0.279359 0.561107 0.0536907
759 2 0.323955 0.586469 0.224677
760 2 0.801703 0.442012 0.403735
761 2 0.215613 0.0463798 0.0299158
762 2 0.122924 0.448488 0.340877
763 2 0.239432 0.496432 0.237229
764 2 0.475512 0.372525 0.559741
765 2 0.575321 0.572905 0.564202
766 2 0.091798 0.289931 0.0894739
767 2 0.242415 0.847996 0.319338
768 2 0.43417 0.815383 0.0438317
769 2 0.258983 0.347692 0.42812
770 2 0.227392 0.164808 0.383955
771 2 0.18374 0.47232 0.240494
772 2 0.35213 0.0121088 0.887204
773 2 0.208691 0.666176 0.0124391
774 2 0.0116951 0.0366019 0.638767
775 2 0.149419 0.219009 0.231916
776 2 0.386655 0.11076 0.849532
777 2 0.272856 0.132003 0.104506
778 2 0.0818679 0.554261 0.425836
779 2 0.033996 0.151135 0.463039
780 2 0.240643 0.0905509 0.216376
781 2 0.434171 0.437673 0.0732481
782 2 0.611538 0.148372 0.712825
783 2 0.512922 0.382198 0.553357
784 2 0.14721 0.496495 0.316343
785 2 0.428896 0.311108 0.239681
786 2 0.15627 0.339117 0.0957478
787 2 0.0322022 0.0325897 0.605594
788 2 0.275712 0.140465 0.427642
789 2 0.329554 0.830727 0.159663
790 2 0.384835 0.366082 0.522651
791 2 0.306668 0.970252 0.338006
792 2 0.308588 0.973782 0.0817889
793 2 0.507734 0.38074 0.104611
794 2 0.298358 0.178147 0.276073
795 2 0.223229 0.763829 0.164538
796 2 0.766991 0.985459 0.337285
797 2 0.301137 0.0594576 0.377836
798 2 0.56636 0.449648 0.22609
799 2 0.0742971 0.181426 0.418145
800 2 0.247619 0.189468 0.124905
801 2 0.258159 0.594054 0.455156
802 2 0.163981 0.953395 0.0674593
803 2 0.258223 0.852827 0.251759
804 2 0.155788 0.208045 0.895008
805 2 0.301654 0.188095 0.176567
806 2 0.38842 0.00291399 0.0403863
807 2 0.172658 0.261442 0.753505
808 2 0.118776 0.288123 0.303934
809 2 0.232522 0.221442 0.877013
810 2 0.263706 0.399716 0.344431
811 2 0.31488 0.178117 0.239408
812 2 0.295343 0.788227 0.498672
813 2 0.171602 0.916985 0.323871
814 2 0.153275 0.954897 0.149877
815 2 0.0457158 0.0978843 0.0992361
816 2 0.184777 0.154221 0.734891
817 2 0.326699 0.285789 0.940762
818 2 0.281604 0.490184 0.319772
819 2 0.753158 0.272285 0.297719
820 2 0.0421865 0.5958 0.280953
821 2 0.259883 0.884607 0.398171
822 2 0.943476 0.604131 0.381507
823 2 0.234051 0.489495 0.275437
824 2 0.137686 0.0730091 0.66894
825 2 0.322361 0.375107 0.361001
826 2 0.165754 0.0713926 0.354914
827 2 0.482171 0.051135 0.140777
828 2 0.245927 0.332903 0.266368
829 2 0.116324 0.973898 0.206407
830 2 0.139775 0.1564 0.259319
831 2 0.148827 0.578425 0.290225
832 2 0.120423 0.36274 0.384576
833 2 0.332639 0.0433414 0.278592
834 2 0.933995 0.515384 0.033263
835 2 0.447489 0.760522 0.0578606
836 2 0.313085 0.383674 0.506819
837 2 0.55814 0.39262 0.863097
838 2 0.563759 0.0438565 0.138313
839 2 0.0119713 0.0460119 0.109048
840 2 0.630594 0.138691 0.388758
841 2 0.529473 0.999061 0.0972265
842 2 0.218211 0.230724 0.482184
843 2 0.298724 0.296559 0.641341
844 2 0.0461578 0.71204 0.954025
845 2 0.860031 0.181788 0.00585084
846 2 0.0552643 0.605842 0.982427
847 2 0.391529 0.499219 0.360735
848 2 0.136758 0.741542 0.252517
849 2 0.137392 0.753072 0.365017
850 2 0.073051 0.196798 0.119497
851 2 0.147232 0.516547 0.352474
852 2 0.277061 0.0673066 0.105847
853 2 0.230503 0.31594 0.200276
854 2 0.661444 0.31962 0.298907
855 2 0.175346 0.851666 0.950657
856 2 0.379641 0.504013 0.322958
857 2 0.0927486 0.599552 0.889339
858 2 0.283783 0.395293 0.94839
859 2 0.354941 0.333915 0.319892
860 2 0.366114 0.281682 0.0529338
861 2 0.466549 0.345459 0.924303
862 2 0.291746 0.478107 0.532191
863 2 0.962259 0.338321 0.486519
864 2 0.929875 0.581495 0.269177
865 2 0.0942991 0.37815 0.812184
866 2 0.404991 0.832542 0.989691
867 2 0.401456 0.0581042 0.443289
868 2 0.191518 0.39187 0.979997
869 2 0.255837 0.635554 0.0504466
870 2 0.574803 0.306105 0.392508
871 2 0.330267 0.57297 0.365454
872 2 0.688607 0.34628 0.574765
873 2 0.0384982 0.632441 0.335683
874 2 0.662431 0.437057 0.571082
875 2 0.124144 0.346189 0.261731
876 2 0.955923 0.939048 0.949838
877 2 0.586778 0.387758 0.445942
878 2 0.884765 0.918295 0.18397
879 2 0.399637 0.0556157 0.482315
880 2 0.0937621 0.755336 0.324998
881 2 0.20513 0.314737 0.0550537
882 2 0.0767487 0.128689 0.144994
883 2 0.262617 0.231747 0.900014
884 2 0.42754 0.128697 0.111883
885 2 0.894321 0.380818 0.0908357
886 2 0.381063 0.657679 0.359267
887 2 0.142343 0.0531243 0.161419
888 2 0.432455 0.0982262 0.405889
889 2 0.0685564 0.490267 0.345241
890 2 0.616197 0.545119 0.267724
891 2 0.860295 0.519262 0.22023
892 2 0.182409 0.211788 0.112908
893 2 0.0830885 0.448838 0.300847
894 2 0.236501 0.767564 0.3883
895 2 0.296311 0.0801108 0.320586
896 2 0.159181 0.951823 0.396315
897 2 0.563028 0.474163 0.865568
898 2 0.367487 0.374875 0.002468
899 2 0.026417 0.864229 0.258148
900 2 0.123645 0.200041 0.207548
901 2 0.0651597 0.867685 0.762422
902 2 0.530706 0.937956 0.106162
903 2 0.0432298 0.019449 0.109151