 vasp.6.5.0 16Dec24 (build Jan 20 2025 08:32:48) complex                         
 executed on        HPECrayEX_GCC date 2025.07.21  06:06:03
 running   64 mpi-ranks, with    1 threads/rank, on    1 nodes
 distrk:  each k-point on   64 cores,    1 groups
 distr:  one band on NCORE=  16 cores,    4 groups


--------------------------------------------------------------------------------------------------------


 INCAR:
   SYSTEM = a-Si SPC
   NCORE = 16
   ISTART = 1
   ICHARG = 1
   ISPIN = 1
   ISYM = 1
   EDIFF = 1E-6
   NELM = 150
   EDIFFG = -0.01
   NSW = 0
   ISIF = 2
   IBRION = -1
   PREC = Accurate
   ENCUT = 1200
   KSPACING = 0.23
   KGAMMA = .TRUE.
   METAGGA = SCAN
   LASPH = .TRUE.
   LDIAG = .FALSE.
   LMIXTAU = .TRUE.
   ADDGRID = .TRUE.
   ALGO = Normal
   ISMEAR = 0
   SIGMA = 0.1
   LORBIT = 11
   NEDOS = 2000
   LWAVE = .FALSE.
   LCHARG = .FALSE.

 POTCAR:    PAW_PBE H 15Jun2001                   
 POTCAR:    PAW_PBE Si 05Jan2001                  
 POTCAR:    PAW_PBE H 15Jun2001                   
   SHA256 =  030f79b5d3ab3cf0e668861823c8fb652ff669f3e15e46930bd03bfd63a607b6 H/POTCAR              
   COPYR  = (c) Copyright 15Jun2001 Georg Kresse                                                    
   COPYR  = This file is part of the software VASP. Any use, copying, and all other rights are regul
   COPYR  = If you do not have a valid VASP license, you may not use, copy or distribute this file. 
   VRHFIN =H: ultrasoft test                                                                        
   LEXCH  = PE                                                                                      
   EATOM  =    12.4884 eV,    0.9179 Ry                                                             
                                                                                                    
   TITEL  = PAW_PBE H 15Jun2001                                                                     
   LULTRA =        F    use ultrasoft PP ?                                                          
   IUNSCR =        0    unscreen: 0-lin 1-nonlin 2-no                                               
   RPACOR =    0.000    partial core radius                                                         
   POMASS =    1.000; ZVAL   =    1.000    mass and valenz                                          
   RCORE  =    1.100    outmost cutoff radius                                                       
   RWIGS  =    0.700; RWIGS  =    0.370    wigner-seitz radius (au A)                               
   ENMAX  =  250.000; ENMIN  =  200.000 eV                                                          
   RCLOC  =    0.701    cutoff for local pot                                                        
   LCOR   =        T    correct aug charges                                                         
   LPAW   =        T    paw PP                                                                      
   EAUG   =  400.000                                                                                
   RMAX   =    1.123    core radius for proj-oper                                                   
   RAUG   =    1.200    factor for augmentation sphere                                              
   RDEP   =    1.112    radius for radial grids                                                     
   RDEPT  =    0.926    core radius for aug-charge                                                  
                                                                                                    
   Atomic configuration                                                                             
    2 entries                                                                                       
     n  l   j            E        occ.                                                              
     1  0  0.50        -6.4927   1.0000                                                             
     2  1  0.50        -3.4015   0.0000                                                             
   Description                                                                                      
     l       E           TYP  RCUT    TYP  RCUT                                                     
     0     -6.4927494     23  1.100                                                                 
     0      6.8029130     23  1.100                                                                 
     1     -4.0817478     23  1.100                                                                 
  local pseudopotential read in
  atomic valenz-charges read in
  non local Contribution for L=           0  read in
    real space projection operators read in
  non local Contribution for L=           0  read in
    real space projection operators read in
  non local Contribution for L=           1  read in
    real space projection operators read in
    PAW grid and wavefunctions read in

   number of l-projection  operators is LMAX  =           3
   number of lm-projection operators is LMMAX =           5

 POTCAR:    PAW_PBE Si 05Jan2001                  
   SHA256 =  79d9987ad8750f624c4d6acb2a16d13abf6a777132adc04dc6c8399be72b42bb Si/POTCAR             
   COPYR  = (c) Copyright 05Jan2001 Georg Kresse                                                    
   COPYR  = This file is part of the software VASP. Any use, copying, and all other rights are regul
   COPYR  = If you do not have a valid VASP license, you may not use, copy or distribute this file. 
   VRHFIN =Si: s2p2                                                                                 
   LEXCH  = PE                                                                                      
   EATOM  =   103.0669 eV,    7.5752 Ry                                                             
                                                                                                    
   TITEL  = PAW_PBE Si 05Jan2001                                                                    
   LULTRA =        F    use ultrasoft PP ?                                                          
   IUNSCR =        1    unscreen: 0-lin 1-nonlin 2-no                                               
   RPACOR =    1.500    partial core radius                                                         
   POMASS =   28.085; ZVAL   =    4.000    mass and valenz                                          
   RCORE  =    1.900    outmost cutoff radius                                                       
   RWIGS  =    2.480; RWIGS  =    1.312    wigner-seitz radius (au A)                               
   ENMAX  =  245.345; ENMIN  =  184.009 eV                                                          
   ICORE  =        2    local potential                                                             
   LCOR   =        T    correct aug charges                                                         
   LPAW   =        T    paw PP                                                                      
   EAUG   =  322.069                                                                                
   DEXC   =    0.000                                                                                
   RMAX   =    1.950    core radius for proj-oper                                                   
   RAUG   =    1.300    factor for augmentation sphere                                              
   RDEP   =    1.993    radius for radial grids                                                     
   RDEPT  =    1.837    core radius for aug-charge                                                  
                                                                                                    
   Atomic configuration                                                                             
    6 entries                                                                                       
     n  l   j            E        occ.                                                              
     1  0  0.50     -1785.8828   2.0000                                                             
     2  0  0.50      -139.4969   2.0000                                                             
     2  1  1.50       -95.5546   6.0000                                                             
     3  0  0.50       -10.8127   2.0000                                                             
     3  1  0.50        -4.0811   2.0000                                                             
     3  2  1.50        -4.0817   0.0000                                                             
   Description                                                                                      
     l       E           TYP  RCUT    TYP  RCUT                                                     
     0    -10.8127223     23  1.900                                                                 
     0     -7.6451159     23  1.900                                                                 
     1     -4.0811372     23  1.900                                                                 
     1      2.4879257     23  1.900                                                                 
     2     -4.0817478      7  1.900                                                                 
  local pseudopotential read in
  partial core-charges read in
  partial kinetic energy density read in
  atomic valenz-charges read in
  non local Contribution for L=           0  read in
    real space projection operators read in
  non local Contribution for L=           0  read in
    real space projection operators read in
  non local Contribution for L=           1  read in
    real space projection operators read in
  non local Contribution for L=           1  read in
    real space projection operators read in
    PAW grid and wavefunctions read in

   number of l-projection  operators is LMAX  =           4
   number of lm-projection operators is LMMAX =           8

 -----------------------------------------------------------------------------
|                                                                             |
|               ----> ADVICE to this user running VASP <----                  |
|                                                                             |
|     You have a (more or less) 'large supercell' and for larger cells it     |
|     might be more efficient to use real-space projection operators.         |
|     Therefore, try LREAL= Auto in the INCAR file.                           |
|     Mind: For very accurate calculation, you might also keep the            |
|     reciprocal projection scheme (i.e. LREAL=.FALSE.).                      |
|                                                                             |
 -----------------------------------------------------------------------------

 -----------------------------------------------------------------------------
|                                                                             |
|               ----> ADVICE to this user running VASP <----                  |
|                                                                             |
|     You enforced a specific xc type in the INCAR file but a different       |
|     type was found in the POTCAR file.                                      |
|     I HOPE YOU KNOW WHAT YOU ARE DOING!                                     |
|                                                                             |
 -----------------------------------------------------------------------------

  PAW_PBE H 15Jun2001                   :
 energy of atom  1       EATOM=  -12.4884
 kinetic energy error for atom=    0.0000 (will be added to EATOM!!)
  PAW_PBE Si 05Jan2001                  :
 energy of atom  2       EATOM= -103.0669
 kinetic energy error for atom=    0.0001 (will be added to EATOM!!)


 POSCAR: H  Si
  positions in cartesian coordinates
  No initial velocities read in


 exchange-correlation table for SCAN
   RHO(1)=    0.500       N(1)  =     2000
   RHO(2)=  100.500       N(2)  =     4000



--------------------------------------------------------------------------------------------------------


 ion  position               nearest neighbor table
   1  0.099  0.901  0.248-  33 1.52
   2  0.935  0.065  0.220-  33 1.50
   3  0.354  0.146  0.248-  35 1.60
   4  0.180  0.320  0.216-  35 1.66
   5  0.898  0.602  0.248-  15 0.78  41 1.56
   6  0.065  0.435  0.219-  41 1.53
   7  0.352  0.648  0.248-  43 1.57
   8  0.184  0.816  0.219-  43 1.55
   9  0.606  0.894  0.248-  49 1.62
  10  0.436  0.064  0.219-  49 1.54
  11  0.649  0.351  0.248-  13 0.71  51 1.55
  12  0.816  0.184  0.219-  51 1.54
  13  0.603  0.397  0.248-  11 0.71  57 1.58
  14  0.429  0.571  0.217-  57 1.66
  15  0.847  0.653  0.248-   5 0.78  59 1.50
  16  0.681  0.819  0.219-  59 1.59
  17  0.018  0.482  0.752- 134 1.64
  18  0.187  0.313  0.781- 134 1.49
  19  0.472  0.028  0.752- 136 1.49
  20  0.304  0.196  0.782- 136 1.62
  21  0.023  0.977  0.752-  27 0.74 142 1.57
  22  0.189  0.811  0.781- 142 1.52
  23  0.475  0.525  0.752- 144 1.54
  24  0.316  0.684  0.778- 144 1.37
  25  0.735  0.265  0.752- 150 1.69
  26  0.564  0.436  0.781- 150 1.51
  27  0.974  0.026  0.752-  21 0.74 152 1.52
  28  0.805  0.195  0.782- 152 1.60
  29  0.727  0.773  0.752-  31 0.73 158 1.56
  30  0.562  0.938  0.780- 158 1.47
  31  0.774  0.726  0.752-  29 0.73 160 1.55
  32  0.942  0.558  0.781- 160 1.56
  33  0.000  0.000  0.248-   2 1.50   1 1.52  34 2.35  60 2.35
  34  0.125  0.125  0.281-  33 2.35  35 2.35  37 2.35  39 2.35
  35  0.250  0.250  0.248-   3 1.60   4 1.66  34 2.35  36 2.35
  36  0.375  0.375  0.281-  35 2.35  57 2.35  53 2.35  47 2.35
  37  0.000  0.250  0.315-  38 2.35  56 2.35  52 2.35  34 2.35
  38  0.125  0.375  0.349-  37 2.35  47 2.35  67 2.35  73 2.35
  39  0.250  0.000  0.315-  40 2.35  46 2.35  44 2.35  34 2.35
  40  0.375  0.125  0.349-  39 2.35  53 2.35  67 2.35  81 2.35
  41  0.000  0.500  0.248-   6 1.53   5 1.56  42 2.35  52 2.35
  42  0.125  0.625  0.281-  41 2.35  43 2.35  45 2.35  47 2.35
  43  0.250  0.750  0.248-   8 1.55   7 1.57  42 2.35  44 2.35
  44  0.375  0.875  0.281-  43 2.35  49 2.35  39 2.35  61 2.35
  45  0.000  0.750  0.315-  46 2.35  64 2.35  60 2.35  42 2.35
  46  0.125  0.875  0.349-  39 2.35  45 2.35  65 2.35  75 2.35
  47  0.250  0.500  0.315-  38 2.35  48 2.35  42 2.35  36 2.35
  48  0.375  0.625  0.349-  47 2.35  61 2.35  75 2.35  89 2.35
  49  0.500  0.000  0.248-  10 1.54   9 1.62  44 2.35  50 2.35
  50  0.625  0.125  0.281-  49 2.35  51 2.35  53 2.35  55 2.35
  51  0.750  0.250  0.248-  12 1.54  11 1.55  50 2.35  52 2.35
  52  0.875  0.375  0.281-  41 2.35  51 2.35  37 2.35  63 2.35
  53  0.500  0.250  0.315-  40 2.35  54 2.35  50 2.35  36 2.35
  54  0.625  0.375  0.349-  53 2.35  63 2.35  83 2.35  89 2.35
  55  0.750  0.000  0.315-  56 2.35  62 2.35  60 2.35  50 2.35
  56  0.875  0.125  0.349-  37 2.35  55 2.35  65 2.35  83 2.35
  57  0.500  0.500  0.248-  13 1.58  14 1.66  36 2.35  58 2.35
  58  0.625  0.625  0.281-  57 2.35  59 2.35  61 2.35  63 2.35
  59  0.750  0.750  0.248-  15 1.50  16 1.59  58 2.35  60 2.35
  60  0.875  0.875  0.281-  33 2.35  59 2.35  55 2.35  45 2.35
  61  0.500  0.750  0.315-  48 2.35  62 2.35  58 2.35  44 2.35
  62  0.625  0.875  0.349-  55 2.35  61 2.35  81 2.35  91 2.35
  63  0.750  0.500  0.315-  54 2.35  64 2.35  58 2.35  52 2.35
  64  0.875  0.625  0.349-  45 2.35  63 2.35  73 2.35  91 2.35
  65  0.000  0.000  0.382-  46 2.35  56 2.35  66 2.35  92 2.35
  66  0.125  0.125  0.416-  65 2.35  67 2.35  69 2.35  71 2.35
  67  0.250  0.250  0.382-  38 2.35  40 2.35  66 2.35  68 2.35
  68  0.375  0.375  0.416-  67 2.35  89 2.35  85 2.35  79 2.35
  69  0.000  0.250  0.450-  70 2.35  88 2.35  84 2.35  66 2.35
  70  0.125  0.375  0.483-  69 2.35  79 2.35  99 2.35 105 2.35
  71  0.250  0.000  0.450-  72 2.35  78 2.35  76 2.35  66 2.35
  72  0.375  0.125  0.483-  71 2.35  85 2.35  99 2.35 113 2.35
  73  0.000  0.500  0.382-  38 2.35  64 2.35  74 2.35  84 2.35
  74  0.125  0.625  0.416-  73 2.35  75 2.35  77 2.35  79 2.35
  75  0.250  0.750  0.382-  46 2.35  48 2.35  74 2.35  76 2.35
  76  0.375  0.875  0.416-  75 2.35  81 2.35  71 2.35  93 2.35
  77  0.000  0.750  0.450-  78 2.35  96 2.35  92 2.35  74 2.35
  78  0.125  0.875  0.483-  71 2.35  77 2.35  97 2.35 107 2.35
  79  0.250  0.500  0.450-  70 2.35  80 2.35  74 2.35  68 2.35
  80  0.375  0.625  0.483-  79 2.35  93 2.35 107 2.35 121 2.35
  81  0.500  0.000  0.382-  40 2.35  62 2.35  76 2.35  82 2.35
  82  0.625  0.125  0.416-  81 2.35  83 2.35  85 2.35  87 2.35
  83  0.750  0.250  0.382-  54 2.35  56 2.35  82 2.35  84 2.35
  84  0.875  0.375  0.416-  73 2.35  83 2.35  69 2.35  95 2.35
  85  0.500  0.250  0.450-  72 2.35  86 2.35  82 2.35  68 2.35
  86  0.625  0.375  0.483-  85 2.35  95 2.35 115 2.35 121 2.35
  87  0.750  0.000  0.450-  88 2.35  94 2.35  92 2.35  82 2.35
  88  0.875  0.125  0.483-  69 2.35  87 2.35  97 2.35 115 2.35
  89  0.500  0.500  0.382-  48 2.35  54 2.35  68 2.35  90 2.35
  90  0.625  0.625  0.416-  89 2.35  91 2.35  93 2.35  95 2.35
  91  0.750  0.750  0.382-  62 2.35  64 2.35  90 2.35  92 2.35
  92  0.875  0.875  0.416-  65 2.35  91 2.35  87 2.35  77 2.35
  93  0.500  0.750  0.450-  80 2.35  94 2.35  90 2.35  76 2.35
  94  0.625  0.875  0.483-  87 2.35  93 2.35 113 2.35 123 2.35
  95  0.750  0.500  0.450-  86 2.35  96 2.35  90 2.35  84 2.35
  96  0.875  0.625  0.483-  77 2.35  95 2.35 105 2.35 123 2.35
  97  0.000  0.000  0.517-  78 2.35  88 2.35  98 2.35 124 2.35
  98  0.125  0.125  0.550-  97 2.35  99 2.35 101 2.35 103 2.35
  99  0.250  0.250  0.517-  70 2.35  72 2.35  98 2.35 100 2.35
 100  0.375  0.375  0.550-  99 2.35 121 2.35 117 2.35 111 2.35
 101  0.000  0.250  0.584- 102 2.35 120 2.35 116 2.35  98 2.35
 102  0.125  0.375  0.618- 101 2.35 111 2.35 131 2.35 137 2.35
 103  0.250  0.000  0.584- 104 2.35 110 2.35 108 2.35  98 2.35
 104  0.375  0.125  0.618- 103 2.35 117 2.35 131 2.35 145 2.35
 105  0.000  0.500  0.517-  70 2.35  96 2.35 106 2.35 116 2.35
 106  0.125  0.625  0.550- 105 2.35 107 2.35 109 2.35 111 2.35
 107  0.250  0.750  0.517-  78 2.35  80 2.35 106 2.35 108 2.35
 108  0.375  0.875  0.550- 107 2.35 113 2.35 103 2.35 125 2.35
 109  0.000  0.750  0.584- 110 2.35 128 2.35 124 2.35 106 2.35
 110  0.125  0.875  0.618- 103 2.35 109 2.35 129 2.35 139 2.35
 111  0.250  0.500  0.584- 102 2.35 112 2.35 106 2.35 100 2.35
 112  0.375  0.625  0.618- 111 2.35 125 2.35 139 2.35 153 2.35
 113  0.500  0.000  0.517-  72 2.35  94 2.35 108 2.35 114 2.35
 114  0.625  0.125  0.550- 113 2.35 115 2.35 117 2.35 119 2.35
 115  0.750  0.250  0.517-  86 2.35  88 2.35 114 2.35 116 2.35
 116  0.875  0.375  0.550- 105 2.35 115 2.35 101 2.35 127 2.35
 117  0.500  0.250  0.584- 104 2.35 118 2.35 114 2.35 100 2.35
 118  0.625  0.375  0.618- 117 2.35 127 2.35 147 2.35 153 2.35
 119  0.750  0.000  0.584- 120 2.35 126 2.35 124 2.35 114 2.35
 120  0.875  0.125  0.618- 101 2.35 119 2.35 129 2.35 147 2.35
 121  0.500  0.500  0.517-  80 2.35  86 2.35 100 2.35 122 2.35
 122  0.625  0.625  0.550- 121 2.35 123 2.35 125 2.35 127 2.35
 123  0.750  0.750  0.517-  94 2.35  96 2.35 122 2.35 124 2.35
 124  0.875  0.875  0.550-  97 2.35 123 2.35 119 2.35 109 2.35
 125  0.500  0.750  0.584- 112 2.35 126 2.35 122 2.35 108 2.35
 126  0.625  0.875  0.618- 119 2.35 125 2.35 145 2.35 155 2.35
 127  0.750  0.500  0.584- 118 2.35 128 2.35 122 2.35 116 2.35
 128  0.875  0.625  0.618- 109 2.35 127 2.35 137 2.35 155 2.35
 129  0.000  0.000  0.651- 110 2.35 120 2.35 130 2.35 156 2.35
 130  0.125  0.125  0.685- 129 2.35 131 2.35 133 2.35 135 2.35
 131  0.250  0.250  0.651- 102 2.35 104 2.35 130 2.35 132 2.35
 132  0.375  0.375  0.685- 131 2.35 153 2.35 149 2.35 143 2.35
 133  0.000  0.250  0.719- 134 2.35 152 2.35 148 2.35 130 2.35
 134  0.125  0.375  0.752-  18 1.49  17 1.64 133 2.35 143 2.35
 135  0.250  0.000  0.719- 136 2.35 142 2.35 140 2.35 130 2.35
 136  0.375  0.125  0.752-  19 1.49  20 1.62 135 2.35 149 2.35
 137  0.000  0.500  0.651- 102 2.35 128 2.35 138 2.35 148 2.35
 138  0.125  0.625  0.685- 137 2.35 139 2.35 141 2.35 143 2.35
 139  0.250  0.750  0.651- 110 2.35 112 2.35 138 2.35 140 2.35
 140  0.375  0.875  0.685- 139 2.35 145 2.35 135 2.35 157 2.35
 141  0.000  0.750  0.719- 142 2.35 160 2.35 156 2.35 138 2.35
 142  0.125  0.875  0.752-  22 1.52  21 1.57 135 2.35 141 2.35
 143  0.250  0.500  0.719- 134 2.35 144 2.35 138 2.35 132 2.35
 144  0.375  0.625  0.752-  24 1.37  23 1.54 143 2.35 157 2.35
 145  0.500  0.000  0.651- 104 2.35 126 2.35 140 2.35 146 2.35
 146  0.625  0.125  0.685- 145 2.35 147 2.35 149 2.35 151 2.35
 147  0.750  0.250  0.651- 118 2.35 120 2.35 146 2.35 148 2.35
 148  0.875  0.375  0.685- 137 2.35 147 2.35 133 2.35 159 2.35
 149  0.500  0.250  0.719- 136 2.35 150 2.35 146 2.35 132 2.35
 150  0.625  0.375  0.752-  26 1.51  25 1.69 149 2.35 159 2.35
 151  0.750  0.000  0.719- 152 2.35 158 2.35 156 2.35 146 2.35
 152  0.875  0.125  0.752-  27 1.52  28 1.60 133 2.35 151 2.35
 153  0.500  0.500  0.651- 112 2.35 118 2.35 132 2.35 154 2.35
 154  0.625  0.625  0.685- 153 2.35 155 2.35 157 2.35 159 2.35
 155  0.750  0.750  0.651- 126 2.35 128 2.35 154 2.35 156 2.35
 156  0.875  0.875  0.685- 129 2.35 155 2.35 151 2.35 141 2.35
 157  0.500  0.750  0.719- 144 2.35 158 2.35 154 2.35 140 2.35
 158  0.625  0.875  0.752-  30 1.47  29 1.56 151 2.35 157 2.35
 159  0.750  0.500  0.719- 150 2.35 160 2.35 154 2.35 148 2.35
 160  0.875  0.625  0.752-  31 1.55  32 1.56 141 2.35 159 2.35

  LATTYP: Found a simple tetragonal cell.
 ALAT       =    10.8600000000
 C/A-ratio  =     3.7166206262
  
  Lattice vectors:
  
 A1 = (  10.8600000000,   0.0000000000,   0.0000000000)
 A2 = (   0.0000000000,  10.8600000000,   0.0000000000)
 A3 = (   0.0000000000,   0.0000000000,  40.3625000000)


Analysis of symmetry for initial positions (statically):
=====================================================================
 Subroutine PRICEL returns:
 Original cell was already a primitive cell.
 

 Routine SETGRP: Setting up the symmetry group for a 
 simple tetragonal supercell.


 Subroutine GETGRP returns: Found  1 space group operations
 (whereof  1 operations were pure point group operations)
 out of a pool of 16 trial point group operations.


The static configuration has the point symmetry C_1 .


Analysis of symmetry for dynamics (positions and initial velocities):
=====================================================================
 Subroutine PRICEL returns:
 Original cell was already a primitive cell.
 

 Routine SETGRP: Setting up the symmetry group for a 
 simple tetragonal supercell.


 Subroutine GETGRP returns: Found  1 space group operations
 (whereof  1 operations were pure point group operations)
 out of a pool of 16 trial point group operations.


The dynamic configuration has the point symmetry C_1 .


 Subroutine INISYM returns: Found  1 space group operations
 (whereof  1 operations are pure point group operations),
 and found     1 'primitive' translations


----------------------------------------------------------------------------------------

                                     Primitive cell                                     

  volume of cell :    4760.3371

  direct lattice vectors                    reciprocal lattice vectors
    10.860000000  0.000000000  0.000000000     0.092081031  0.000000000  0.000000000
     0.000000000 10.860000000  0.000000000     0.000000000  0.092081031  0.000000000
     0.000000000  0.000000000 40.362500000     0.000000000  0.000000000  0.024775472

  length of vectors
    10.860000000 10.860000000 40.362500000     0.092081031  0.092081031  0.024775472

  position of ions in fractional coordinates (direct lattice)
     0.099063447  0.900936553  0.247754723
     0.935033063  0.064966937  0.220048484
     0.354435670  0.145564330  0.247754723
     0.180184787  0.319815213  0.216366215
     0.898239569  0.601760431  0.247754723
     0.065437592  0.434562408  0.219088003
     0.352122176  0.647877824  0.247754723
     0.183991409  0.816008591  0.218735066
     0.605695122  0.894304878  0.247754723
     0.435878271  0.064121729  0.218578308
     0.648929803  0.351070197  0.247754723
     0.816004963  0.183995037  0.219035581
     0.602742743  0.397257257  0.247754723
     0.429345393  0.570654607  0.216503761
     0.847341928  0.652658072  0.247754723
     0.680570915  0.819429085  0.218660073
     0.018296127  0.481703873  0.752245277
     0.186768871  0.313231129  0.780619345
     0.472249548  0.027750452  0.752245277
     0.304074079  0.195925921  0.781938978
     0.022572932  0.977427068  0.752245277
     0.189466082  0.810533918  0.780671409
     0.474950201  0.525049799  0.752245277
     0.316029182  0.683970818  0.777619490
     0.735140542  0.264859458  0.752245277
     0.563576357  0.436423643  0.781369513
     0.974209417  0.025790583  0.752245277
     0.805484718  0.194515282  0.781934918
     0.726676763  0.773323237  0.752245277
     0.562200000  0.937800000  0.779733908
     0.774399221  0.725600779  0.752245277
     0.942228747  0.557771253  0.781361035
     0.000000000  0.000000000  0.247754723
     0.125000000  0.125000000  0.281387426
     0.250000000  0.250000000  0.247754723
     0.375000000  0.375000000  0.281387426
     0.000000000  0.250000000  0.315020130
     0.125000000  0.375000000  0.348652834
     0.250000000  0.000000000  0.315020130
     0.375000000  0.125000000  0.348652834
     0.000000000  0.500000000  0.247754723
     0.125000000  0.625000000  0.281387426
     0.250000000  0.750000000  0.247754723
     0.375000000  0.875000000  0.281387426
     0.000000000  0.750000000  0.315020130
     0.125000000  0.875000000  0.348652834
     0.250000000  0.500000000  0.315020130
     0.375000000  0.625000000  0.348652834
     0.500000000  0.000000000  0.247754723
     0.625000000  0.125000000  0.281387426
     0.750000000  0.250000000  0.247754723
     0.875000000  0.375000000  0.281387426
     0.500000000  0.250000000  0.315020130
     0.625000000  0.375000000  0.348652834
     0.750000000  0.000000000  0.315020130
     0.875000000  0.125000000  0.348652834
     0.500000000  0.500000000  0.247754723
     0.625000000  0.625000000  0.281387426
     0.750000000  0.750000000  0.247754723
     0.875000000  0.875000000  0.281387426
     0.500000000  0.750000000  0.315020130
     0.625000000  0.875000000  0.348652834
     0.750000000  0.500000000  0.315020130
     0.875000000  0.625000000  0.348652834
     0.000000000  0.000000000  0.382285537
     0.125000000  0.125000000  0.415918241
     0.250000000  0.250000000  0.382285537
     0.375000000  0.375000000  0.415918241
     0.000000000  0.250000000  0.449550945
     0.125000000  0.375000000  0.483183648
     0.250000000  0.000000000  0.449550945
     0.375000000  0.125000000  0.483183648
     0.000000000  0.500000000  0.382285537
     0.125000000  0.625000000  0.415918241
     0.250000000  0.750000000  0.382285537
     0.375000000  0.875000000  0.415918241
     0.000000000  0.750000000  0.449550945
     0.125000000  0.875000000  0.483183648
     0.250000000  0.500000000  0.449550945
     0.375000000  0.625000000  0.483183648
     0.500000000  0.000000000  0.382285537
     0.625000000  0.125000000  0.415918241
     0.750000000  0.250000000  0.382285537
     0.875000000  0.375000000  0.415918241
     0.500000000  0.250000000  0.449550945
     0.625000000  0.375000000  0.483183648
     0.750000000  0.000000000  0.449550945
     0.875000000  0.125000000  0.483183648
     0.500000000  0.500000000  0.382285537
     0.625000000  0.625000000  0.415918241
     0.750000000  0.750000000  0.382285537
     0.875000000  0.875000000  0.415918241
     0.500000000  0.750000000  0.449550945
     0.625000000  0.875000000  0.483183648
     0.750000000  0.500000000  0.449550945
     0.875000000  0.625000000  0.483183648
     0.000000000  0.000000000  0.516816352
     0.125000000  0.125000000  0.550449055
     0.250000000  0.250000000  0.516816352
     0.375000000  0.375000000  0.550449055
     0.000000000  0.250000000  0.584081759
     0.125000000  0.375000000  0.617714463
     0.250000000  0.000000000  0.584081759
     0.375000000  0.125000000  0.617714463
     0.000000000  0.500000000  0.516816352
     0.125000000  0.625000000  0.550449055
     0.250000000  0.750000000  0.516816352
     0.375000000  0.875000000  0.550449055
     0.000000000  0.750000000  0.584081759
     0.125000000  0.875000000  0.617714463
     0.250000000  0.500000000  0.584081759
     0.375000000  0.625000000  0.617714463
     0.500000000  0.000000000  0.516816352
     0.625000000  0.125000000  0.550449055
     0.750000000  0.250000000  0.516816352
     0.875000000  0.375000000  0.550449055
     0.500000000  0.250000000  0.584081759
     0.625000000  0.375000000  0.617714463
     0.750000000  0.000000000  0.584081759
     0.875000000  0.125000000  0.617714463
     0.500000000  0.500000000  0.516816352
     0.625000000  0.625000000  0.550449055
     0.750000000  0.750000000  0.516816352
     0.875000000  0.875000000  0.550449055
     0.500000000  0.750000000  0.584081759
     0.625000000  0.875000000  0.617714463
     0.750000000  0.500000000  0.584081759
     0.875000000  0.625000000  0.617714463
     0.000000000  0.000000000  0.651347166
     0.125000000  0.125000000  0.684979870
     0.250000000  0.250000000  0.651347166
     0.375000000  0.375000000  0.684979870
     0.000000000  0.250000000  0.718612574
     0.125000000  0.375000000  0.752245277
     0.250000000  0.000000000  0.718612574
     0.375000000  0.125000000  0.752245277
     0.000000000  0.500000000  0.651347166
     0.125000000  0.625000000  0.684979870
     0.250000000  0.750000000  0.651347166
     0.375000000  0.875000000  0.684979870
     0.000000000  0.750000000  0.718612574
     0.125000000  0.875000000  0.752245277
     0.250000000  0.500000000  0.718612574
     0.375000000  0.625000000  0.752245277
     0.500000000  0.000000000  0.651347166
     0.625000000  0.125000000  0.684979870
     0.750000000  0.250000000  0.651347166
     0.875000000  0.375000000  0.684979870
     0.500000000  0.250000000  0.718612574
     0.625000000  0.375000000  0.752245277
     0.750000000  0.000000000  0.718612574
     0.875000000  0.125000000  0.752245277
     0.500000000  0.500000000  0.651347166
     0.625000000  0.625000000  0.684979870
     0.750000000  0.750000000  0.651347166
     0.875000000  0.875000000  0.684979870
     0.500000000  0.750000000  0.718612574
     0.625000000  0.875000000  0.752245277
     0.750000000  0.500000000  0.718612574
     0.875000000  0.625000000  0.752245277

  ion indices of the primitive-cell ions
   primitive index   ion index
                 1           1
                 2           2
                 3           3
                 4           4
                 5           5
                 6           6
                 7           7
                 8           8
                 9           9
                10          10
                11          11
                12          12
                13          13
                14          14
                15          15
                16          16
                17          17
                18          18
                19          19
                20          20
                21          21
                22          22
                23          23
                24          24
                25          25
                26          26
                27          27
                28          28
                29          29
                30          30
                31          31
                32          32
                33          33
                34          34
                35          35
                36          36
                37          37
                38          38
                39          39
                40          40
                41          41
                42          42
                43          43
                44          44
                45          45
                46          46
                47          47
                48          48
                49          49
                50          50
                51          51
                52          52
                53          53
                54          54
                55          55
                56          56
                57          57
                58          58
                59          59
                60          60
                61          61
                62          62
                63          63
                64          64
                65          65
                66          66
                67          67
                68          68
                69          69
                70          70
                71          71
                72          72
                73          73
                74          74
                75          75
                76          76
                77          77
                78          78
                79          79
                80          80
                81          81
                82          82
                83          83
                84          84
                85          85
                86          86
                87          87
                88          88
                89          89
                90          90
                91          91
                92          92
                93          93
                94          94
                95          95
                96          96
                97          97
                98          98
                99          99
               100         100
               101         101
               102         102
               103         103
               104         104
               105         105
               106         106
               107         107
               108         108
               109         109
               110         110
               111         111
               112         112
               113         113
               114         114
               115         115
               116         116
               117         117
               118         118
               119         119
               120         120
               121         121
               122         122
               123         123
               124         124
               125         125
               126         126
               127         127
               128         128
               129         129
               130         130
               131         131
               132         132
               133         133
               134         134
               135         135
               136         136
               137         137
               138         138
               139         139
               140         140
               141         141
               142         142
               143         143
               144         144
               145         145
               146         146
               147         147
               148         148
               149         149
               150         150
               151         151
               152         152
               153         153
               154         154
               155         155
               156         156
               157         157
               158         158
               159         159
               160         160

----------------------------------------------------------------------------------------


 -----------------------------------------------------------------------------
|                                                                             |
|           W    W    AA    RRRRR   N    N  II  N    N   GGGG   !!!           |
|           W    W   A  A   R    R  NN   N  II  NN   N  G    G  !!!           |
|           W    W  A    A  R    R  N N  N  II  N N  N  G       !!!           |
|           W WW W  AAAAAA  RRRRR   N  N N  II  N  N N  G  GGG   !            |
|           WW  WW  A    A  R   R   N   NN  II  N   NN  G    G                |
|           W    W  A    A  R    R  N    N  II  N    N   GGGG   !!!           |
|                                                                             |
|     The requested file  could not be found or opened for reading            |
|     k-point information. Automatic k-point generation is used as a          |
|     fallback, which may lead to unwanted results.                           |
|                                                                             |
 -----------------------------------------------------------------------------



Automatic generation of k-mesh.
 Grid dimensions derived from KSPACING:
 generate k-points for:    3    3    1

 Generating k-lattice:

  Cartesian coordinates                     Fractional coordinates (reciprocal lattice)
     0.030693677  0.000000000  0.000000000     0.333333333  0.000000000  0.000000000
     0.000000000  0.030693677  0.000000000     0.000000000  0.333333333  0.000000000
     0.000000000  0.000000000  0.024775472     0.000000000  0.000000000  1.000000000

  Length of vectors
     0.030693677  0.030693677  0.024775472

  Shift w.r.t. Gamma in fractional coordinates (k-lattice)
     0.000000000  0.000000000  0.000000000

 
 Subroutine IBZKPT returns following result:
 ===========================================
 
 Found      5 irreducible k-points:
 
 Following reciprocal coordinates:
            Coordinates               Weight
  0.000000  0.000000  0.000000      1.000000
  0.333333  0.000000  0.000000      2.000000
  0.000000  0.333333  0.000000      2.000000
  0.333333  0.333333  0.000000      2.000000
 -0.333333  0.333333  0.000000      2.000000
 
 Following cartesian coordinates:
            Coordinates               Weight
  0.000000  0.000000  0.000000      1.000000
  0.030694  0.000000  0.000000      2.000000
  0.000000  0.030694  0.000000      2.000000
  0.030694  0.030694  0.000000      2.000000
 -0.030694  0.030694  0.000000      2.000000
 


--------------------------------------------------------------------------------------------------------




 Dimension of arrays:
   k-points           NKPTS =      5   k-points in BZ     NKDIM =      5   number of bands    NBANDS=    356
   number of dos      NEDOS =   2000   number of ions     NIONS =    160
   non local maximal  LDIM  =      4   non local SUM 2l+1 LMDIM =      8
   total plane-waves  NPLWV = ******
   max r-space proj   IRMAX =      1   max aug-charges    IRDMAX= 428338
   dimension x,y,z NGX =   126 NGY =  126 NGZ =  480
   dimension x,y,z NGXF=   252 NGYF=  252 NGZF=  960
   support grid    NGXF=   504 NGYF=  504 NGZF= 1920
   ions per type =              32 128
   NGX,Y,Z   is equivalent  to a cutoff of  19.29, 19.29, 19.77 a.u.
   NGXF,Y,Z  is equivalent  to a cutoff of  38.58, 38.58, 39.54 a.u.

 SYSTEM =  a-Si SPC                                
 POSCAR =  H  Si                                   

 Startparameter for this run:
   NWRITE =      2    write-flag & timer
   PREC   = accura    normal or accurate (medium, high low for compatibility)
   ISTART =      1    job   : 0-new  1-cont  2-samecut
   ICHARG =      1    charge: 1-file 2-atom 10-const
   ISPIN  =      1    spin polarized calculation?
   LNONCOLLINEAR =      F non collinear calculations
   LSORBIT =      F    spin-orbit coupling
   INIWAV =      1    electr: 0-lowe 1-rand  2-diag
   LASPH  =      T    aspherical Exc in radial PAW
 Electronic Relaxation 1
   ENCUT  = 1200.0 eV  88.20 Ry    9.39 a.u.  30.67 30.67114.01*2*pi/ulx,y,z
   ENINI  = 1200.0     initial cutoff
   ENAUG  =  400.0 eV  augmentation charge cutoff
   NELM   =    150;   NELMIN=  2; NELMDL=  0     # of ELM steps 
   EDIFF  = 0.1E-05   stopping-criterion for ELM
   LREAL  =      F    real-space projection
   NLSPLINE    = F    spline interpolate recip. space projectors
   LCOMPAT=      F    compatible to vasp.4.4
   GGA_COMPAT  = T    GGA compatible to vasp.4.4-vasp.4.6
   LMAXPAW     = -100 max onsite density
   LMAXMIX     =    2 max onsite mixed and CHGCAR
   VOSKOWN=      0    Vosko Wilk Nusair interpolation
   ROPT   =    0.00000   0.00000
 Ionic relaxation
   EDIFFG = -.1E-01   stopping-criterion for IOM
   NSW    =      0    number of steps for IOM
   NBLOCK =      1;   KBLOCK =      1    inner block; outer block 
   IBRION =     -1    ionic relax: 0-MD 1-quasi-New 2-CG
   NFREE  =      0    steps in history (QN), initial steepest desc. (CG)
   ISIF   =      2    stress and relaxation
   IWAVPR =     10    prediction:  0-non 1-charg 2-wave 3-comb
   ISYM   =      1    0-nonsym 1-usesym 2-fastsym
   LCORR  =      T    Harris-Foulkes like correction to forces

   POTIM  = 0.5000    time-step for ionic-motion
   TEIN   =    0.0    initial temperature
   TEBEG  =    0.0;   TEEND  =   0.0 temperature during run
   SMASS  =  -3.00    Nose mass-parameter (am)
   estimated Nose-frequenzy (Omega)   =  0.10E-29 period in steps = 0.13E+47 mass=  -0.270E-26a.u.
   SCALEE = 1.0000    scale energy and forces
   NPACO  =    256;   APACO  = 10.0  distance and # of slots for P.C.
   PSTRESS=    0.0 pullay stress

  Mass of Ions in am
   POMASS =   1.00 28.09
  Ionic Valenz
   ZVAL   =   1.00  4.00
  Atomic Wigner-Seitz radii
   RWIGS  =  -1.00 -1.00
  virtual crystal weights 
   VCA    =   1.00  1.00
   NELECT =     544.0000    total number of electrons
   NUPDOWN=      -1.0000    fix difference up-down

 DOS related values:
   EMIN   =  10.00;   EMAX   =-10.00  energy-range for DOS
   EFERMI =   0.00;   METHOD = LEGACY      
   ISMEAR =     0;   SIGMA  =   0.10  broadening in eV -4-tet -1-fermi 0-gaus
   EFERMI_NEDOS =   21; number of points for ismear=-14 and -15

 Electronic relaxation 2 (details)
   IALGO  =     38    algorithm
   LDIAG  =      F    sub-space diagonalisation (order eigenvalues)
   LSUBROT=      F    optimize rotation matrix (better conditioning)
   TURBO    =      0    0=normal 1=particle mesh
   IRESTART =      0    0=no restart 2=restart with 2 vectors
   NREBOOT  =      0    no. of reboots
   NMIN     =      0    reboot dimension
   EREF     =   0.00    reference energy to select bands
   IMIX   =      4    mixing-type and parameters
     AMIX     =   0.40;   BMIX     =  1.00
     AMIX_MAG =   1.60;   BMIX_MAG =  1.00
     AMIN     =   0.10
     WC   =   100.;   INIMIX=   1;  MIXPRE=   1;  MAXMIX= -45

 Intra band minimization:
   WEIMIN = 0.0000     energy-eigenvalue tresh-hold
   EBREAK =  0.70E-09  absolut break condition
   DEPER  =   0.30     relativ break condition  

   TIME   =   0.40     timestep for ELM

  volume/ion in A,a.u.               =      29.75       200.78
  Fermi-wavevector in a.u.,A,eV,Ry     =   0.794441  1.501277  8.587143  0.631137
  Thomas-Fermi vector in A             =   1.900574

 Write flags
   LWAVE        =      F    write WAVECAR
   LDOWNSAMPLE  =      F    k-point downsampling of WAVECAR
   LCHARG       =      F    write CHGCAR
   LVTOT        =      F    write LOCPOT, total local potential
   LVHAR        =      F    write LOCPOT, Hartree potential only
   WRT_POTENTIAL= false  ! write potential to hdf5 file
   LELF         =      F    write electronic localiz. function (ELF)
   LORBIT       =     11    0 simple, 1 ext, 2 COOP (PROOUT), +10 PAW based schemes


 Python interface
   PLUGINS active      =      F    recompile with -DPLUGINS to activate

 Dipole corrections
   LMONO      =      F    monopole corrections only (constant potential shift)
   LDIPOL     =      F    correct potential (dipole corrections)
   IDIPOL     =      0    1-x, 2-y, 3-z, 4-all directions 
   EPSILON    =  1.0000000 bulk dielectric constant
   LVACPOTAV  =      F  vacuum potentials using an averaging scheme for the charge density
   VACPOTFLAT =  0.1000000 required flatness to determine vacuum potential

Coulomb truncation method
  LTRUNCATE          =      F  Coulomb kernel truncation to be used
  IDIMENSIONALITY    =      3  Dimensionality of cutoff (0 molecules / 2 surfaces)
  ISURFACE           =     -1  Direction of surface normal
  LCOARSEN           =      F  Coarsen the charge grid before padding, preferred


 Exchange correlation treatment:
   METAGGA = SCAN    functional components
   XC_C    = 1    coefficients multiplying the functional components
   LIBXC   =     F    Libxc                    
   VOSKOWN =     0    Vosko Wilk Nusair interpolation
   LHFCALC =     F    Hartree Fock is set to
   LHFONE  =     F    Hartree Fock one center treatment
   AEXX    =    0.0000 exact exchange contribution

 Parameters of functionals:
   SCAN:
     P1 =  0.000000E+00
     P2 =  0.000000E+00
     P3 =  0.000000E+00

 Accuracy and mixing parameters for tau-dependent meta-GGA functionals:
   LMAXTAU = 6
   LMIXTAU = T

 Van der Waals corrections
   IVDW    =     0    specifies the selected vdW correction

 Linear response parameters
   LEPSILON=     F    determine dielectric tensor
   LRPA    =     F    only Hartree local field effects (RPA)
   LNABLA  =     F    use nabla operator in PAW spheres
   LVEL    =     F    velocity operator in full k-point grid
   CSHIFT  =0.1000    complex shift for real part using Kramers Kronig
   OMEGAMAX=  -1.0    maximum frequency
   DEG_THRESHOLD= 0.2000000E-02 threshold for treating states as degnerate
   RTIME   =   -0.100 relaxation time in fs
  (WPLASMAI=    0.000 imaginary part of plasma frequency in eV, 0.658/RTIME)
   DFIELD  = 0.0000000 0.0000000 0.0000000 field for delta impulse in time

  Optional k-point grid parameters
   LKPOINTS_OPT  =     F    use optional k-point grid
   KPOINTS_OPT_MODE=     1    mode for optional k-point grid

 Orbital magnetization related:
   ORBITALMAG=     F  switch on orbital magnetization
   LCHIMAG   =     F  perturbation theory with respect to B field
   DQ        =  0.001000  dq finite difference perturbation B field
   LLRAUG    =     F  two centre corrections for induced B field
   LBONE     =     F  B-component reconstruction in AE one-centre
   LVGVCALC  =     T  calculate vGv susceptibility
   LVGVAPPL  =     F  apply vGv susceptibility instead of pGv for G=0

 Random number generation:
   RANDOM_GENERATOR = DEFAULT
   PCG_SEED         = not used


--------------------------------------------------------------------------------------------------------


 Static calculation
 charge density and potential will be updated during run
 non-spin polarized calculation
 Variant of blocked Davidson
 perform Loewdin sub-space diagonalisation
    ordering is kept fixed
    before iterative eigenvector-optimisation
 modified Broyden-mixing scheme, WC =      100.0
 initial mixing is a Kerker type mixing with AMIX =  0.4000 and BMIX =      1.0000
 Hartree-type preconditioning will be used
 using additional bands           84
 reciprocal scheme for non local part
 use partial core corrections
 calculate Harris-corrections to forces   (improved forces if not selfconsistent)
 use gradient corrections 
 use of overlap-Matrix (Vanderbilt PP)
 Gauss-broadening in eV      SIGMA  =   0.10


--------------------------------------------------------------------------------------------------------


  energy-cutoff  :     1200.00
  volume of cell :     4760.34
      direct lattice vectors                 reciprocal lattice vectors
    10.860000000  0.000000000  0.000000000     0.092081031  0.000000000  0.000000000
     0.000000000 10.860000000  0.000000000     0.000000000  0.092081031  0.000000000
     0.000000000  0.000000000 40.362500000     0.000000000  0.000000000  0.024775472

  length of vectors
    10.860000000 10.860000000 40.362500000     0.092081031  0.092081031  0.024775472



 old parameters found on file WAVECAR:
  energy-cutoff  :     1200.00
  volume of cell :     4760.34
      direct lattice vectors                 reciprocal lattice vectors
    10.860000000  0.000000000  0.000000000     0.092081031  0.000000000  0.000000000
     0.000000000 10.860000000  0.000000000     0.000000000  0.092081031  0.000000000
     0.000000000  0.000000000 40.362500000     0.000000000  0.000000000  0.024775472

  length of vectors


 k-points in units of 2pi/SCALE and weight: read from INCAR                         
   0.00000000  0.00000000  0.00000000       0.111
   0.03069368  0.00000000  0.00000000       0.222
   0.00000000  0.03069368  0.00000000       0.222
   0.03069368  0.03069368  0.00000000       0.222
  -0.03069368  0.03069368  0.00000000       0.222

 k-points in reciprocal lattice and weights: read from INCAR                         
   0.00000000  0.00000000  0.00000000       0.111
   0.33333333  0.00000000  0.00000000       0.222
   0.00000000  0.33333333  0.00000000       0.222
   0.33333333  0.33333333  0.00000000       0.222
  -0.33333333  0.33333333  0.00000000       0.222

 position of ions in fractional coordinates (direct lattice) 
   0.09906345  0.90093655  0.24775472
   0.93503306  0.06496694  0.22004848
   0.35443567  0.14556433  0.24775472
   0.18018479  0.31981521  0.21636621
   0.89823957  0.60176043  0.24775472
   0.06543759  0.43456241  0.21908800
   0.35212218  0.64787782  0.24775472
   0.18399141  0.81600859  0.21873507
   0.60569512  0.89430488  0.24775472
   0.43587827  0.06412173  0.21857831
   0.64892980  0.35107020  0.24775472
   0.81600496  0.18399504  0.21903558
   0.60274274  0.39725726  0.24775472
   0.42934539  0.57065461  0.21650376
   0.84734193  0.65265807  0.24775472
   0.68057091  0.81942909  0.21866007
   0.01829613  0.48170387  0.75224528
   0.18676887  0.31323113  0.78061934
   0.47224955  0.02775045  0.75224528
   0.30407408  0.19592592  0.78193898
   0.02257293  0.97742707  0.75224528
   0.18946608  0.81053392  0.78067141
   0.47495020  0.52504980  0.75224528
   0.31602918  0.68397082  0.77761949
   0.73514054  0.26485946  0.75224528
   0.56357636  0.43642364  0.78136951
   0.97420942  0.02579058  0.75224528
   0.80548472  0.19451528  0.78193492
   0.72667676  0.77332324  0.75224528
   0.56220000  0.93780000  0.77973391
   0.77439922  0.72560078  0.75224528
   0.94222875  0.55777125  0.78136104
   0.00000000  0.00000000  0.24775472
   0.12500000  0.12500000  0.28138743
   0.25000000  0.25000000  0.24775472
   0.37500000  0.37500000  0.28138743
   0.00000000  0.25000000  0.31502013
   0.12500000  0.37500000  0.34865283
   0.25000000  0.00000000  0.31502013
   0.37500000  0.12500000  0.34865283
   0.00000000  0.50000000  0.24775472
   0.12500000  0.62500000  0.28138743
   0.25000000  0.75000000  0.24775472
   0.37500000  0.87500000  0.28138743
   0.00000000  0.75000000  0.31502013
   0.12500000  0.87500000  0.34865283
   0.25000000  0.50000000  0.31502013
   0.37500000  0.62500000  0.34865283
   0.50000000  0.00000000  0.24775472
   0.62500000  0.12500000  0.28138743
   0.75000000  0.25000000  0.24775472
   0.87500000  0.37500000  0.28138743
   0.50000000  0.25000000  0.31502013
   0.62500000  0.37500000  0.34865283
   0.75000000  0.00000000  0.31502013
   0.87500000  0.12500000  0.34865283
   0.50000000  0.50000000  0.24775472
   0.62500000  0.62500000  0.28138743
   0.75000000  0.75000000  0.24775472
   0.87500000  0.87500000  0.28138743
   0.50000000  0.75000000  0.31502013
   0.62500000  0.87500000  0.34865283
   0.75000000  0.50000000  0.31502013
   0.87500000  0.62500000  0.34865283
   0.00000000  0.00000000  0.38228554
   0.12500000  0.12500000  0.41591824
   0.25000000  0.25000000  0.38228554
   0.37500000  0.37500000  0.41591824
   0.00000000  0.25000000  0.44955094
   0.12500000  0.37500000  0.48318365
   0.25000000  0.00000000  0.44955094
   0.37500000  0.12500000  0.48318365
   0.00000000  0.50000000  0.38228554
   0.12500000  0.62500000  0.41591824
   0.25000000  0.75000000  0.38228554
   0.37500000  0.87500000  0.41591824
   0.00000000  0.75000000  0.44955094
   0.12500000  0.87500000  0.48318365
   0.25000000  0.50000000  0.44955094
   0.37500000  0.62500000  0.48318365
   0.50000000  0.00000000  0.38228554
   0.62500000  0.12500000  0.41591824
   0.75000000  0.25000000  0.38228554
   0.87500000  0.37500000  0.41591824
   0.50000000  0.25000000  0.44955094
   0.62500000  0.37500000  0.48318365
   0.75000000  0.00000000  0.44955094
   0.87500000  0.12500000  0.48318365
   0.50000000  0.50000000  0.38228554
   0.62500000  0.62500000  0.41591824
   0.75000000  0.75000000  0.38228554
   0.87500000  0.87500000  0.41591824
   0.50000000  0.75000000  0.44955094
   0.62500000  0.87500000  0.48318365
   0.75000000  0.50000000  0.44955094
   0.87500000  0.62500000  0.48318365
   0.00000000  0.00000000  0.51681635
   0.12500000  0.12500000  0.55044906
   0.25000000  0.25000000  0.51681635
   0.37500000  0.37500000  0.55044906
   0.00000000  0.25000000  0.58408176
   0.12500000  0.37500000  0.61771446
   0.25000000  0.00000000  0.58408176
   0.37500000  0.12500000  0.61771446
   0.00000000  0.50000000  0.51681635
   0.12500000  0.62500000  0.55044906
   0.25000000  0.75000000  0.51681635
   0.37500000  0.87500000  0.55044906
   0.00000000  0.75000000  0.58408176
   0.12500000  0.87500000  0.61771446
   0.25000000  0.50000000  0.58408176
   0.37500000  0.62500000  0.61771446
   0.50000000  0.00000000  0.51681635
   0.62500000  0.12500000  0.55044906
   0.75000000  0.25000000  0.51681635
   0.87500000  0.37500000  0.55044906
   0.50000000  0.25000000  0.58408176
   0.62500000  0.37500000  0.61771446
   0.75000000  0.00000000  0.58408176
   0.87500000  0.12500000  0.61771446
   0.50000000  0.50000000  0.51681635
   0.62500000  0.62500000  0.55044906
   0.75000000  0.75000000  0.51681635
   0.87500000  0.87500000  0.55044906
   0.50000000  0.75000000  0.58408176
   0.62500000  0.87500000  0.61771446
   0.75000000  0.50000000  0.58408176
   0.87500000  0.62500000  0.61771446
   0.00000000  0.00000000  0.65134717
   0.12500000  0.12500000  0.68497987
   0.25000000  0.25000000  0.65134717
   0.37500000  0.37500000  0.68497987
   0.00000000  0.25000000  0.71861257
   0.12500000  0.37500000  0.75224528
   0.25000000  0.00000000  0.71861257
   0.37500000  0.12500000  0.75224528
   0.00000000  0.50000000  0.65134717
   0.12500000  0.62500000  0.68497987
   0.25000000  0.75000000  0.65134717
   0.37500000  0.87500000  0.68497987
   0.00000000  0.75000000  0.71861257
   0.12500000  0.87500000  0.75224528
   0.25000000  0.50000000  0.71861257
   0.37500000  0.62500000  0.75224528
   0.50000000  0.00000000  0.65134717
   0.62500000  0.12500000  0.68497987
   0.75000000  0.25000000  0.65134717
   0.87500000  0.37500000  0.68497987
   0.50000000  0.25000000  0.71861257
   0.62500000  0.37500000  0.75224528
   0.75000000  0.00000000  0.71861257
   0.87500000  0.12500000  0.75224528
   0.50000000  0.50000000  0.65134717
   0.62500000  0.62500000  0.68497987
   0.75000000  0.75000000  0.65134717
   0.87500000  0.87500000  0.68497987
   0.50000000  0.75000000  0.71861257
   0.62500000  0.87500000  0.75224528
   0.75000000  0.50000000  0.71861257
   0.87500000  0.62500000  0.75224528

 position of ions in cartesian coordinates  (Angst):
   1.07582904  9.78417096 10.00000000
  10.15445906  0.70554094  8.88170692
   3.84917137  1.58082863 10.00000000
   1.95680678  3.47319322  8.73308134
   9.75488172  6.53511828 10.00000000
   0.71065225  4.71934775  8.84293954
   3.82404683  7.03595317 10.00000000
   1.99814670  8.86185330  8.82869410
   6.57784903  9.71215097 10.00000000
   4.73363802  0.69636198  8.82236696
   7.04737766  3.81262234 10.00000000
   8.86181390  1.99818610  8.84082364
   6.54578619  4.31421381 10.00000000
   4.66269097  6.19730903  8.73863306
   9.20213334  7.08786666 10.00000000
   7.39100013  8.89899987  8.82566719
   0.19869594  5.23130406 30.36250000
   2.02830994  3.40169006 31.50774829
   5.12863009  0.30136991 30.36250000
   3.30224450  2.12775550 31.56101198
   0.24514204 10.61485796 30.36250000
   2.05760165  8.80239835 31.50984976
   5.15795919  5.70204081 30.36250000
   3.43207692  7.42792308 31.38666665
   7.98362629  2.87637371 30.36250000
   6.12043923  4.73956077 31.53802695
  10.57991427  0.28008573 30.36250000
   8.74756404  2.11243596 31.56084811
   7.89170964  8.39829036 30.36250000
   6.10549200 10.18450800 31.47200986
   8.40997555  7.88002445 30.36250000
  10.23260419  6.05739581 31.53768479
   0.00000000  0.00000000 10.00000000
   1.35750000  1.35750000 11.35750000
   2.71500000  2.71500000 10.00000000
   4.07250000  4.07250000 11.35750000
   0.00000000  2.71500000 12.71500000
   1.35750000  4.07250000 14.07250000
   2.71500000  0.00000000 12.71500000
   4.07250000  1.35750000 14.07250000
   0.00000000  5.43000000 10.00000000
   1.35750000  6.78750000 11.35750000
   2.71500000  8.14500000 10.00000000
   4.07250000  9.50250000 11.35750000
   0.00000000  8.14500000 12.71500000
   1.35750000  9.50250000 14.07250000
   2.71500000  5.43000000 12.71500000
   4.07250000  6.78750000 14.07250000
   5.43000000  0.00000000 10.00000000
   6.78750000  1.35750000 11.35750000
   8.14500000  2.71500000 10.00000000
   9.50250000  4.07250000 11.35750000
   5.43000000  2.71500000 12.71500000
   6.78750000  4.07250000 14.07250000
   8.14500000  0.00000000 12.71500000
   9.50250000  1.35750000 14.07250000
   5.43000000  5.43000000 10.00000000
   6.78750000  6.78750000 11.35750000
   8.14500000  8.14500000 10.00000000
   9.50250000  9.50250000 11.35750000
   5.43000000  8.14500000 12.71500000
   6.78750000  9.50250000 14.07250000
   8.14500000  5.43000000 12.71500000
   9.50250000  6.78750000 14.07250000
   0.00000000  0.00000000 15.43000000
   1.35750000  1.35750000 16.78750000
   2.71500000  2.71500000 15.43000000
   4.07250000  4.07250000 16.78750000
   0.00000000  2.71500000 18.14500000
   1.35750000  4.07250000 19.50250000
   2.71500000  0.00000000 18.14500000
   4.07250000  1.35750000 19.50250000
   0.00000000  5.43000000 15.43000000
   1.35750000  6.78750000 16.78750000
   2.71500000  8.14500000 15.43000000
   4.07250000  9.50250000 16.78750000
   0.00000000  8.14500000 18.14500000
   1.35750000  9.50250000 19.50250000
   2.71500000  5.43000000 18.14500000
   4.07250000  6.78750000 19.50250000
   5.43000000  0.00000000 15.43000000
   6.78750000  1.35750000 16.78750000
   8.14500000  2.71500000 15.43000000
   9.50250000  4.07250000 16.78750000
   5.43000000  2.71500000 18.14500000
   6.78750000  4.07250000 19.50250000
   8.14500000  0.00000000 18.14500000
   9.50250000  1.35750000 19.50250000
   5.43000000  5.43000000 15.43000000
   6.78750000  6.78750000 16.78750000
   8.14500000  8.14500000 15.43000000
   9.50250000  9.50250000 16.78750000
   5.43000000  8.14500000 18.14500000
   6.78750000  9.50250000 19.50250000
   8.14500000  5.43000000 18.14500000
   9.50250000  6.78750000 19.50250000
   0.00000000  0.00000000 20.86000000
   1.35750000  1.35750000 22.21750000
   2.71500000  2.71500000 20.86000000
   4.07250000  4.07250000 22.21750000
   0.00000000  2.71500000 23.57500000
   1.35750000  4.07250000 24.93250000
   2.71500000  0.00000000 23.57500000
   4.07250000  1.35750000 24.93250000
   0.00000000  5.43000000 20.86000000
   1.35750000  6.78750000 22.21750000
   2.71500000  8.14500000 20.86000000
   4.07250000  9.50250000 22.21750000
   0.00000000  8.14500000 23.57500000
   1.35750000  9.50250000 24.93250000
   2.71500000  5.43000000 23.57500000
   4.07250000  6.78750000 24.93250000
   5.43000000  0.00000000 20.86000000
   6.78750000  1.35750000 22.21750000
   8.14500000  2.71500000 20.86000000
   9.50250000  4.07250000 22.21750000
   5.43000000  2.71500000 23.57500000
   6.78750000  4.07250000 24.93250000
   8.14500000  0.00000000 23.57500000
   9.50250000  1.35750000 24.93250000
   5.43000000  5.43000000 20.86000000
   6.78750000  6.78750000 22.21750000
   8.14500000  8.14500000 20.86000000
   9.50250000  9.50250000 22.21750000
   5.43000000  8.14500000 23.57500000
   6.78750000  9.50250000 24.93250000
   8.14500000  5.43000000 23.57500000
   9.50250000  6.78750000 24.93250000
   0.00000000  0.00000000 26.29000000
   1.35750000  1.35750000 27.64750000
   2.71500000  2.71500000 26.29000000
   4.07250000  4.07250000 27.64750000
   0.00000000  2.71500000 29.00500000
   1.35750000  4.07250000 30.36250000
   2.71500000  0.00000000 29.00500000
   4.07250000  1.35750000 30.36250000
   0.00000000  5.43000000 26.29000000
   1.35750000  6.78750000 27.64750000
   2.71500000  8.14500000 26.29000000
   4.07250000  9.50250000 27.64750000
   0.00000000  8.14500000 29.00500000
   1.35750000  9.50250000 30.36250000
   2.71500000  5.43000000 29.00500000
   4.07250000  6.78750000 30.36250000
   5.43000000  0.00000000 26.29000000
   6.78750000  1.35750000 27.64750000
   8.14500000  2.71500000 26.29000000
   9.50250000  4.07250000 27.64750000
   5.43000000  2.71500000 29.00500000
   6.78750000  4.07250000 30.36250000
   8.14500000  0.00000000 29.00500000
   9.50250000  1.35750000 30.36250000
   5.43000000  5.43000000 26.29000000
   6.78750000  6.78750000 27.64750000
   8.14500000  8.14500000 26.29000000
   9.50250000  9.50250000 27.64750000
   5.43000000  8.14500000 29.00500000
   6.78750000  9.50250000 30.36250000
   8.14500000  5.43000000 29.00500000
   9.50250000  6.78750000 30.36250000



--------------------------------------------------------------------------------------------------------


 k-point     1 :   0.0000 0.0000 0.0000  plane waves:  449425
 k-point     2 :   0.3333 0.0000 0.0000  plane waves:  449230
 k-point     3 :   0.0000 0.3333 0.0000  plane waves:  449230
 k-point     4 :   0.3333 0.3333 0.0000  plane waves:  449286
 k-point     5 :  -0.3333 0.3333 0.0000  plane waves:  449286

 maximum and minimum number of plane-waves per node :     28157    28027

 maximum number of plane-waves:    449425
 maximum index in each direction: 
   IXMAX=   31   IYMAX=   30   IZMAX=  114
   IXMIN=  -31   IYMIN=  -31   IZMIN= -114


 parallel 3D FFT for wavefunctions:
    minimum data exchange during FFTs selected (reduces bandwidth)
 parallel 3D FFT for charge:
    minimum data exchange during FFTs selected (reduces bandwidth)


 total amount of memory used by VASP MPI-rank0   572357. kBytes
=======================================================================

   base                                    :      30000. kBytes
   nonl-proj                               :      90022. kBytes
   fftplans                                :     154585. kBytes
   grid                                    :      96880. kBytes
   one-center                              :         30. kBytes
   wavefun                                 :     200840. kBytes

     INWAV:  cpu time     29.8592: real time     29.8779
 Broyden mixing: mesh for mixing (old mesh)
   NGX = 61   NGY = 61   NGZ =229
  (NGX  =252   NGY  =252   NGZ  =960)
  gives a total of 852109 points

 initial charge density was supplied:
 number of electron     543.9999999 magnetization 
 keeping initial charge density in first step


--------------------------------------------------------------------------------------------------------


 Maximum index for augmentation-charges         6788 (set IRDMAX)


--------------------------------------------------------------------------------------------------------


 First call to EWALD:  gamma=   0.105
 Maximum number of real-space cells   4x   4x   1
 Maximum number of reciprocal cells   2x   2x   6

    FEWALD:  cpu time      0.0301: real time      0.0301


--------------------------------------- Ionic step        1  -------------------------------------------




--------------------------------------- Iteration      1(   1)  ---------------------------------------


    POTLOK:  cpu time      3.1956: real time      3.1973
    SETDIJ:  cpu time      3.0959: real time      3.0979
    EDDIAG:  cpu time    122.2333: real time    122.2999
     EDDAV:  cpu time    562.5438: real time    562.8619
       DOS:  cpu time      0.0074: real time      0.0075
    CHARGE:  cpu time     66.9575: real time     67.0071
    MIXING:  cpu time      0.0774: real time      0.0779
    --------------------------------------------
      LOOP:  cpu time    758.1109: real time    758.5495

 eigenvalue-minimisations  :  3568
 total energy-change (2. order) :-0.1463858E+04  (-0.1528703E+01)
 number of electron     543.9999999 magnetization 
 augmentation part      -27.6314974 magnetization 

 Broyden mixing:
  rms(total) = 0.15364E+01    rms(broyden)= 0.38712E+02
  rms(prec ) = 0.15850E+01
  weight for this iteration     100.00
  WARNING: grid for Broyden might be to small

 Free energy of the ion-electron system (eV)
  ---------------------------------------------------
  alpha Z        PSCENC =       132.01094186
  Ewald energy   TEWEN  =    128164.22892422
  -Hartree energ DENC   =   -141821.54584718
  -exchange      EXHF   =         0.00000000
  -V(xc)+E(xc)   XCENC  =      -506.12396746
  PAW double counting   =     55590.71320417   -54317.22767492
  entropy T*S    EENTRO =        -0.00001234
  eigenvalues    EBANDS =     -2298.09613352
  atomic energy  EATOM  =     13592.18256620
  Solvation  Ediel_sol  =         0.00000000
  ---------------------------------------------------
  free energy    TOTEN  =     -1463.85799897 eV

  energy without entropy =    -1463.85798663  energy(sigma->0) =    -1463.85799280


--------------------------------------------------------------------------------------------------------




--------------------------------------- Iteration      1(   2)  ---------------------------------------


    POTLOK:  cpu time      3.1707: real time      3.1804
    SETDIJ:  cpu time      3.0886: real time      3.0907
    EDDIAG:  cpu time    122.2034: real time    122.2742
     EDDAV:  cpu time    561.9960: real time    562.3082
       DOS:  cpu time      0.0069: real time      0.0069
    CHARGE:  cpu time     66.9417: real time     66.9932
    MIXING:  cpu time      0.0719: real time      0.0723
    --------------------------------------------
      LOOP:  cpu time    757.4793: real time    757.9261

 eigenvalue-minimisations  :  3560
 total energy-change (2. order) : 0.9902531E+02  (-0.1403974E+01)
 number of electron     543.9999999 magnetization 
 augmentation part      -27.5427846 magnetization 

 Broyden mixing:
  rms(total) = 0.10183E+01    rms(broyden)= 0.22336E+02
  rms(prec ) = 0.10428E+01
  weight for this iteration     100.00
  WARNING: grid for Broyden might be to small

 eigenvalues of (default mixing * dielectric matrix)
  average eigenvalue GAMMA=   0.6342
  0.6342

 Free energy of the ion-electron system (eV)
  ---------------------------------------------------
  alpha Z        PSCENC =       132.01094186
  Ewald energy   TEWEN  =    128164.22892422
  -Hartree energ DENC   =   -141796.22938258
  -exchange      EXHF   =         0.00000000
  -V(xc)+E(xc)   XCENC  =      -493.22104785
  PAW double counting   =     66525.58892057   -65251.65675235
  entropy T*S    EENTRO =        -0.00000002
  eigenvalues    EBANDS =     -2237.73686011
  atomic energy  EATOM  =     13592.18256620
  Solvation  Ediel_sol  =         0.00000000
  ---------------------------------------------------
  free energy    TOTEN  =     -1364.83269007 eV

  energy without entropy =    -1364.83269005  energy(sigma->0) =    -1364.83269006


--------------------------------------------------------------------------------------------------------




--------------------------------------- Iteration      1(   3)  ---------------------------------------


    POTLOK:  cpu time      3.1718: real time      3.1798
    SETDIJ:  cpu time      3.0852: real time      3.0882
    EDDIAG:  cpu time    122.1790: real time    122.2482
     EDDAV:  cpu time    561.9240: real time    562.2423
       DOS:  cpu time      0.0060: real time      0.0060
    CHARGE:  cpu time     66.9986: real time     67.0463
    MIXING:  cpu time      0.0682: real time      0.0682
    --------------------------------------------
      LOOP:  cpu time    757.4326: real time    757.8787

 eigenvalue-minimisations  :  3560
 total energy-change (2. order) :-0.6336236E+01  (-0.1108586E+01)
 number of electron     543.9999999 magnetization 
 augmentation part      -27.4585255 magnetization 

 Broyden mixing:
  rms(total) = 0.42748E+00    rms(broyden)= 0.32287E+02
  rms(prec ) = 0.53607E+00
  weight for this iteration     100.00
  WARNING: grid for Broyden might be to small

 eigenvalues of (default mixing * dielectric matrix)
  average eigenvalue GAMMA=   0.7956
  0.9637  0.6276

 Free energy of the ion-electron system (eV)
  ---------------------------------------------------
  alpha Z        PSCENC =       132.01094186
  Ewald energy   TEWEN  =    128164.22892422
  -Hartree energ DENC   =   -141810.91069739
  -exchange      EXHF   =         0.00000000
  -V(xc)+E(xc)   XCENC  =      -500.62246288
  PAW double counting   =     79139.33468759   -77865.54773936
  entropy T*S    EENTRO =        -0.00000000
  eigenvalues    EBANDS =     -2221.84514607
  atomic energy  EATOM  =     13592.18256620
  Solvation  Ediel_sol  =         0.00000000
  ---------------------------------------------------
  free energy    TOTEN  =     -1371.16892584 eV

  energy without entropy =    -1371.16892583  energy(sigma->0) =    -1371.16892584


--------------------------------------------------------------------------------------------------------




--------------------------------------- Iteration      1(   4)  ---------------------------------------


    POTLOK:  cpu time      3.1687: real time      3.1824
    SETDIJ:  cpu time      3.0957: real time      3.0974
    EDDIAG:  cpu time    122.3042: real time    122.3749
     EDDAV:  cpu time    572.2565: real time    572.5836
       DOS:  cpu time      0.0054: real time      0.0054
    CHARGE:  cpu time     66.9957: real time     67.0503
    MIXING:  cpu time      0.0683: real time      0.0683
    --------------------------------------------
      LOOP:  cpu time    767.8945: real time    768.3623

 eigenvalue-minimisations  :  3672
 total energy-change (2. order) : 0.5458563E+00  (-0.1198369E+00)
 number of electron     543.9999999 magnetization 
 augmentation part      -27.4437948 magnetization 

 Broyden mixing:
  rms(total) = 0.49052E-01    rms(broyden)= 0.28156E+01
  rms(prec ) = 0.57060E-01
  weight for this iteration     100.00
  WARNING: grid for Broyden might be to small

 eigenvalues of (default mixing * dielectric matrix)
  average eigenvalue GAMMA=   1.1806
  2.1949  0.7249  0.6220

 Free energy of the ion-electron system (eV)
  ---------------------------------------------------
  alpha Z        PSCENC =       132.01094186
  Ewald energy   TEWEN  =    128164.22892422
  -Hartree energ DENC   =   -141824.96796213
  -exchange      EXHF   =         0.00000000
  -V(xc)+E(xc)   XCENC  =      -500.93218400
  PAW double counting   =     89112.89947799   -87839.15026871
  entropy T*S    EENTRO =        -0.00000001
  eigenvalues    EBANDS =     -2206.89456494
  atomic energy  EATOM  =     13592.18256620
  Solvation  Ediel_sol  =         0.00000000
  ---------------------------------------------------
  free energy    TOTEN  =     -1370.62306951 eV

  energy without entropy =    -1370.62306951  energy(sigma->0) =    -1370.62306951


--------------------------------------------------------------------------------------------------------




--------------------------------------- Iteration      1(   5)  ---------------------------------------


    POTLOK:  cpu time      3.1763: real time      3.1791
    SETDIJ:  cpu time      3.0858: real time      3.0877
    EDDIAG:  cpu time    122.3661: real time    122.4375
     EDDAV:  cpu time    631.1631: real time    631.5165
       DOS:  cpu time      0.0073: real time      0.0073
    CHARGE:  cpu time     66.9218: real time     66.9860
    MIXING:  cpu time      0.0691: real time      0.0691
    --------------------------------------------
      LOOP:  cpu time    826.7896: real time    827.2833

 eigenvalue-minimisations  :  4320
 total energy-change (2. order) :-0.5596960E-01  (-0.8846774E-02)
 number of electron     543.9999999 magnetization 
 augmentation part      -27.4457140 magnetization 

 Broyden mixing:
  rms(total) = 0.31300E-01    rms(broyden)= 0.40268E+00
  rms(prec ) = 0.32047E-01
  weight for this iteration     100.00
  WARNING: grid for Broyden might be to small

 eigenvalues of (default mixing * dielectric matrix)
  average eigenvalue GAMMA=   1.1980
  2.5721  0.9445  0.6461  0.6295

 Free energy of the ion-electron system (eV)
  ---------------------------------------------------
  alpha Z        PSCENC =       132.01094186
  Ewald energy   TEWEN  =    128164.22892422
  -Hartree energ DENC   =   -141824.86394386
  -exchange      EXHF   =         0.00000000
  -V(xc)+E(xc)   XCENC  =      -502.47134136
  PAW double counting   =     88259.81492950   -86986.00756316
  entropy T*S    EENTRO =        -0.00000001
  eigenvalues    EBANDS =     -2205.57355251
  atomic energy  EATOM  =     13592.18256620
  Solvation  Ediel_sol  =         0.00000000
  ---------------------------------------------------
  free energy    TOTEN  =     -1370.67903912 eV

  energy without entropy =    -1370.67903911  energy(sigma->0) =    -1370.67903911


--------------------------------------------------------------------------------------------------------




--------------------------------------- Iteration      1(   6)  ---------------------------------------


    POTLOK:  cpu time      3.1746: real time      3.1812
    SETDIJ:  cpu time      3.0928: real time      3.0944
    EDDIAG:  cpu time    122.3350: real time    122.4076
     EDDAV:  cpu time    591.0562: real time    591.3868
       DOS:  cpu time      0.0090: real time      0.0092
    CHARGE:  cpu time     66.9040: real time     66.9535
    MIXING:  cpu time      0.0752: real time      0.0752
    --------------------------------------------
      LOOP:  cpu time    786.6467: real time    787.1080

 eigenvalue-minimisations  :  3872
 total energy-change (2. order) :-0.1077032E-01  (-0.2539409E-02)
 number of electron     543.9999999 magnetization 
 augmentation part      -27.4401897 magnetization 

 Broyden mixing:
  rms(total) = 0.82733E-02    rms(broyden)= 0.63614E+00
  rms(prec ) = 0.10531E-01
  weight for this iteration     100.00
  WARNING: grid for Broyden might be to small

 eigenvalues of (default mixing * dielectric matrix)
  average eigenvalue GAMMA=   1.1578
  2.5679  1.1652  0.7891  0.6333  0.6333

 Free energy of the ion-electron system (eV)
  ---------------------------------------------------
  alpha Z        PSCENC =       132.01094186
  Ewald energy   TEWEN  =    128164.22892422
  -Hartree energ DENC   =   -141828.33867120
  -exchange      EXHF   =         0.00000000
  -V(xc)+E(xc)   XCENC  =      -502.13439041
  PAW double counting   =     88116.51929492   -86842.64298355
  entropy T*S    EENTRO =        -0.00000001
  eigenvalues    EBANDS =     -2202.51549146
  atomic energy  EATOM  =     13592.18256620
  Solvation  Ediel_sol  =         0.00000000
  ---------------------------------------------------
  free energy    TOTEN  =     -1370.68980944 eV

  energy without entropy =    -1370.68980943  energy(sigma->0) =    -1370.68980943


--------------------------------------------------------------------------------------------------------




--------------------------------------- Iteration      1(   7)  ---------------------------------------


    POTLOK:  cpu time      3.1808: real time      3.1880
    SETDIJ:  cpu time      3.0942: real time      3.0967
    EDDIAG:  cpu time    122.4224: real time    122.4893
     EDDAV:  cpu time    631.6018: real time    631.9524
       DOS:  cpu time      0.0054: real time      0.0054
    CHARGE:  cpu time     67.0588: real time     67.1082
    MIXING:  cpu time      0.0720: real time      0.0722
    --------------------------------------------
      LOOP:  cpu time    827.4353: real time    827.9122

 eigenvalue-minimisations  :  4328
 total energy-change (2. order) : 0.5913788E-04  (-0.3456487E-03)
 number of electron     543.9999999 magnetization 
 augmentation part      -27.4402621 magnetization 

 Broyden mixing:
  rms(total) = 0.29626E-02    rms(broyden)= 0.12852E+00
  rms(prec ) = 0.33598E-02
  weight for this iteration     100.00
  WARNING: grid for Broyden might be to small

 eigenvalues of (default mixing * dielectric matrix)
  average eigenvalue GAMMA=   1.2234
  2.5664  1.8046  0.9752  0.7268  0.6247  0.6425

 Free energy of the ion-electron system (eV)
  ---------------------------------------------------
  alpha Z        PSCENC =       132.01094186
  Ewald energy   TEWEN  =    128164.22892422
  -Hartree energ DENC   =   -141829.88580887
  -exchange      EXHF   =         0.00000000
  -V(xc)+E(xc)   XCENC  =      -502.24089869
  PAW double counting   =     88200.96591488   -86927.07004132
  entropy T*S    EENTRO =        -0.00000001
  eigenvalues    EBANDS =     -2200.88134857
  atomic energy  EATOM  =     13592.18256620
  Solvation  Ediel_sol  =         0.00000000
  ---------------------------------------------------
  free energy    TOTEN  =     -1370.68975030 eV

  energy without entropy =    -1370.68975029  energy(sigma->0) =    -1370.68975030


--------------------------------------------------------------------------------------------------------




--------------------------------------- Iteration      1(   8)  ---------------------------------------


    POTLOK:  cpu time      3.1871: real time      3.1891
    SETDIJ:  cpu time      3.0945: real time      3.0961
    EDDIAG:  cpu time    122.3334: real time    122.4075
     EDDAV:  cpu time    621.5256: real time    621.8725
       DOS:  cpu time      0.0054: real time      0.0054
    CHARGE:  cpu time     66.9732: real time     67.0232
    MIXING:  cpu time      0.0734: real time      0.0734
    --------------------------------------------
      LOOP:  cpu time    817.1926: real time    817.6672

 eigenvalue-minimisations  :  4216
 total energy-change (2. order) : 0.4040136E-05  (-0.5839444E-04)
 number of electron     543.9999999 magnetization 
 augmentation part      -27.4412840 magnetization 

 Broyden mixing:
  rms(total) = 0.22601E-02    rms(broyden)= 0.44410E-01
  rms(prec ) = 0.23555E-02
  weight for this iteration     100.00
  WARNING: grid for Broyden might be to small

 eigenvalues of (default mixing * dielectric matrix)
  average eigenvalue GAMMA=   1.2923
  2.6112  2.6112  1.0460  0.8599  0.6750  0.6112  0.6316

 Free energy of the ion-electron system (eV)
  ---------------------------------------------------
  alpha Z        PSCENC =       132.01094186
  Ewald energy   TEWEN  =    128164.22892422
  -Hartree energ DENC   =   -141830.03522483
  -exchange      EXHF   =         0.00000000
  -V(xc)+E(xc)   XCENC  =      -502.41314758
  PAW double counting   =     88218.31527362   -86944.42225250
  entropy T*S    EENTRO =        -0.00000001
  eigenvalues    EBANDS =     -2200.55682723
  atomic energy  EATOM  =     13592.18256620
  Solvation  Ediel_sol  =         0.00000000
  ---------------------------------------------------
  free energy    TOTEN  =     -1370.68974626 eV

  energy without entropy =    -1370.68974625  energy(sigma->0) =    -1370.68974626


--------------------------------------------------------------------------------------------------------




--------------------------------------- Iteration      1(   9)  ---------------------------------------


    POTLOK:  cpu time      3.1792: real time      3.1818
    SETDIJ:  cpu time      3.1073: real time      3.1088
    EDDIAG:  cpu time    122.4179: real time    122.4850
     EDDAV:  cpu time    581.8628: real time    582.1918
       DOS:  cpu time      0.0071: real time      0.0071
    CHARGE:  cpu time     66.9653: real time     67.0169
    MIXING:  cpu time      0.0743: real time      0.0750
[...]
      1.35750      1.35750     11.35750        -0.707377      0.684670      0.009783
      2.71500      2.71500     10.00000         0.222749     -0.225726      0.059276
      4.07250      4.07250     11.35750        -0.652855      0.703212     -0.101043
      0.00000      2.71500     12.71500        -0.044378      0.049339      0.081278
      1.35750      4.07250     14.07250        -0.076171      0.005480     -0.009111
      2.71500      0.00000     12.71500         0.070524     -0.039435     -0.084519
      4.07250      1.35750     14.07250        -0.093789      0.009908      0.000157
      0.00000      5.43000     10.00000         0.751705     -0.761149      0.774338
      1.35750      6.78750     11.35750        -0.029140     -0.074311     -0.068924
      2.71500      8.14500     10.00000         0.437895     -0.451146      0.742301
      4.07250      9.50250     11.35750        -0.650778      0.650942     -0.106038
      0.00000      8.14500     12.71500        -0.115764     -0.176669     -0.115613
      1.35750      9.50250     14.07250        -0.019515      0.085335     -0.000816
      2.71500      5.43000     12.71500         0.142059      0.153805      0.035060
      4.07250      6.78750     14.07250        -0.059097     -0.000670     -0.007074
      5.43000      0.00000     10.00000         0.839773     -0.831532      0.805772
      6.78750      1.35750     11.35750         0.071343      0.028073     -0.098828
      8.14500      2.71500     10.00000         1.201633     -1.189324      0.695121
      9.50250      4.07250     11.35750         0.692302     -0.687790     -0.052849
      5.43000      2.71500     12.71500         0.176185      0.100345     -0.116468
      6.78750      4.07250     14.07250        -0.092412      0.028063      0.000034
      8.14500      0.00000     12.71500        -0.143074     -0.160129      0.036993
      9.50250      1.35750     14.07250        -0.002952      0.068833     -0.011657
      5.43000      5.43000     10.00000        -1.276196      1.285888     -0.407081
      6.78750      6.78750     11.35750        -0.679671      0.661655     -0.126043
      8.14500      8.14500     10.00000        -1.603443      1.600198      0.230694
      9.50250      9.50250     11.35750        -0.686671      0.676010     -0.013964
      5.43000      8.14500     12.71500         0.050776     -0.049161      0.014389
      6.78750      9.50250     14.07250        -0.005303      0.070028     -0.004753
      8.14500      5.43000     12.71500         0.010257     -0.024665     -0.143872
      9.50250      6.78750     14.07250        -0.016656      0.098956      0.001771
      0.00000      0.00000     15.43000        -0.082735     -0.031692     -0.003408
      1.35750      1.35750     16.78750         0.014014     -0.015417     -0.016812
      2.71500      2.71500     15.43000         0.031020      0.083705     -0.003234
      4.07250      4.07250     16.78750         0.004496     -0.031621     -0.003389
      0.00000      2.71500     18.14500        -0.003637      0.001639     -0.011819
      1.35750      4.07250     19.50250         0.000916      0.001904      0.000181
      2.71500      0.00000     18.14500         0.003880     -0.006547      0.006413
      4.07250      1.35750     19.50250        -0.002285      0.004791     -0.001388
      0.00000      5.43000     15.43000         0.046697     -0.058978     -0.003100
      1.35750      6.78750     16.78750        -0.037901      0.036120     -0.004519
      2.71500      8.14500     15.43000         0.037478     -0.043639     -0.005580
      4.07250      9.50250     16.78750        -0.033062      0.034725     -0.006740
      0.00000      8.14500     18.14500        -0.003285     -0.009370      0.010841
      1.35750      9.50250     19.50250        -0.009629      0.008609     -0.001254
      2.71500      5.43000     18.14500         0.005971      0.001285     -0.010835
      4.07250      6.78750     19.50250        -0.003992      0.003802      0.001048
      5.43000      0.00000     15.43000         0.047911     -0.037527     -0.004534
      6.78750      1.35750     16.78750        -0.035576      0.033357     -0.003930
      8.14500      2.71500     15.43000         0.058010     -0.049471     -0.003495
      9.50250      4.07250     16.78750        -0.036088      0.038359     -0.002264
      5.43000      2.71500     18.14500         0.007331      0.007480      0.010425
      6.78750      4.07250     19.50250         0.002872     -0.002454      0.001792
      8.14500      0.00000     18.14500        -0.002972     -0.003568     -0.009866
      9.50250      1.35750     19.50250         0.004476     -0.004295      0.001625
      5.43000      5.43000     15.43000         0.031555      0.080020      0.010523
      6.78750      6.78750     16.78750         0.022705     -0.021584      0.008844
      8.14500      8.14500     15.43000        -0.079607     -0.032803      0.009465
      9.50250      9.50250     16.78750         0.032434     -0.004914     -0.002930
      5.43000      8.14500     18.14500         0.005472     -0.004174     -0.008778
      6.78750      9.50250     19.50250        -0.003828      0.001021      0.001202
      8.14500      5.43000     18.14500        -0.001727      0.002229      0.013933
      9.50250      6.78750     19.50250        -0.001450     -0.000465      0.001723
      0.00000      0.00000     20.86000         0.005496     -0.007079     -0.002715
      1.35750      1.35750     22.21750        -0.017235     -0.008674     -0.005027
      2.71500      2.71500     20.86000         0.001324     -0.005192      0.001893
      4.07250      4.07250     22.21750         0.006127      0.007583     -0.001466
      0.00000      2.71500     23.57500         0.026712      0.002208      0.004548
      1.35750      4.07250     24.93250        -0.072227     -0.041622      0.004633
      2.71500      0.00000     23.57500        -0.011855      0.023613      0.007676
      4.07250      1.35750     24.93250         0.027729     -0.038406      0.009777
      0.00000      5.43000     20.86000         0.000886     -0.002059     -0.001004
      1.35750      6.78750     22.21750        -0.008339     -0.003000      0.006799
      2.71500      8.14500     20.86000         0.000297     -0.000006      0.000413
      4.07250      9.50250     22.21750         0.008647      0.002365      0.006748
      0.00000      8.14500     23.57500        -0.014258      0.027490     -0.004563
      1.35750      9.50250     24.93250        -0.032940     -0.075716     -0.000961
      2.71500      5.43000     23.57500         0.007358     -0.007841      0.017682
      4.07250      6.78750     24.93250         0.043636      0.068700      0.007964
      5.43000      0.00000     20.86000        -0.006635      0.007422     -0.001806
      6.78750      1.35750     22.21750         0.006701     -0.011672      0.005286
      8.14500      2.71500     20.86000        -0.011174      0.011236      0.000661
      9.50250      4.07250     22.21750         0.006217     -0.000856      0.005606
      5.43000      2.71500     23.57500        -0.022685      0.012208      0.009974
      6.78750      4.07250     24.93250         0.062279      0.045861      0.000880
      8.14500      0.00000     23.57500         0.013419     -0.016098     -0.007828
      9.50250      1.35750     24.93250        -0.065672     -0.045347     -0.005445
      5.43000      5.43000     20.86000         0.000157      0.001614     -0.001360
      6.78750      6.78750     22.21750         0.003571      0.005646     -0.007545
      8.14500      8.14500     20.86000         0.006029     -0.002357     -0.002444
      9.50250      9.50250     22.21750        -0.002879      0.005890     -0.010175
      5.43000      8.14500     23.57500        -0.001811     -0.023718      0.004145
      6.78750      9.50250     24.93250         0.030112      0.081489     -0.007878
      8.14500      5.43000     23.57500        -0.028614      0.013742     -0.002950
      9.50250      6.78750     24.93250         0.049564     -0.037177     -0.002235
      0.00000      0.00000     26.29000         0.065574      0.066362     -0.011401
      1.35750      1.35750     27.64750        -0.271480     -0.301859      0.066437
      2.71500      2.71500     26.29000        -0.011434      0.090389      0.017239
      4.07250      4.07250     27.64750         0.155383      0.124140      0.038839
      0.00000      2.71500     29.00500         0.001814      0.010569      0.070782
      1.35750      4.07250     30.36250        -1.210564      1.212922     -1.562857
      2.71500      0.00000     29.00500        -0.088790     -0.048941      0.006293
      4.07250      1.35750     30.36250        -0.613219      0.601177     -0.461981
      0.00000      5.43000     26.29000        -0.006064      0.081076     -0.007288
      1.35750      6.78750     27.64750        -0.207867     -0.093588     -0.035903
      2.71500      8.14500     26.29000        -0.005938      0.000257      0.022736
      4.07250      9.50250     27.64750         0.174319      0.126624     -0.028372
      0.00000      8.14500     29.00500         0.711034     -0.640552      0.085368
      1.35750      9.50250     30.36250         0.773025     -0.780430     -0.883593
      2.71500      5.43000     29.00500        -0.009502      0.002473     -0.049532
      4.07250      6.78750     30.36250         1.739699     -1.736092     -3.624815
      5.43000      0.00000     26.29000        -0.068823      0.000831     -0.007423
      6.78750      1.35750     27.64750         0.074771     -0.059247     -0.000321
      8.14500      2.71500     26.29000         0.002490     -0.003701      0.017356
      9.50250      4.07250     27.64750        -0.021737      0.004517      0.015618
      5.43000      2.71500     29.00500        -0.641617      0.676914      0.046992
      6.78750      4.07250     30.36250         1.275872     -1.274251     -1.099793
      8.14500      0.00000     29.00500        -0.705143      0.600656      0.115836
      9.50250      1.35750     30.36250        -1.492002      1.494356     -0.038904
      5.43000      5.43000     26.29000        -0.058079     -0.074197     -0.010712
      6.78750      6.78750     27.64750         0.146264      0.133959      0.096724
      8.14500      8.14500     26.29000        -0.090444      0.011910      0.011786
      9.50250      9.50250     27.64750         0.014258      0.001425      0.125482
      5.43000      8.14500     29.00500        -0.603447      0.693377      0.005236
      6.78750      9.50250     30.36250        -0.411438      0.414672     -1.350217
      8.14500      5.43000     29.00500         0.051920     -0.012255      0.134411
      9.50250      6.78750     30.36250         1.142688     -1.134262     -0.304651
 -----------------------------------------------------------------------------------
    total drift:                               -0.006881      0.007103     -0.000774


--------------------------------------------------------------------------------------------------------



  FREE ENERGIE OF THE ION-ELECTRON SYSTEM (eV)
  ---------------------------------------------------
  free  energy   TOTEN  =     -1370.69003849 eV

  energy  without entropy=    -1370.69003849  energy(sigma->0) =    -1370.69003849



--------------------------------------------------------------------------------------------------------


    POTLOK:  cpu time      6.2733: real time      6.3174


--------------------------------------------------------------------------------------------------------


     LOOP+:  cpu time  17749.0866: real time  17759.7500
    4ORBIT:  cpu time      0.0000: real time      0.0000



 total charge

# of ion       s       p       d       tot
------------------------------------------
    1        0.560   0.017   0.000   0.577
    2        0.554   0.016   0.000   0.570
    3        0.532   0.015   0.000   0.547
    4        0.494   0.011   0.000   0.504
    5        0.630   0.051   0.000   0.681
    6        0.543   0.015   0.000   0.557
    7        0.543   0.017   0.000   0.559
    8        0.533   0.015   0.000   0.548
    9        0.527   0.015   0.000   0.543
   10        0.538   0.015   0.000   0.553
   11        0.674   0.061   0.000   0.735
   12        0.541   0.014   0.000   0.555
   13        0.676   0.058   0.000   0.734
   14        0.492   0.011   0.000   0.503
   15        0.667   0.049   0.000   0.717
   16        0.516   0.014   0.000   0.530
   17        0.515   0.015   0.000   0.530
   18        0.562   0.017   0.000   0.578
   19        0.566   0.019   0.000   0.585
   20        0.510   0.012   0.000   0.521
   21        0.646   0.056   0.000   0.702
   22        0.551   0.015   0.000   0.566
   23        0.555   0.017   0.000   0.571
   24        0.620   0.023   0.000   0.643
   25        0.508   0.014   0.000   0.522
   26        0.551   0.016   0.000   0.567
   27        0.677   0.053   0.000   0.731
   28        0.509   0.014   0.000   0.523
   29        0.662   0.057   0.000   0.719
   30        0.568   0.018   0.000   0.586
   31        0.670   0.056   0.000   0.726
   32        0.527   0.015   0.000   0.541
   33        0.732   0.998   0.000   1.730
   34        0.744   0.966   0.000   1.709
   35        0.730   0.931   0.000   1.661
   36        0.743   0.964   0.000   1.707
   37        0.745   0.966   0.000   1.710
   38        0.743   0.964   0.000   1.707
   39        0.743   0.965   0.000   1.708
   40        0.743   0.962   0.000   1.706
   41        0.749   0.993   0.000   1.742
   42        0.742   0.965   0.000   1.707
   43        0.734   0.967   0.000   1.700
   44        0.743   0.965   0.000   1.709
   45        0.742   0.964   0.000   1.706
   46        0.743   0.962   0.000   1.706
   47        0.744   0.964   0.000   1.708
   48        0.743   0.964   0.000   1.708
   49        0.734   0.956   0.000   1.690
   50        0.741   0.965   0.000   1.707
   51        0.753   0.989   0.000   1.742
   52        0.740   0.965   0.000   1.706
   53        0.743   0.963   0.000   1.706
   54        0.743   0.962   0.000   1.705
   55        0.744   0.964   0.000   1.708
   56        0.743   0.964   0.000   1.707
   57        0.754   0.941   0.000   1.694
   58        0.742   0.967   0.000   1.709
   59        0.754   0.979   0.000   1.733
   60        0.743   0.968   0.000   1.711
   61        0.744   0.963   0.000   1.707
   62        0.743   0.964   0.000   1.708
   63        0.742   0.962   0.000   1.704
   64        0.743   0.962   0.000   1.705
   65        0.744   0.963   0.000   1.707
   66        0.743   0.963   0.000   1.706
   67        0.744   0.963   0.000   1.707
   68        0.743   0.963   0.000   1.707
   69        0.743   0.963   0.000   1.707
   70        0.743   0.963   0.000   1.707
   71        0.743   0.964   0.000   1.707
   72        0.743   0.964   0.000   1.707
   73        0.743   0.963   0.000   1.707
   74        0.743   0.963   0.000   1.707
   75        0.743   0.963   0.000   1.707
   76        0.743   0.963   0.000   1.707
   77        0.743   0.964   0.000   1.707
   78        0.743   0.964   0.000   1.707
   79        0.743   0.963   0.000   1.707
   80        0.743   0.963   0.000   1.707
   81        0.743   0.963   0.000   1.707
   82        0.743   0.963   0.000   1.707
   83        0.743   0.963   0.000   1.707
   84        0.743   0.963   0.000   1.707
   85        0.743   0.964   0.000   1.707
   86        0.743   0.964   0.000   1.707
   87        0.743   0.963   0.000   1.707
   88        0.743   0.963   0.000   1.707
   89        0.743   0.964   0.000   1.707
   90        0.743   0.964   0.000   1.707
   91        0.743   0.964   0.000   1.707
   92        0.743   0.963   0.000   1.707
   93        0.743   0.963   0.000   1.707
   94        0.743   0.963   0.000   1.707
   95        0.743   0.964   0.000   1.707
   96        0.743   0.964   0.000   1.707
   97        0.743   0.964   0.000   1.707
   98        0.743   0.964   0.000   1.707
   99        0.743   0.963   0.000   1.707
  100        0.743   0.964   0.000   1.707
  101        0.743   0.963   0.000   1.707
  102        0.743   0.963   0.000   1.707
  103        0.743   0.963   0.000   1.707
  104        0.743   0.963   0.000   1.707
  105        0.743   0.963   0.000   1.707
  106        0.743   0.963   0.000   1.707
  107        0.743   0.963   0.000   1.707
  108        0.743   0.963   0.000   1.707
  109        0.743   0.964   0.000   1.707
  110        0.743   0.963   0.000   1.707
  111        0.743   0.963   0.000   1.706
  112        0.744   0.963   0.000   1.707
  113        0.743   0.963   0.000   1.707
  114        0.743   0.963   0.000   1.707
  115        0.743   0.963   0.000   1.707
  116        0.743   0.963   0.000   1.707
  117        0.743   0.963   0.000   1.707
  118        0.743   0.963   0.000   1.707
  119        0.743   0.964   0.000   1.707
  120        0.743   0.964   0.000   1.707
  121        0.743   0.963   0.000   1.707
  122        0.743   0.964   0.000   1.707
  123        0.743   0.964   0.000   1.707
  124        0.743   0.964   0.000   1.707
  125        0.743   0.963   0.000   1.707
  126        0.743   0.964   0.000   1.707
  127        0.743   0.964   0.000   1.707
  128        0.743   0.964   0.000   1.707
  129        0.743   0.963   0.000   1.706
  130        0.742   0.965   0.000   1.708
  131        0.743   0.962   0.000   1.705
  132        0.743   0.967   0.000   1.710
  133        0.742   0.966   0.000   1.708
  134        0.734   0.975   0.000   1.709
  135        0.742   0.966   0.000   1.707
  136        0.730   0.976   0.000   1.706
  137        0.743   0.964   0.000   1.708
  138        0.744   0.964   0.000   1.708
  139        0.743   0.963   0.000   1.707
  140        0.744   0.964   0.000   1.708
  141        0.741   0.966   0.000   1.706
  142        0.750   0.996   0.000   1.746
  143        0.742   0.967   0.000   1.709
  144        0.740   1.040   0.000   1.781
  145        0.743   0.964   0.000   1.708
  146        0.744   0.963   0.000   1.707
  147        0.743   0.963   0.000   1.707
  148        0.743   0.963   0.000   1.706
  149        0.743   0.965   0.000   1.708
  150        0.736   0.951   0.000   1.687
  151        0.742   0.967   0.000   1.709
  152        0.754   0.965   0.000   1.719
  153        0.743   0.963   0.000   1.706
  154        0.742   0.964   0.000   1.706
  155        0.743   0.962   0.000   1.705
  156        0.742   0.962   0.000   1.704
  157        0.741   0.969   0.000   1.710
  158        0.755   1.007   0.000   1.762
  159        0.742   0.965   0.000   1.707
  160        0.753   0.979   0.000   1.732
--------------------------------------------------
tot        113.338 124.404   0.000 237.742


 total amount of memory used by VASP MPI-rank0   572357. kBytes
=======================================================================

   base                                    :      30000. kBytes
   nonl-proj                               :      90022. kBytes
   fftplans                                :     154585. kBytes
   grid                                    :      96880. kBytes
   one-center                              :         30. kBytes
   wavefun                                 :     200840. kBytes

  
  
 General timing and accounting informations for this job:
 ========================================================
  
                  Total CPU time used (sec):    17919.176
                            User time (sec):    16489.881
                          System time (sec):     1429.294
                         Elapsed time (sec):    17930.014
  
                   Maximum memory used (kb):      825372.
                   Average memory used (kb):          N/A
  
                          Minor page faults:     14555278
                          Major page faults:         1246
                 Voluntary context switches:         1337
