 vasp.6.5.0 16Dec24 (build Jan 20 2025 08:32:48) complex                         
 executed on        HPECrayEX_GCC date 2025.07.25  10:47:50
 running   64 mpi-ranks, with    1 threads/rank, on    1 nodes
 distrk:  each k-point on   64 cores,    1 groups
 distr:  one band on NCORE=  16 cores,    4 groups


--------------------------------------------------------------------------------------------------------


 INCAR:
   SYSTEM = a-Si SPC
   NCORE = 16
   ISTART = 1
   ICHARG = 1
   ISPIN = 1
   ISYM = 1
   EDIFF = 1E-6
   NELM = 150
   EDIFFG = -0.01
   NSW = 0
   ISIF = 2
   IBRION = -1
   PREC = Accurate
   ENCUT = 1200
   KSPACING = 0.23
   KGAMMA = .TRUE.
   METAGGA = SCAN
   LASPH = .TRUE.
   LDIAG = .FALSE.
   LMIXTAU = .TRUE.
   ADDGRID = .TRUE.
   ALGO = Normal
   ISMEAR = 0
   SIGMA = 0.1
   LORBIT = 11
   NEDOS = 2000
   LWAVE = .FALSE.
   LCHARG = .FALSE.

 POTCAR:    PAW_PBE H 15Jun2001                   
 POTCAR:    PAW_PBE H 15Jun2001                   
   SHA256 =  030f79b5d3ab3cf0e668861823c8fb652ff669f3e15e46930bd03bfd63a607b6 H/POTCAR              
   COPYR  = (c) Copyright 15Jun2001 Georg Kresse                                                    
   COPYR  = This file is part of the software VASP. Any use, copying, and all other rights are regul
   COPYR  = If you do not have a valid VASP license, you may not use, copy or distribute this file. 
   VRHFIN =H: ultrasoft test                                                                        
   LEXCH  = PE                                                                                      
   EATOM  =    12.4884 eV,    0.9179 Ry                                                             
                                                                                                    
   TITEL  = PAW_PBE H 15Jun2001                                                                     
   LULTRA =        F    use ultrasoft PP ?                                                          
   IUNSCR =        0    unscreen: 0-lin 1-nonlin 2-no                                               
   RPACOR =    0.000    partial core radius                                                         
   POMASS =    1.000; ZVAL   =    1.000    mass and valenz                                          
   RCORE  =    1.100    outmost cutoff radius                                                       
   RWIGS  =    0.700; RWIGS  =    0.370    wigner-seitz radius (au A)                               
   ENMAX  =  250.000; ENMIN  =  200.000 eV                                                          
   RCLOC  =    0.701    cutoff for local pot                                                        
   LCOR   =        T    correct aug charges                                                         
   LPAW   =        T    paw PP                                                                      
   EAUG   =  400.000                                                                                
   RMAX   =    1.123    core radius for proj-oper                                                   
   RAUG   =    1.200    factor for augmentation sphere                                              
   RDEP   =    1.112    radius for radial grids                                                     
   RDEPT  =    0.926    core radius for aug-charge                                                  
                                                                                                    
   Atomic configuration                                                                             
    2 entries                                                                                       
     n  l   j            E        occ.                                                              
     1  0  0.50        -6.4927   1.0000                                                             
     2  1  0.50        -3.4015   0.0000                                                             
   Description                                                                                      
     l       E           TYP  RCUT    TYP  RCUT                                                     
     0     -6.4927494     23  1.100                                                                 
     0      6.8029130     23  1.100                                                                 
     1     -4.0817478     23  1.100                                                                 
  local pseudopotential read in
  atomic valenz-charges read in
  non local Contribution for L=           0  read in
    real space projection operators read in
  non local Contribution for L=           0  read in
    real space projection operators read in
  non local Contribution for L=           1  read in
    real space projection operators read in
    PAW grid and wavefunctions read in

   number of l-projection  operators is LMAX  =           3
   number of lm-projection operators is LMMAX =           5

 -----------------------------------------------------------------------------
|                                                                             |
|               ----> ADVICE to this user running VASP <----                  |
|                                                                             |
|     You enforced a specific xc type in the INCAR file but a different       |
|     type was found in the POTCAR file.                                      |
|     I HOPE YOU KNOW WHAT YOU ARE DOING!                                     |
|                                                                             |
 -----------------------------------------------------------------------------

  PAW_PBE H 15Jun2001                   :
 energy of atom  1       EATOM=  -12.4884
 kinetic energy error for atom=    0.0000 (will be added to EATOM!!)


 POSCAR: H
  positions in cartesian coordinates
  No initial velocities read in


 exchange-correlation table for SCAN
   RHO(1)=    0.500       N(1)  =     2000
   RHO(2)=  100.500       N(2)  =     4000



--------------------------------------------------------------------------------------------------------


 ion  position               nearest neighbor table
   1  0.000  0.000  0.018-   2 0.74
   2  0.000  0.000  0.982-   1 0.74

  LATTYP: Found a simple cubic cell.
 ALAT       =    20.0000000000
  
  Lattice vectors:
  
 A1 = (  20.0000000000,   0.0000000000,   0.0000000000)
 A2 = (   0.0000000000,  20.0000000000,   0.0000000000)
 A3 = (   0.0000000000,   0.0000000000,  20.0000000000)


Analysis of symmetry for initial positions (statically):
=====================================================================
 Subroutine PRICEL returns:
 Original cell was already a primitive cell.
 

 Routine SETGRP: Setting up the symmetry group for a 
 simple cubic supercell.


 Subroutine GETGRP returns: Found 16 space group operations
 (whereof 16 operations were pure point group operations)
 out of a pool of 48 trial point group operations.


The static configuration has the point symmetry D_4h.


Analysis of symmetry for dynamics (positions and initial velocities):
=====================================================================
 Subroutine PRICEL returns:
 Original cell was already a primitive cell.
 

 Routine SETGRP: Setting up the symmetry group for a 
 simple cubic supercell.


 Subroutine GETGRP returns: Found 16 space group operations
 (whereof 16 operations were pure point group operations)
 out of a pool of 48 trial point group operations.


The dynamic configuration has the point symmetry D_4h.


 Subroutine INISYM returns: Found 16 space group operations
 (whereof 16 operations are pure point group operations),
 and found     1 'primitive' translations


----------------------------------------------------------------------------------------

                                     Primitive cell                                     

  volume of cell :    8000.0000

  direct lattice vectors                    reciprocal lattice vectors
    20.000000000  0.000000000  0.000000000     0.050000000  0.000000000  0.000000000
     0.000000000 20.000000000  0.000000000     0.000000000  0.050000000  0.000000000
     0.000000000  0.000000000 20.000000000     0.000000000  0.000000000  0.050000000

  length of vectors
    20.000000000 20.000000000 20.000000000     0.050000000  0.050000000  0.050000000

  position of ions in fractional coordinates (direct lattice)
     0.000000000  0.000000000  0.018429150
     0.000000000  0.000000000  0.981570850

  ion indices of the primitive-cell ions
   primitive index   ion index
                 1           1
                 2           2

----------------------------------------------------------------------------------------


 -----------------------------------------------------------------------------
|                                                                             |
|           W    W    AA    RRRRR   N    N  II  N    N   GGGG   !!!           |
|           W    W   A  A   R    R  NN   N  II  NN   N  G    G  !!!           |
|           W    W  A    A  R    R  N N  N  II  N N  N  G       !!!           |
|           W WW W  AAAAAA  RRRRR   N  N N  II  N  N N  G  GGG   !            |
|           WW  WW  A    A  R   R   N   NN  II  N   NN  G    G                |
|           W    W  A    A  R    R  N    N  II  N    N   GGGG   !!!           |
|                                                                             |
|     The requested file  could not be found or opened for reading            |
|     k-point information. Automatic k-point generation is used as a          |
|     fallback, which may lead to unwanted results.                           |
|                                                                             |
 -----------------------------------------------------------------------------



Automatic generation of k-mesh.
 Grid dimensions derived from KSPACING:
 generate k-points for:    2    2    2

 Generating k-lattice:

  Cartesian coordinates                     Fractional coordinates (reciprocal lattice)
     0.025000000  0.000000000  0.000000000     0.500000000  0.000000000  0.000000000
     0.000000000  0.025000000  0.000000000     0.000000000  0.500000000  0.000000000
     0.000000000  0.000000000  0.025000000     0.000000000  0.000000000  0.500000000

  Length of vectors
     0.025000000  0.025000000  0.025000000

  Shift w.r.t. Gamma in fractional coordinates (k-lattice)
     0.000000000  0.000000000  0.000000000

 
 Subroutine IBZKPT returns following result:
 ===========================================
 
 Found      6 irreducible k-points:
 
 Following reciprocal coordinates:
            Coordinates               Weight
  0.000000  0.000000  0.000000      1.000000
  0.500000  0.000000  0.000000      2.000000
  0.000000  0.000000  0.500000      1.000000
  0.500000  0.500000  0.000000      1.000000
  0.000000  0.500000  0.500000      2.000000
  0.500000  0.500000  0.500000      1.000000
 
 Following cartesian coordinates:
            Coordinates               Weight
  0.000000  0.000000  0.000000      1.000000
  0.025000  0.000000  0.000000      2.000000
  0.000000  0.000000  0.025000      1.000000
  0.025000  0.025000  0.000000      1.000000
  0.000000  0.025000  0.025000      2.000000
  0.025000  0.025000  0.025000      1.000000
 


--------------------------------------------------------------------------------------------------------




 Dimension of arrays:
   k-points           NKPTS =      6   k-points in BZ     NKDIM =      6   number of bands    NBANDS=      8
   number of dos      NEDOS =   2000   number of ions     NIONS =      2
   non local maximal  LDIM  =      3   non local SUM 2l+1 LMDIM =      5
   total plane-waves  NPLWV = ******
   max r-space proj   IRMAX =      1   max aug-charges    IRDMAX=  67382
   dimension x,y,z NGX =   240 NGY =  240 NGZ =  240
   dimension x,y,z NGXF=   480 NGYF=  480 NGZF=  480
   support grid    NGXF=   960 NGYF=  960 NGZF=  960
   ions per type =               2
   NGX,Y,Z   is equivalent  to a cutoff of  19.95, 19.95, 19.95 a.u.
   NGXF,Y,Z  is equivalent  to a cutoff of  39.90, 39.90, 39.90 a.u.

 SYSTEM =  a-Si SPC                                
 POSCAR =  H                                       

 Startparameter for this run:
   NWRITE =      2    write-flag & timer
   PREC   = accura    normal or accurate (medium, high low for compatibility)
   ISTART =      1    job   : 0-new  1-cont  2-samecut
   ICHARG =      1    charge: 1-file 2-atom 10-const
   ISPIN  =      1    spin polarized calculation?
   LNONCOLLINEAR =      F non collinear calculations
   LSORBIT =      F    spin-orbit coupling
   INIWAV =      1    electr: 0-lowe 1-rand  2-diag
   LASPH  =      T    aspherical Exc in radial PAW
 Electronic Relaxation 1
   ENCUT  = 1200.0 eV  88.20 Ry    9.39 a.u.  56.49 56.49 56.49*2*pi/ulx,y,z
   ENINI  = 1200.0     initial cutoff
   ENAUG  =  400.0 eV  augmentation charge cutoff
   NELM   =    150;   NELMIN=  2; NELMDL=  0     # of ELM steps 
   EDIFF  = 0.1E-05   stopping-criterion for ELM
   LREAL  =      F    real-space projection
   NLSPLINE    = F    spline interpolate recip. space projectors
   LCOMPAT=      F    compatible to vasp.4.4
   GGA_COMPAT  = T    GGA compatible to vasp.4.4-vasp.4.6
   LMAXPAW     = -100 max onsite density
   LMAXMIX     =    2 max onsite mixed and CHGCAR
   VOSKOWN=      0    Vosko Wilk Nusair interpolation
   ROPT   =    0.00000
 Ionic relaxation
   EDIFFG = -.1E-01   stopping-criterion for IOM
   NSW    =      0    number of steps for IOM
   NBLOCK =      1;   KBLOCK =      1    inner block; outer block 
   IBRION =     -1    ionic relax: 0-MD 1-quasi-New 2-CG
   NFREE  =      0    steps in history (QN), initial steepest desc. (CG)
   ISIF   =      2    stress and relaxation
   IWAVPR =     10    prediction:  0-non 1-charg 2-wave 3-comb
   ISYM   =      1    0-nonsym 1-usesym 2-fastsym
   LCORR  =      T    Harris-Foulkes like correction to forces

   POTIM  = 0.5000    time-step for ionic-motion
   TEIN   =    0.0    initial temperature
   TEBEG  =    0.0;   TEEND  =   0.0 temperature during run
   SMASS  =  -3.00    Nose mass-parameter (am)
   estimated Nose-frequenzy (Omega)   =  0.10E-29 period in steps = 0.13E+47 mass=  -0.914E-26a.u.
   SCALEE = 1.0000    scale energy and forces
   NPACO  =    256;   APACO  = 10.0  distance and # of slots for P.C.
   PSTRESS=    0.0 pullay stress

  Mass of Ions in am
   POMASS =   1.00
  Ionic Valenz
   ZVAL   =   1.00
  Atomic Wigner-Seitz radii
   RWIGS  =  -1.00
  virtual crystal weights 
   VCA    =   1.00
   NELECT =       2.0000    total number of electrons
   NUPDOWN=      -1.0000    fix difference up-down

 DOS related values:
   EMIN   =  10.00;   EMAX   =-10.00  energy-range for DOS
   EFERMI =   0.00;   METHOD = LEGACY      
   ISMEAR =     0;   SIGMA  =   0.10  broadening in eV -4-tet -1-fermi 0-gaus
   EFERMI_NEDOS =   21; number of points for ismear=-14 and -15

 Electronic relaxation 2 (details)
   IALGO  =     38    algorithm
   LDIAG  =      F    sub-space diagonalisation (order eigenvalues)
   LSUBROT=      F    optimize rotation matrix (better conditioning)
   TURBO    =      0    0=normal 1=particle mesh
   IRESTART =      0    0=no restart 2=restart with 2 vectors
   NREBOOT  =      0    no. of reboots
   NMIN     =      0    reboot dimension
   EREF     =   0.00    reference energy to select bands
   IMIX   =      4    mixing-type and parameters
     AMIX     =   0.40;   BMIX     =  1.00
     AMIX_MAG =   1.60;   BMIX_MAG =  1.00
     AMIN     =   0.10
     WC   =   100.;   INIMIX=   1;  MIXPRE=   1;  MAXMIX= -45

 Intra band minimization:
   WEIMIN = 0.0000     energy-eigenvalue tresh-hold
   EBREAK =  0.31E-07  absolut break condition
   DEPER  =   0.30     relativ break condition  

   TIME   =   0.40     timestep for ELM

  volume/ion in A,a.u.               =    4000.00     26993.33
  Fermi-wavevector in a.u.,A,eV,Ry     =   0.103131  0.194889  0.144711  0.010636
  Thomas-Fermi vector in A             =   0.684775

 Write flags
   LWAVE        =      F    write WAVECAR
   LDOWNSAMPLE  =      F    k-point downsampling of WAVECAR
   LCHARG       =      F    write CHGCAR
   LVTOT        =      F    write LOCPOT, total local potential
   LVHAR        =      F    write LOCPOT, Hartree potential only
   WRT_POTENTIAL= false  ! write potential to hdf5 file
   LELF         =      F    write electronic localiz. function (ELF)
   LORBIT       =     11    0 simple, 1 ext, 2 COOP (PROOUT), +10 PAW based schemes


 Python interface
   PLUGINS active      =      F    recompile with -DPLUGINS to activate

 Dipole corrections
   LMONO      =      F    monopole corrections only (constant potential shift)
   LDIPOL     =      F    correct potential (dipole corrections)
   IDIPOL     =      0    1-x, 2-y, 3-z, 4-all directions 
   EPSILON    =  1.0000000 bulk dielectric constant
   LVACPOTAV  =      F  vacuum potentials using an averaging scheme for the charge density
   VACPOTFLAT =  0.1000000 required flatness to determine vacuum potential

Coulomb truncation method
  LTRUNCATE          =      F  Coulomb kernel truncation to be used
  IDIMENSIONALITY    =      3  Dimensionality of cutoff (0 molecules / 2 surfaces)
  ISURFACE           =     -1  Direction of surface normal
  LCOARSEN           =      F  Coarsen the charge grid before padding, preferred


 Exchange correlation treatment:
   METAGGA = SCAN    functional components
   XC_C    = 1    coefficients multiplying the functional components
   LIBXC   =     F    Libxc                    
   VOSKOWN =     0    Vosko Wilk Nusair interpolation
   LHFCALC =     F    Hartree Fock is set to
   LHFONE  =     F    Hartree Fock one center treatment
   AEXX    =    0.0000 exact exchange contribution

 Parameters of functionals:
   SCAN:
     P1 =  0.000000E+00
     P2 =  0.000000E+00
     P3 =  0.000000E+00

 Accuracy and mixing parameters for tau-dependent meta-GGA functionals:
   LMAXTAU = 6
   LMIXTAU = T

 Van der Waals corrections
   IVDW    =     0    specifies the selected vdW correction

 Linear response parameters
   LEPSILON=     F    determine dielectric tensor
   LRPA    =     F    only Hartree local field effects (RPA)
   LNABLA  =     F    use nabla operator in PAW spheres
   LVEL    =     F    velocity operator in full k-point grid
   CSHIFT  =0.1000    complex shift for real part using Kramers Kronig
   OMEGAMAX=  -1.0    maximum frequency
   DEG_THRESHOLD= 0.2000000E-02 threshold for treating states as degnerate
   RTIME   =   -0.100 relaxation time in fs
  (WPLASMAI=    0.000 imaginary part of plasma frequency in eV, 0.658/RTIME)
   DFIELD  = 0.0000000 0.0000000 0.0000000 field for delta impulse in time

  Optional k-point grid parameters
   LKPOINTS_OPT  =     F    use optional k-point grid
   KPOINTS_OPT_MODE=     1    mode for optional k-point grid

 Orbital magnetization related:
   ORBITALMAG=     F  switch on orbital magnetization
   LCHIMAG   =     F  perturbation theory with respect to B field
   DQ        =  0.001000  dq finite difference perturbation B field
   LLRAUG    =     F  two centre corrections for induced B field
   LBONE     =     F  B-component reconstruction in AE one-centre
   LVGVCALC  =     T  calculate vGv susceptibility
   LVGVAPPL  =     F  apply vGv susceptibility instead of pGv for G=0

 Random number generation:
   RANDOM_GENERATOR = DEFAULT
   PCG_SEED         = not used


--------------------------------------------------------------------------------------------------------


 Static calculation
 charge density and potential will be updated during run
 non-spin polarized calculation
 Variant of blocked Davidson
 perform Loewdin sub-space diagonalisation
    ordering is kept fixed
    before iterative eigenvector-optimisation
 modified Broyden-mixing scheme, WC =      100.0
 initial mixing is a Kerker type mixing with AMIX =  0.4000 and BMIX =      1.0000
 Hartree-type preconditioning will be used
 using additional bands            7
 reciprocal scheme for non local part
 calculate Harris-corrections to forces   (improved forces if not selfconsistent)
 use gradient corrections 
 use of overlap-Matrix (Vanderbilt PP)
 Gauss-broadening in eV      SIGMA  =   0.10


--------------------------------------------------------------------------------------------------------


  energy-cutoff  :     1200.00
  volume of cell :     8000.00
      direct lattice vectors                 reciprocal lattice vectors
    20.000000000  0.000000000  0.000000000     0.050000000  0.000000000  0.000000000
     0.000000000 20.000000000  0.000000000     0.000000000  0.050000000  0.000000000
     0.000000000  0.000000000 20.000000000     0.000000000  0.000000000  0.050000000

  length of vectors
    20.000000000 20.000000000 20.000000000     0.050000000  0.050000000  0.050000000



 old parameters found on file WAVECAR:
  energy-cutoff  :     1200.00
  volume of cell :     8000.00
      direct lattice vectors                 reciprocal lattice vectors
    20.000000000  0.000000000  0.000000000     0.050000000  0.000000000  0.000000000
     0.000000000 20.000000000  0.000000000     0.000000000  0.050000000  0.000000000
     0.000000000  0.000000000 20.000000000     0.000000000  0.000000000  0.050000000

  length of vectors


 k-points in units of 2pi/SCALE and weight: read from INCAR                         
   0.00000000  0.00000000  0.00000000       0.125
   0.02500000  0.00000000  0.00000000       0.250
   0.00000000  0.00000000  0.02500000       0.125
   0.02500000  0.02500000  0.00000000       0.125
   0.00000000  0.02500000  0.02500000       0.250
   0.02500000  0.02500000  0.02500000       0.125

 k-points in reciprocal lattice and weights: read from INCAR                         
   0.00000000  0.00000000  0.00000000       0.125
   0.50000000  0.00000000  0.00000000       0.250
   0.00000000  0.00000000  0.50000000       0.125
   0.50000000  0.50000000  0.00000000       0.125
   0.00000000  0.50000000  0.50000000       0.250
   0.50000000  0.50000000  0.50000000       0.125

 position of ions in fractional coordinates (direct lattice) 
   0.00000000  0.00000000  0.01842915
   0.00000000  0.00000000  0.98157085

 position of ions in cartesian coordinates  (Angst):
   0.00000000  0.00000000  0.36858300
   0.00000000  0.00000000 19.63141700



--------------------------------------------------------------------------------------------------------


 k-point     1 :   0.0000 0.0000 0.0000  plane waves:  755285
 k-point     2 :   0.5000 0.0000 0.0000  plane waves:  755176
 k-point     3 :   0.0000 0.0000 0.5000  plane waves:  755176
 k-point     4 :   0.5000 0.5000 0.0000  plane waves:  754984
 k-point     5 :   0.0000 0.5000 0.5000  plane waves:  754984
 k-point     6 :   0.5000 0.5000 0.5000  plane waves:  754728

 maximum and minimum number of plane-waves per node :     47283    47124

 maximum number of plane-waves:    755285
 maximum index in each direction: 
   IXMAX=   56   IYMAX=   56   IZMAX=   56
   IXMIN=  -56   IYMIN=  -56   IZMIN=  -56


 parallel 3D FFT for wavefunctions:
    minimum data exchange during FFTs selected (reduces bandwidth)
 parallel 3D FFT for charge:
    minimum data exchange during FFTs selected (reduces bandwidth)


 total amount of memory used by VASP MPI-rank0   496049. kBytes
=======================================================================

   base                                    :      30000. kBytes
   nonl-proj                               :      12851. kBytes
   fftplans                                :     278333. kBytes
   grid                                    :     165791. kBytes
   one-center                              :          1. kBytes
   wavefun                                 :       9073. kBytes

     INWAV:  cpu time      2.5849: real time      2.5856
 Broyden mixing: mesh for mixing (old mesh)
   NGX =113   NGY =113   NGZ =113
  (NGX  =480   NGY  =480   NGZ  =480)
  gives a total of ****** points

 initial charge density was supplied:
 number of electron       2.0000000 magnetization 
 keeping initial charge density in first step


--------------------------------------------------------------------------------------------------------


 Maximum index for augmentation-charges         1952 (set IRDMAX)


--------------------------------------------------------------------------------------------------------


 First call to EWALD:  gamma=   0.089
 Maximum number of real-space cells   3x   3x   3
 Maximum number of reciprocal cells   3x   3x   3

    FEWALD:  cpu time      0.0022: real time      0.0023


--------------------------------------- Ionic step        1  -------------------------------------------




--------------------------------------- Iteration      1(   1)  ---------------------------------------


    POTLOK:  cpu time      5.8905: real time      5.9364
    SETDIJ:  cpu time      1.5254: real time      1.5264
    EDDIAG:  cpu time      6.0071: real time      6.0102
     EDDAV:  cpu time     35.3943: real time     35.4133
       DOS:  cpu time      0.0023: real time      0.0025
    CHARGE:  cpu time     36.2078: real time     36.3642
    MIXING:  cpu time      0.1333: real time      0.1336
    --------------------------------------------
      LOOP:  cpu time     85.1608: real time     85.3866

 eigenvalue-minimisations  :   192
 total energy-change (2. order) :-0.1390082E+04  (-0.1382928E+04)
 number of electron       2.0000000 magnetization 
 augmentation part        0.0000329 magnetization 

 Broyden mixing:
  rms(total) = 0.10906E+01    rms(broyden)= 0.67759E+01
  rms(prec ) = 0.13547E+01
  weight for this iteration     100.00
  WARNING: grid for Broyden might be to small

 Free energy of the ion-electron system (eV)
  ---------------------------------------------------
  alpha Z        PSCENC =         0.00121808
  Ewald energy   TEWEN  =        15.45038639
  -Hartree energ DENC   =       -31.68573374
  -exchange      EXHF   =         0.00000000
  -V(xc)+E(xc)   XCENC  =         6.24168084
  PAW double counting   =        23.22093950      -23.25214991
  entropy T*S    EENTRO =        -0.00000000
  eigenvalues    EBANDS =     -1405.03507831
  atomic energy  EATOM  =        24.97672418
  Solvation  Ediel_sol  =         0.00000000
  ---------------------------------------------------
  free energy    TOTEN  =     -1390.08201296 eV

  energy without entropy =    -1390.08201296  energy(sigma->0) =    -1390.08201296


--------------------------------------------------------------------------------------------------------




--------------------------------------- Iteration      1(   2)  ---------------------------------------


    POTLOK:  cpu time      6.0122: real time      6.0278
    SETDIJ:  cpu time      1.5382: real time      1.5387
    EDDIAG:  cpu time      6.0066: real time      6.0105
     EDDAV:  cpu time     23.3012: real time     23.3151
       DOS:  cpu time      0.0021: real time      0.0021
    CHARGE:  cpu time     36.5317: real time     36.7322
    MIXING:  cpu time      0.1382: real time      0.1387
    --------------------------------------------
      LOOP:  cpu time     73.5302: real time     73.7650

 eigenvalue-minimisations  :    96
 total energy-change (2. order) : 0.1419979E+04  (-0.1685860E+03)
 number of electron       2.0000000 magnetization 
 augmentation part        0.0003112 magnetization 

 Broyden mixing:
  rms(total) = 0.71392E+00    rms(broyden)= 0.10672E+02
  rms(prec ) = 0.92315E+00
  weight for this iteration     100.00
  WARNING: grid for Broyden might be to small

 eigenvalues of (default mixing * dielectric matrix)
  average eigenvalue GAMMA=   0.3860
  0.3860

 Free energy of the ion-electron system (eV)
  ---------------------------------------------------
  alpha Z        PSCENC =         0.00121808
  Ewald energy   TEWEN  =        15.45038639
  -Hartree energ DENC   =       -19.23326119
  -exchange      EXHF   =         0.00000000
  -V(xc)+E(xc)   XCENC  =         4.51326914
  PAW double counting   =         6.90279800       -6.90770517
  entropy T*S    EENTRO =        -0.03144143
  eigenvalues    EBANDS =         4.22458219
  atomic energy  EATOM  =        24.97672418
  Solvation  Ediel_sol  =         0.00000000
  ---------------------------------------------------
  free energy    TOTEN  =        29.89657019 eV

  energy without entropy =       29.92801162  energy(sigma->0) =       29.91229091


--------------------------------------------------------------------------------------------------------




--------------------------------------- Iteration      1(   3)  ---------------------------------------


    POTLOK:  cpu time      6.0056: real time      6.0084
    SETDIJ:  cpu time      1.5409: real time      1.5416
    EDDIAG:  cpu time      6.0131: real time      6.0164
     EDDAV:  cpu time     29.3525: real time     29.3679
       DOS:  cpu time      0.0005: real time      0.0005
    CHARGE:  cpu time     38.0826: real time     38.2991
    MIXING:  cpu time      0.1352: real time      0.1352
    --------------------------------------------
      LOOP:  cpu time     81.1304: real time     81.3692

 eigenvalue-minimisations  :   144
 total energy-change (2. order) :-0.3626275E+02  (-0.3092571E+02)
 number of electron       2.0000000 magnetization 
 augmentation part        0.0185837 magnetization 

 Broyden mixing:
  rms(total) = 0.64462E+00    rms(broyden)= 0.28690E+02
  rms(prec ) = 0.81207E+00
  weight for this iteration     100.00
  WARNING: grid for Broyden might be to small

 eigenvalues of (default mixing * dielectric matrix)
  average eigenvalue GAMMA=   0.3238
  0.3238  0.3238

 Free energy of the ion-electron system (eV)
  ---------------------------------------------------
  alpha Z        PSCENC =         0.00121808
  Ewald energy   TEWEN  =        15.45038639
  -Hartree energ DENC   =        -6.96270349
  -exchange      EXHF   =         0.00000000
  -V(xc)+E(xc)   XCENC  =         2.11523207
  PAW double counting   =        -0.16579973        0.16687152
  entropy T*S    EENTRO =        -0.00000000
  eigenvalues    EBANDS =       -41.94810955
  atomic energy  EATOM  =        24.97672418
  Solvation  Ediel_sol  =         0.00000000
  ---------------------------------------------------
  free energy    TOTEN  =        -6.36618052 eV

  energy without entropy =       -6.36618052  energy(sigma->0) =       -6.36618052


--------------------------------------------------------------------------------------------------------




--------------------------------------- Iteration      1(   4)  ---------------------------------------


    POTLOK:  cpu time      5.9939: real time      5.9971
    SETDIJ:  cpu time      1.5393: real time      1.5399
    EDDIAG:  cpu time      6.0109: real time      6.0141
     EDDAV:  cpu time     23.3171: real time     23.3295
       DOS:  cpu time      0.0005: real time      0.0005
    CHARGE:  cpu time     37.8426: real time     38.0672
    MIXING:  cpu time      0.1360: real time      0.1360
    --------------------------------------------
      LOOP:  cpu time     74.8402: real time     75.0842

 eigenvalue-minimisations  :    96
 total energy-change (2. order) :-0.6114847E+01  (-0.8459694E+01)
 number of electron       2.0000000 magnetization 
 augmentation part        0.0494146 magnetization 

 Broyden mixing:
  rms(total) = 0.89626E+00    rms(broyden)= 0.65299E+01
  rms(prec ) = 0.10175E+01
  weight for this iteration     100.00
  WARNING: grid for Broyden might be to small

 eigenvalues of (default mixing * dielectric matrix)
  average eigenvalue GAMMA=   0.3805
  0.5014  0.5014  0.1387

 Free energy of the ion-electron system (eV)
  ---------------------------------------------------
  alpha Z        PSCENC =         0.00121808
  Ewald energy   TEWEN  =        15.45038639
  -Hartree energ DENC   =       -10.07066471
  -exchange      EXHF   =         0.00000000
  -V(xc)+E(xc)   XCENC  =         2.69546891
  PAW double counting   =         1.40182681       -1.39732928
  entropy T*S    EENTRO =        -0.00000000
  eigenvalues    EBANDS =       -45.53865791
  atomic energy  EATOM  =        24.97672418
  Solvation  Ediel_sol  =         0.00000000
  ---------------------------------------------------
  free energy    TOTEN  =       -12.48102753 eV

  energy without entropy =      -12.48102753  energy(sigma->0) =      -12.48102753


--------------------------------------------------------------------------------------------------------




--------------------------------------- Iteration      1(   5)  ---------------------------------------


    POTLOK:  cpu time      5.9883: real time      5.9914
    SETDIJ:  cpu time      1.5447: real time      1.5456
    EDDIAG:  cpu time      6.0117: real time      6.0152
     EDDAV:  cpu time     33.3945: real time     33.4144
       DOS:  cpu time      0.0007: real time      0.0007
    CHARGE:  cpu time     37.6567: real time     37.8881
    MIXING:  cpu time      0.1367: real time      0.1367
    --------------------------------------------
      LOOP:  cpu time     84.7334: real time     84.9922

 eigenvalue-minimisations  :   176
 total energy-change (2. order) : 0.2123108E+01  (-0.3116576E+00)
 number of electron       2.0000000 magnetization 
 augmentation part        0.0538480 magnetization 

 Broyden mixing:
  rms(total) = 0.77327E+00    rms(broyden)= 0.53738E+01
  rms(prec ) = 0.87250E+00
  weight for this iteration     100.00
  WARNING: grid for Broyden might be to small

 eigenvalues of (default mixing * dielectric matrix)
  average eigenvalue GAMMA=   0.5541
  0.6186  0.6186  0.4896  0.4896

 Free energy of the ion-electron system (eV)
  ---------------------------------------------------
  alpha Z        PSCENC =         0.00121808
  Ewald energy   TEWEN  =        15.45038639
  -Hartree energ DENC   =       -12.94585958
  -exchange      EXHF   =         0.00000000
  -V(xc)+E(xc)   XCENC  =         3.22626757
  PAW double counting   =         4.13227967       -4.12898776
  entropy T*S    EENTRO =        -0.00000000
  eigenvalues    EBANDS =       -41.06994823
  atomic energy  EATOM  =        24.97672418
  Solvation  Ediel_sol  =         0.00000000
  ---------------------------------------------------
  free energy    TOTEN  =       -10.35791968 eV

  energy without entropy =      -10.35791968  energy(sigma->0) =      -10.35791968


--------------------------------------------------------------------------------------------------------




--------------------------------------- Iteration      1(   6)  ---------------------------------------


    POTLOK:  cpu time      5.9999: real time      6.0022
    SETDIJ:  cpu time      1.5448: real time      1.5452
    EDDIAG:  cpu time      6.0141: real time      6.0164
     EDDAV:  cpu time     29.3678: real time     29.3798
       DOS:  cpu time      0.0009: real time      0.0009
    CHARGE:  cpu time     37.3921: real time     37.6395
    MIXING:  cpu time      0.1397: real time      0.1397
    --------------------------------------------
      LOOP:  cpu time     80.4593: real time     80.7237

 eigenvalue-minimisations  :   144
 total energy-change (2. order) : 0.1617786E+01  (-0.1788616E-01)
 number of electron       2.0000000 magnetization 
 augmentation part        0.0522300 magnetization 

 Broyden mixing:
  rms(total) = 0.55547E+00    rms(broyden)= 0.49035E+01
  rms(prec ) = 0.63347E+00
  weight for this iteration     100.00
  WARNING: grid for Broyden might be to small

 eigenvalues of (default mixing * dielectric matrix)
  average eigenvalue GAMMA=   0.9241
  1.4538  1.4538  0.6085  0.6085  0.4959

 Free energy of the ion-electron system (eV)
  ---------------------------------------------------
  alpha Z        PSCENC =         0.00121808
  Ewald energy   TEWEN  =        15.45038639
  -Hartree energ DENC   =       -16.74026766
  -exchange      EXHF   =         0.00000000
  -V(xc)+E(xc)   XCENC  =         3.98026344
  PAW double counting   =         7.00541573       -7.01022078
  entropy T*S    EENTRO =        -0.00000000
  eigenvalues    EBANDS =       -36.40365346
  atomic energy  EATOM  =        24.97672418
  Solvation  Ediel_sol  =         0.00000000
  ---------------------------------------------------
  free energy    TOTEN  =        -8.74013407 eV

  energy without entropy =       -8.74013407  energy(sigma->0) =       -8.74013407


--------------------------------------------------------------------------------------------------------




--------------------------------------- Iteration      1(   7)  ---------------------------------------


    POTLOK:  cpu time      6.0322: real time      6.0351
    SETDIJ:  cpu time      1.5326: real time      1.5332
    EDDIAG:  cpu time      6.0131: real time      6.0167
     EDDAV:  cpu time     27.3433: real time     27.3611
       DOS:  cpu time      0.0052: real time      0.0052
    CHARGE:  cpu time     37.8935: real time     38.0570
    MIXING:  cpu time      0.1400: real time      0.1457
    --------------------------------------------
      LOOP:  cpu time     78.9599: real time     79.1540

 eigenvalue-minimisations  :   128
 total energy-change (2. order) : 0.1949114E+01  (-0.2399123E+00)
 number of electron       2.0000000 magnetization 
 augmentation part        0.0447319 magnetization 

 Broyden mixing:
  rms(total) = 0.10816E+00    rms(broyden)= 0.14783E+01
  rms(prec ) = 0.12901E+00
  weight for this iteration     100.00
  WARNING: grid for Broyden might be to small

 eigenvalues of (default mixing * dielectric matrix)
  average eigenvalue GAMMA=   1.0171
  1.7071  1.7071  0.7958  0.7958  0.5484  0.5484

 Free energy of the ion-electron system (eV)
  ---------------------------------------------------
  alpha Z        PSCENC =         0.00121808
  Ewald energy   TEWEN  =        15.45038639
  -Hartree energ DENC   =       -28.10947606
  -exchange      EXHF   =         0.00000000
  -V(xc)+E(xc)   XCENC  =         5.93975106
  PAW double counting   =        19.06074138      -19.09302654
  entropy T*S    EENTRO =        -0.00000000
  eigenvalues    EBANDS =       -25.01733891
  atomic energy  EATOM  =        24.97672418
  Solvation  Ediel_sol  =         0.00000000
  ---------------------------------------------------
  free energy    TOTEN  =        -6.79102042 eV

  energy without entropy =       -6.79102042  energy(sigma->0) =       -6.79102042


--------------------------------------------------------------------------------------------------------




--------------------------------------- Iteration      1(   8)  ---------------------------------------


    POTLOK:  cpu time      6.0294: real time      6.0330
    SETDIJ:  cpu time      1.5468: real time      1.5475
    EDDIAG:  cpu time      6.0158: real time      6.0199
     EDDAV:  cpu time     32.4028: real time     32.4210
       DOS:  cpu time      0.0032: real time      0.0032
    CHARGE:  cpu time     37.6022: real time     37.8080
    MIXING:  cpu time      0.1460: real time      0.1460
    --------------------------------------------
      LOOP:  cpu time     83.7464: real time     83.9787

 eigenvalue-minimisations  :   168
 total energy-change (2. order) :-0.5510952E-01  (-0.1899717E-02)
 number of electron       2.0000000 magnetization 
 augmentation part        0.0444187 magnetization 

 Broyden mixing:
  rms(total) = 0.92335E-01    rms(broyden)= 0.11715E+01
  rms(prec ) = 0.11228E+00
  weight for this iteration     100.00
  WARNING: grid for Broyden might be to small

 eigenvalues of (default mixing * dielectric matrix)
  average eigenvalue GAMMA=   0.9961
  1.6325  1.6325  1.0236  1.0236  0.5714  0.5714  0.5181

 Free energy of the ion-electron system (eV)
  ---------------------------------------------------
  alpha Z        PSCENC =         0.00121808
  Ewald energy   TEWEN  =        15.45038639
  -Hartree energ DENC   =       -28.45373073
  -exchange      EXHF   =         0.00000000
  -V(xc)+E(xc)   XCENC  =         5.94713902
  PAW double counting   =        20.04314454      -20.07696198
  entropy T*S    EENTRO =        -0.00000000
  eigenvalues    EBANDS =       -24.73404944
  atomic energy  EATOM  =        24.97672418
  Solvation  Ediel_sol  =         0.00000000
  ---------------------------------------------------
  free energy    TOTEN  =        -6.84612994 eV

  energy without entropy =       -6.84612994  energy(sigma->0) =       -6.84612994


--------------------------------------------------------------------------------------------------------




--------------------------------------- Iteration      1(   9)  ---------------------------------------


    POTLOK:  cpu time      6.0204: real time      6.0238
    SETDIJ:  cpu time      1.5368: real time      1.5376
    EDDIAG:  cpu time      6.0145: real time      6.0182
     EDDAV:  cpu time     25.3334: real time     25.3500
       DOS:  cpu time      0.0030: real time      0.0030
    CHARGE:  cpu time     37.2244: real time     37.3716
    MIXING:  cpu time      0.1475: real time      0.1475
    --------------------------------------------
      LOOP:  cpu time     76.2804: real time     76.4606

 eigenvalue-minimisations  :   112
 total energy-change (2. order) :-0.7868695E-01  (-0.8062036E-03)
 number of electron       2.0000000 magnetization 
 augmentation part        0.0445999 magnetization 

 Broyden mixing:
  rms(total) = 0.78952E-01    rms(broyden)= 0.75098E+00
  rms(prec ) = 0.10288E+00
  weight for this iteration     100.00
  WARNING: grid for Broyden might be to small

 eigenvalues of (default mixing * dielectric matrix)
  average eigenvalue GAMMA=   1.0330
  1.5137  1.5137  1.3559  1.3559  0.7011  0.7011  0.5615  0.5615

 Free energy of the ion-electron system (eV)
  ---------------------------------------------------
  alpha Z        PSCENC =         0.00121808
  Ewald energy   TEWEN  =        15.45038639
  -Hartree energ DENC   =       -28.03632382
  -exchange      EXHF   =         0.00000000
  -V(xc)+E(xc)   XCENC  =         5.84425331
  PAW double counting   =        20.62983548      -20.65382344
  entropy T*S    EENTRO =        -0.00000000
  eigenvalues    EBANDS =       -25.13708707
  atomic energy  EATOM  =        24.97672418
  Solvation  Ediel_sol  =         0.00000000
  ---------------------------------------------------
  free energy    TOTEN  =        -6.92481689 eV

  energy without entropy =       -6.92481689  energy(sigma->0) =       -6.92481689


--------------------------------------------------------------------------------------------------------




--------------------------------------- Iteration      1(  10)  ---------------------------------------


    POTLOK:  cpu time      6.0121: real time      6.0362
    SETDIJ:  cpu time      1.5487: real time      1.5497
    EDDIAG:  cpu time      6.0126: real time      6.0165
     EDDAV:  cpu time     26.3395: real time     26.3554
       DOS:  cpu time      0.0030: real time      0.0030
    CHARGE:  cpu time     36.8386: real time     36.9828
    MIXING:  cpu time      0.1541: real time      0.1541
    --------------------------------------------
      LOOP:  cpu time     76.9081: real time     77.0887

 eigenvalue-minimisations  :   120
 total energy-change (2. order) :-0.3563789E-01  (-0.3694069E-03)
 number of electron       2.0000000 magnetization 
 augmentation part        0.0443479 magnetization 

 Broyden mixing:
  rms(total) = 0.81683E-01    rms(broyden)= 0.61331E+00
  rms(prec ) = 0.10077E+00
  weight for this iteration     100.00
  WARNING: grid for Broyden might be to small

 eigenvalues of (default mixing * dielectric matrix)
  average eigenvalue GAMMA=   1.1000
  1.5141  1.5141  1.6255  1.6255  0.9072  0.9072  0.6190  0.6190  0.5689

 Free energy of the ion-electron system (eV)
  ---------------------------------------------------
  alpha Z        PSCENC =         0.00121808
  Ewald energy   TEWEN  =        15.45038639
  -Hartree energ DENC   =       -28.35466704
  -exchange      EXHF   =         0.00000000
  -V(xc)+E(xc)   XCENC  =         5.84091542
  PAW double counting   =        21.59662370      -21.62516863
  entropy T*S    EENTRO =        -0.00000000
  eigenvalues    EBANDS =       -24.84648688
  atomic energy  EATOM  =        24.97672418
  Solvation  Ediel_sol  =         0.00000000
  ---------------------------------------------------
  free energy    TOTEN  =        -6.96045478 eV

  energy without entropy =       -6.96045478  energy(sigma->0) =       -6.96045478


--------------------------------------------------------------------------------------------------------




--------------------------------------- Iteration      1(  11)  ---------------------------------------


    POTLOK:  cpu time      6.0232: real time      6.0255
    SETDIJ:  cpu time      1.5401: real time      1.5410
    EDDIAG:  cpu time      6.0131: real time      6.0159
     EDDAV:  cpu time     28.3596: real time     28.3747
       DOS:  cpu time      0.0050: real time      0.0050
    CHARGE:  cpu time     36.6904: real time     36.8998
    MIXING:  cpu time      0.1595: real time      0.1595
    --------------------------------------------
      LOOP:  cpu time     78.7911: real time     79.0215

 eigenvalue-minimisations  :   136
 total energy-change (2. order) : 0.7093738E-02  (-0.9383547E-03)
 number of electron       2.0000000 magnetization 
 augmentation part        0.0440215 magnetization 

 Broyden mixing:
  rms(total) = 0.66339E-01    rms(broyden)= 0.48940E+00
  rms(prec ) = 0.82775E-01
  weight for this iteration     100.00
  WARNING: grid for Broyden might be to small

 eigenvalues of (default mixing * dielectric matrix)
  average eigenvalue GAMMA=   1.1202
  1.5289  1.5289  1.7398  1.7398  1.0458  1.0458  0.6970  0.6970  0.5896  0.5896

 Free energy of the ion-electron system (eV)
  ---------------------------------------------------
  alpha Z        PSCENC =         0.00121808
  Ewald energy   TEWEN  =        15.45038639
  -Hartree energ DENC   =       -28.87808307
  -exchange      EXHF   =         0.00000000
  -V(xc)+E(xc)   XCENC  =         5.90705541
  PAW double counting   =        21.79731977      -21.82626060
  entropy T*S    EENTRO =        -0.00000000
  eigenvalues    EBANDS =       -24.38172121
  atomic energy  EATOM  =        24.97672418
  Solvation  Ediel_sol  =         0.00000000
  ---------------------------------------------------
  free energy    TOTEN  =        -6.95336104 eV

  energy without entropy =       -6.95336104  energy(sigma->0) =       -6.95336104


--------------------------------------------------------------------------------------------------------




--------------------------------------- Iteration      1(  12)  ---------------------------------------


    POTLOK:  cpu time      6.0272: real time      6.0729
    SETDIJ:  cpu time      1.5401: real time      1.5411
    EDDIAG:  cpu time      6.0150: real time      6.0185
     EDDAV:  cpu time     24.3176: real time     24.3328
       DOS:  cpu time      0.0010: real time      0.0010
    CHARGE:  cpu time     37.2522: real time     37.4541
    MIXING:  cpu time      0.1716: real time      0.1716
    --------------------------------------------
      LOOP:  cpu time     75.3248: real time     75.5920

 eigenvalue-minimisations  :   104
 total energy-change (2. order) : 0.5009915E-02  (-0.1108579E-02)
 number of electron       2.0000000 magnetization 
 augmentation part        0.0437143 magnetization 

 Broyden mixing:
  rms(total) = 0.50393E-01    rms(broyden)= 0.40633E+00
  rms(prec ) = 0.64843E-01
  weight for this iteration     100.00
  WARNING: grid for Broyden might be to small

 eigenvalues of (default mixing * dielectric matrix)
  average eigenvalue GAMMA=   1.1465
  1.5326  1.5326  1.7578  1.7578  1.4009  1.0160  1.0160  0.6929  0.6929  0.6058
  0.6058

 Free energy of the ion-electron system (eV)
  ---------------------------------------------------
  alpha Z        PSCENC =         0.00121808
  Ewald energy   TEWEN  =        15.45038639
  -Hartree energ DENC   =       -29.35707941
  -exchange      EXHF   =         0.00000000
  -V(xc)+E(xc)   XCENC  =         5.97349633
  PAW double counting   =        21.60844509      -21.63815587
  entropy T*S    EENTRO =        -0.00000000
  eigenvalues    EBANDS =       -23.96338593
  atomic energy  EATOM  =        24.97672418
  Solvation  Ediel_sol  =         0.00000000
  ---------------------------------------------------
  free energy    TOTEN  =        -6.94835113 eV

  energy without entropy =       -6.94835113  energy(sigma->0) =       -6.94835113


--------------------------------------------------------------------------------------------------------




--------------------------------------- Iteration      1(  13)  ---------------------------------------


    POTLOK:  cpu time      6.0525: real time      6.0558
    SETDIJ:  cpu time      1.5327: real time      1.5336
    EDDIAG:  cpu time      6.0101: real time      6.0134
     EDDAV:  cpu time     26.3304: real time     26.3481
       DOS:  cpu time      0.0022: real time      0.0022
    CHARGE:  cpu time     37.0030: real time     37.2291
    MIXING:  cpu time      0.1868: real time      0.1868
    --------------------------------------------
      LOOP:  cpu time     77.1178: real time     77.3691

 eigenvalue-minimisations  :   120
 total energy-change (2. order) :-0.1107265E-02  (-0.7158426E-03)
 number of electron       2.0000000 magnetization 
 augmentation part        0.0434549 magnetization 

 Broyden mixing:
  rms(total) = 0.42092E-01    rms(broyden)= 0.34301E+00
  rms(prec ) = 0.53857E-01
  weight for this iteration     100.00
  WARNING: grid for Broyden might be to small

 eigenvalues of (default mixing * dielectric matrix)
  average eigenvalue GAMMA=   1.2241
  1.5315  1.5315  1.9161  1.9161  1.7345  1.7345  0.8898  0.8898  0.6736  0.6736
  0.5989  0.5989

 Free energy of the ion-electron system (eV)
  ---------------------------------------------------
  alpha Z        PSCENC =         0.00121808
  Ewald energy   TEWEN  =        15.45038639
  -Hartree energ DENC   =       -29.74607995
  -exchange      EXHF   =         0.00000000
  -V(xc)+E(xc)   XCENC  =         6.01353955
  PAW double counting   =        21.81505454      -21.84475309
  entropy T*S    EENTRO =        -0.00000000
  eigenvalues    EBANDS =       -23.61554810
  atomic energy  EATOM  =        24.97672418
  Solvation  Ediel_sol  =         0.00000000
  ---------------------------------------------------
  free energy    TOTEN  =        -6.94945839 eV

  energy without entropy =       -6.94945839  energy(sigma->0) =       -6.94945839


--------------------------------------------------------------------------------------------------------




--------------------------------------- Iteration      1(  14)  ---------------------------------------


    POTLOK:  cpu time      6.0406: real time      6.0563
    SETDIJ:  cpu time      1.5345: real time      1.5357
    EDDIAG:  cpu time      6.0114: real time      6.0148
     EDDAV:  cpu time     28.3663: real time     28.3835
       DOS:  cpu time      0.0023: real time      0.0023
    CHARGE:  cpu time     36.9636: real time     37.1470
    MIXING:  cpu time      0.2099: real time      0.2104
    --------------------------------------------
      LOOP:  cpu time     79.1287: real time     79.3499

 eigenvalue-minimisations  :   136
 total energy-change (2. order) : 0.1390550E-01  (-0.1172052E-03)
 number of electron       2.0000000 magnetization 
 augmentation part        0.0433396 magnetization 

 Broyden mixing:
  rms(total) = 0.36437E-01    rms(broyden)= 0.30001E+00
  rms(prec ) = 0.46507E-01
  weight for this iteration     100.00
  WARNING: grid for Broyden might be to small

 eigenvalues of (default mixing * dielectric matrix)
  average eigenvalue GAMMA=   1.2435
  2.6776  1.5312  1.5312  1.7704  1.7704  1.6183  0.9597  0.9597  0.7434  0.7434
  0.5993  0.6306  0.6306

 Free energy of the ion-electron system (eV)
  ---------------------------------------------------
  alpha Z        PSCENC =         0.00121808
  Ewald energy   TEWEN  =        15.45038639
  -Hartree energ DENC   =       -30.03650298
  -exchange      EXHF   =         0.00000000
  -V(xc)+E(xc)   XCENC  =         6.03745346
  PAW double counting   =        22.08258509      -22.11248110
  entropy T*S    EENTRO =        -0.00000000
  eigenvalues    EBANDS =       -23.33493601
  atomic energy  EATOM  =        24.97672418
  Solvation  Ediel_sol  =         0.00000000
  ---------------------------------------------------
  free energy    TOTEN  =        -6.93555289 eV

  energy without entropy =       -6.93555289  energy(sigma->0) =       -6.93555289


--------------------------------------------------------------------------------------------------------




--------------------------------------- Iteration      1(  15)  ---------------------------------------


    POTLOK:  cpu time      6.0370: real time      6.0400
    SETDIJ:  cpu time      1.5439: real time      1.5445
    EDDIAG:  cpu time      6.0132: real time      6.0163
     EDDAV:  cpu time     26.3490: real time     26.3657
       DOS:  cpu time      0.0023: real time      0.0023
    CHARGE:  cpu time     36.7896: real time     37.0296
    MIXING:  cpu time      0.2252: real time      0.2252
    --------------------------------------------
      LOOP:  cpu time     76.9601: real time     77.2236

 eigenvalue-minimisations  :   120
 total energy-change (2. order) : 0.6203913E-02  (-0.6721798E-05)
 number of electron       2.0000000 magnetization 
 augmentation part        0.0433071 magnetization 

 Broyden mixing:
  rms(total) = 0.34236E-01    rms(broyden)= 0.28566E+00
  rms(prec ) = 0.43795E-01
  weight for this iteration     100.00
  WARNING: grid for Broyden might be to small

 eigenvalues of (default mixing * dielectric matrix)
  average eigenvalue GAMMA=   1.3205
  3.2806  1.5313  1.5313  2.2306  1.7418  1.7418  1.1120  1.1120  0.8282  0.8282
  0.6649  0.6649  0.6101  0.6101

 Free energy of the ion-electron system (eV)
  ---------------------------------------------------
  alpha Z        PSCENC =         0.00121808
  Ewald energy   TEWEN  =        15.45038639
  -Hartree energ DENC   =       -30.14293607
  -exchange      EXHF   =         0.00000000
  -V(xc)+E(xc)   XCENC  =         6.04593282
  PAW double counting   =        22.22480134      -22.25487989
  entropy T*S    EENTRO =        -0.00000000
  eigenvalues    EBANDS =       -23.23059583
  atomic energy  EATOM  =        24.97672418
  Solvation  Ediel_sol  =         0.00000000
  ---------------------------------------------------
  free energy    TOTEN  =        -6.92934898 eV

  energy without entropy =       -6.92934898  energy(sigma->0) =       -6.92934898


--------------------------------------------------------------------------------------------------------




--------------------------------------- Iteration      1(  16)  ---------------------------------------


    POTLOK:  cpu time      6.0155: real time      6.0318
    SETDIJ:  cpu time      1.5351: real time      1.5357
    EDDIAG:  cpu time      6.0085: real time      6.0118
     EDDAV:  cpu time     30.3674: real time     30.3859
       DOS:  cpu time      0.0009: real time      0.0009
    CHARGE:  cpu time     36.8466: real time     37.0797
    MIXING:  cpu time      0.2395: real time      0.2396
    --------------------------------------------
      LOOP:  cpu time     81.0135: real time     81.2853

 eigenvalue-minimisations  :   152
 total energy-change (2. order) : 0.1049608E-01  (-0.1817925E-03)
 number of electron       2.0000000 magnetization 
 augmentation part        0.0431396 magnetization 

 Broyden mixing:
  rms(total) = 0.25056E-01    rms(broyden)= 0.21846E+00
  rms(prec ) = 0.32546E-01
  weight for this iteration     100.00
  WARNING: grid for Broyden might be to small

 eigenvalues of (default mixing * dielectric matrix)
  average eigenvalue GAMMA=   1.3966
  3.4810  3.4810  1.5312  1.5312  1.7551  1.7551  1.2071  1.2071  0.8791  0.8791
  0.6973  0.6973  0.6027  0.6222  0.6222

 Free energy of the ion-electron system (eV)
  ---------------------------------------------------
  alpha Z        PSCENC =         0.00121808
  Ewald energy   TEWEN  =        15.45038639
  -Hartree energ DENC   =       -30.55968809
  -exchange      EXHF   =         0.00000000
  -V(xc)+E(xc)   XCENC  =         6.08754686
  PAW double counting   =        22.70267047      -22.73321059
  entropy T*S    EENTRO =        -0.00000000
  eigenvalues    EBANDS =       -22.84450021
  atomic energy  EATOM  =        24.97672418
  Solvation  Ediel_sol  =         0.00000000
  ---------------------------------------------------
  free energy    TOTEN  =        -6.91885290 eV

  energy without entropy =       -6.91885290  energy(sigma->0) =       -6.91885290


--------------------------------------------------------------------------------------------------------




--------------------------------------- Iteration      1(  17)  ---------------------------------------


    POTLOK:  cpu time      6.0205: real time      6.0242
    SETDIJ:  cpu time      1.5263: real time      1.5275
    EDDIAG:  cpu time      6.0097: real time      6.0133
     EDDAV:  cpu time     28.3540: real time     28.3730
       DOS:  cpu time      0.0028: real time      0.0028
    CHARGE:  cpu time     37.4207: real time     37.6335
    MIXING:  cpu time      0.2533: real time      0.2533
    --------------------------------------------
      LOOP:  cpu time     79.5874: real time     79.8275

 eigenvalue-minimisations  :   136
 total energy-change (2. order) : 0.3732716E-02  (-0.2140906E-03)
 number of electron       2.0000000 magnetization 
 augmentation part        0.0429864 magnetization 

 Broyden mixing:
  rms(total) = 0.18501E-01    rms(broyden)= 0.14894E+00
  rms(prec ) = 0.23758E-01
  weight for this iteration     100.00
  WARNING: grid for Broyden might be to small

 eigenvalues of (default mixing * dielectric matrix)
  average eigenvalue GAMMA=   1.4591
  4.0748  4.0748  1.5312  1.5312  1.7703  1.7703  1.3425  1.3425  0.9446  0.9446
  0.7535  0.7535  0.6486  0.6486  0.6073  0.6073

 Free energy of the ion-electron system (eV)
  ---------------------------------------------------
  alpha Z        PSCENC =         0.00121808
  Ewald energy   TEWEN  =        15.45038639
  -Hartree energ DENC   =       -30.91535008
  -exchange      EXHF   =         0.00000000
  -V(xc)+E(xc)   XCENC  =         6.12017280
  PAW double counting   =        22.98573947      -23.01635036
  entropy T*S    EENTRO =        -0.00000000
  eigenvalues    EBANDS =       -22.51766067
  atomic energy  EATOM  =        24.97672418
  Solvation  Ediel_sol  =         0.00000000
  ---------------------------------------------------
  free energy    TOTEN  =        -6.91512018 eV

  energy without entropy =       -6.91512018  energy(sigma->0) =       -6.91512018


--------------------------------------------------------------------------------------------------------




--------------------------------------- Iteration      1(  18)  ---------------------------------------


    POTLOK:  cpu time      6.0131: real time      6.0277
    SETDIJ:  cpu time      1.5364: real time      1.5374
    EDDIAG:  cpu time      6.0141: real time      6.0180
     EDDAV:  cpu time     30.3759: real time     30.3940
       DOS:  cpu time      0.0030: real time      0.0030
    CHARGE:  cpu time     37.0426: real time     37.2861
    MIXING:  cpu time      0.2676: real time      0.2680
    --------------------------------------------
      LOOP:  cpu time     81.2527: real time     81.5342

 eigenvalue-minimisations  :   152
 total energy-change (2. order) : 0.1156444E-02  (-0.6721530E-04)
 number of electron       2.0000000 magnetization 
 augmentation part        0.0429045 magnetization 

 Broyden mixing:
  rms(total) = 0.15067E-01    rms(broyden)= 0.12063E+00
  rms(prec ) = 0.19197E-01
  weight for this iteration     100.00
  WARNING: grid for Broyden might be to small

 eigenvalues of (default mixing * dielectric matrix)
  average eigenvalue GAMMA=   1.5367
  4.6551  4.6551  1.5312  1.5312  1.7795  1.7795  1.6615  1.6615  1.0304  1.0304
  0.8115  0.8115  0.6766  0.6766  0.6157  0.6157  0.6002

 Free energy of the ion-electron system (eV)
  ---------------------------------------------------
  alpha Z        PSCENC =         0.00121808
  Ewald energy   TEWEN  =        15.45038639
  -Hartree energ DENC   =       -31.09816629
  -exchange      EXHF   =         0.00000000
  -V(xc)+E(xc)   XCENC  =         6.13717238
  PAW double counting   =        23.08946686      -23.12021924
  entropy T*S    EENTRO =        -0.00000000
  eigenvalues    EBANDS =       -22.35054611
  atomic energy  EATOM  =        24.97672418
  Solvation  Ediel_sol  =         0.00000000
  ---------------------------------------------------
  free energy    TOTEN  =        -6.91396374 eV

  energy without entropy =       -6.91396374  energy(sigma->0) =       -6.91396374


--------------------------------------------------------------------------------------------------------




--------------------------------------- Iteration      1(  19)  ---------------------------------------


    POTLOK:  cpu time      6.0261: real time      6.0295
    SETDIJ:  cpu time      1.5334: real time      1.5340
    EDDIAG:  cpu time      6.0098: real time      6.0134
     EDDAV:  cpu time     26.3516: real time     26.3686
       DOS:  cpu time      0.0026: real time      0.0026
    CHARGE:  cpu time     36.7971: real time     37.0187
    MIXING:  cpu time      0.2823: real time      0.2824
    --------------------------------------------
      LOOP:  cpu time     77.0034: real time     77.2956

 eigenvalue-minimisations  :   120
 total energy-change (2. order) : 0.2494087E-02  (-0.2046428E-03)
 number of electron       2.0000000 magnetization 
 augmentation part        0.0427268 magnetization 

 Broyden mixing:
  rms(total) = 0.61338E-02    rms(broyden)= 0.53451E-01
  rms(prec ) = 0.80042E-02
  weight for this iteration     100.00
  WARNING: grid for Broyden might be to small

 eigenvalues of (default mixing * dielectric matrix)
  average eigenvalue GAMMA=   1.5820
  5.8474  4.2465  1.5312  1.5312  2.1905  1.7693  1.7693  1.6197  1.1335  1.1335
  0.8840  0.8840  0.7186  0.7186  0.6380  0.6380  0.6111  0.6111

 Free energy of the ion-electron system (eV)
  ---------------------------------------------------
  alpha Z        PSCENC =         0.00121808
  Ewald energy   TEWEN  =        15.45038639
  -Hartree energ DENC   =       -31.53129441
  -exchange      EXHF   =         0.00000000
  -V(xc)+E(xc)   XCENC  =         6.18259669
  PAW double counting   =        23.51688334      -23.54817644
  entropy T*S    EENTRO =        -0.00000000
  eigenvalues    EBANDS =       -21.95980748
  atomic energy  EATOM  =        24.97672418
  Solvation  Ediel_sol  =         0.00000000
  ---------------------------------------------------
  free energy    TOTEN  =        -6.91146965 eV

  energy without entropy =       -6.91146965  energy(sigma->0) =       -6.91146965


--------------------------------------------------------------------------------------------------------




--------------------------------------- Iteration      1(  20)  ---------------------------------------


    POTLOK:  cpu time      6.0272: real time      6.0759
    SETDIJ:  cpu time      1.5336: real time      1.5341
    EDDIAG:  cpu time      6.0153: real time      6.0182
     EDDAV:  cpu time     26.3471: real time     26.3624
       DOS:  cpu time      0.0029: real time      0.0029
    CHARGE:  cpu time     36.8863: real time     37.1280
    MIXING:  cpu time      0.2984: real time      0.2984
    --------------------------------------------
      LOOP:  cpu time     77.1104: real time     77.3737

 eigenvalue-minimisations  :   120
 total energy-change (2. order) :-0.3376528E-03  (-0.3703617E-04)
 number of electron       2.0000000 magnetization 
 augmentation part        0.0426545 magnetization 

 Broyden mixing:
  rms(total) = 0.30198E-02    rms(broyden)= 0.24295E-01
  rms(prec ) = 0.39314E-02
  weight for this iteration     100.00
  WARNING: grid for Broyden might be to small

 eigenvalues of (default mixing * dielectric matrix)
  average eigenvalue GAMMA=   1.6310
  6.6034  4.3666  1.5312  1.5312  2.3989  1.7668  1.7668  2.0052  1.2288  1.2288
  0.9267  0.9267  0.7658  0.7658  0.6652  0.6652  0.6080  0.6195  0.6195

 Free energy of the ion-electron system (eV)
  ---------------------------------------------------
  alpha Z        PSCENC =         0.00121808
  Ewald energy   TEWEN  =        15.45038639
  -Hartree energ DENC   =       -31.69492617
  -exchange      EXHF   =         0.00000000
  -V(xc)+E(xc)   XCENC  =         6.19920924
  PAW double counting   =        23.70428752      -23.73570840
  entropy T*S    EENTRO =        -0.00000000
  eigenvalues    EBANDS =       -21.81299814
  atomic energy  EATOM  =        24.97672418
  Solvation  Ediel_sol  =         0.00000000
  ---------------------------------------------------
  free energy    TOTEN  =        -6.91180730 eV

  energy without entropy =       -6.91180730  energy(sigma->0) =       -6.91180730


--------------------------------------------------------------------------------------------------------




--------------------------------------- Iteration      1(  21)  ---------------------------------------


    POTLOK:  cpu time      6.0557: real time      6.0587
    SETDIJ:  cpu time      1.5302: real time      1.5312
    EDDIAG:  cpu time      6.0125: real time      6.0161
     EDDAV:  cpu time     33.4018: real time     33.4252
       DOS:  cpu time      0.0024: real time      0.0024
    CHARGE:  cpu time     36.5030: real time     36.7601
    MIXING:  cpu time      0.3100: real time      0.3212
    --------------------------------------------
      LOOP:  cpu time     83.8156: real time     84.1149

 eigenvalue-minimisations  :   176
 total energy-change (2. order) :-0.3628570E+03  (-0.3316180E+03)
 number of electron       2.0000000 magnetization 
 augmentation part        0.0000869 magnetization 

 Broyden mixing:
  rms(total) = 0.31455E+01    rms(broyden)= 0.68523E+01
  rms(prec ) = 0.31955E+01
  weight for this iteration     100.00
  WARNING: grid for Broyden might be to small

 eigenvalues of (default mixing * dielectric matrix)
  average eigenvalue GAMMA=   1.5495
  6.6026  4.3679  1.5312  1.5312  2.3961  1.7667  1.7667  2.0070  1.2287  1.2287
  0.9267  0.9267  0.7658  0.7658  0.6652  0.6652  0.6080  0.6195  0.6195  0.0000

 Free energy of the ion-electron system (eV)
  ---------------------------------------------------
  alpha Z        PSCENC =         0.00121808
  Ewald energy   TEWEN  =        15.45038639
  -Hartree energ DENC   =       -31.74593432
  -exchange      EXHF   =         0.00000000
  -V(xc)+E(xc)   XCENC  =         6.20384320
  PAW double counting   =        23.75747352      -23.78888757
  entropy T*S    EENTRO =        -0.00000000
  eigenvalues    EBANDS =      -384.62365701
  atomic energy  EATOM  =        24.97672418
  Solvation  Ediel_sol  =         0.00000000
  ---------------------------------------------------
  free energy    TOTEN  =      -369.76883352 eV

  energy without entropy =     -369.76883352  energy(sigma->0) =     -369.76883352


--------------------------------------------------------------------------------------------------------




--------------------------------------- Iteration      1(  22)  ---------------------------------------


    POTLOK:  cpu time      6.0470: real time      6.0502
    SETDIJ:  cpu time      1.5291: real time      1.5301
    EDDIAG:  cpu time      6.0111: real time      6.0148
     EDDAV:  cpu time     25.3355: real time     25.3503
       DOS:  cpu time      0.0025: real time      0.0025
    CHARGE:  cpu time     37.2943: real time     37.5271
    MIXING:  cpu time      0.3311: real time      0.3311
    --------------------------------------------
      LOOP:  cpu time     76.5507: real time     76.8061

 eigenvalue-minimisations  :   112
 total energy-change (2. order) : 0.3641061E+03  (-0.4976497E+03)
 number of electron       2.0000000 magnetization 
 augmentation part        0.0423680 magnetization 

 Broyden mixing:
  rms(total) = 0.77010E+00    rms(broyden)= 0.55859E-01
  rms(prec ) = 0.44719E-02
  weight for this iteration     100.00
  WARNING: grid for Broyden might be to small

 eigenvalues of (default mixing * dielectric matrix)
  average eigenvalue GAMMA=   1.4757
  6.6000  4.3709  1.5312  1.5312  2.3946  1.7667  1.7667  2.0088  1.2286  1.2286
  0.9266  0.9266  0.7657  0.7657  0.6652  0.6652  0.6079  0.6195  0.6195  0.0008
  0.0001

 Free energy of the ion-electron system (eV)
  ---------------------------------------------------
  alpha Z        PSCENC =         0.00121808
  Ewald energy   TEWEN  =        15.45038639
  -Hartree energ DENC   =       -31.85434158
  -exchange      EXHF   =         0.00000000
  -V(xc)+E(xc)   XCENC  =         7.79498410
  PAW double counting   =        23.75186465      -23.78327564
  entropy T*S    EENTRO =        -0.00000000
  eigenvalues    EBANDS =       -22.00025552
  atomic energy  EATOM  =        24.97672418
  Solvation  Ediel_sol  =         0.00000000
  ---------------------------------------------------
  free energy    TOTEN  =        -5.66269534 eV

  energy without entropy =       -5.66269534  energy(sigma->0) =       -5.66269534


--------------------------------------------------------------------------------------------------------




--------------------------------------- Iteration      1(  23)  ---------------------------------------


    POTLOK:  cpu time      6.0206: real time      6.0239
    SETDIJ:  cpu time      1.5299: real time      1.5309
    EDDIAG:  cpu time      6.0511: real time      6.0548
     EDDAV:  cpu time     28.3748: real time     28.3924
       DOS:  cpu time      0.0027: real time      0.0027
    CHARGE:  cpu time     37.3440: real time     37.5872
    MIXING:  cpu time      0.3490: real time      0.3490
    --------------------------------------------
      LOOP:  cpu time     79.6722: real time     79.9409

 eigenvalue-minimisations  :   136
 total energy-change (2. order) :-0.1101439E+01  (-0.2858957E-03)
 number of electron       2.0000000 magnetization 
 augmentation part        0.0425735 magnetization 

 Broyden mixing:
  rms(total) = 0.15411E+00    rms(broyden)= 0.69801E-01
  rms(prec ) = 0.55165E-02
  weight for this iteration     100.00
  WARNING: grid for Broyden might be to small

 eigenvalues of (default mixing * dielectric matrix)
  average eigenvalue GAMMA=   1.4676
  6.6052  4.3893  1.5312  1.5312  2.3114  2.3114  1.7630  1.7630  1.2590  1.2590
  0.9143  0.9143  0.7624  0.7624  0.6618  0.6618  0.6136  0.6136  0.6006  0.5295
  0.5295  0.0001

 Free energy of the ion-electron system (eV)
  ---------------------------------------------------
  alpha Z        PSCENC =         0.00121808
  Ewald energy   TEWEN  =        15.45038639
  -Hartree energ DENC   =       -31.78033038
  -exchange      EXHF   =         0.00000000
  -V(xc)+E(xc)   XCENC  =         6.37186476
  PAW double counting   =        23.89835278      -23.92953779
  entropy T*S    EENTRO =        -0.00000000
  eigenvalues    EBANDS =       -21.75281217
  atomic energy  EATOM  =        24.97672418
  Solvation  Ediel_sol  =         0.00000000
  ---------------------------------------------------
  free energy    TOTEN  =        -6.76413415 eV

  energy without entropy =       -6.76413415  energy(sigma->0) =       -6.76413415


--------------------------------------------------------------------------------------------------------




--------------------------------------- Iteration      1(  24)  ---------------------------------------


    POTLOK:  cpu time      6.0210: real time      6.0244
    SETDIJ:  cpu time      1.5352: real time      1.5362
    EDDIAG:  cpu time      6.0160: real time      6.0197
     EDDAV:  cpu time     33.3961: real time     33.4161
       DOS:  cpu time      0.0031: real time      0.0031
    CHARGE:  cpu time     36.9076: real time     37.1296
    MIXING:  cpu time      0.3668: real time      0.3673
    --------------------------------------------
      LOOP:  cpu time     84.2458: real time     84.4962

 eigenvalue-minimisations  :   176
 total energy-change (2. order) :-0.1309060E+00  (-0.5792683E-05)
 number of electron       2.0000000 magnetization 
 augmentation part        0.0425910 magnetization 

 Broyden mixing:
  rms(total) = 0.30823E-01    rms(broyden)= 0.95388E-02
  rms(prec ) = 0.11948E-02
  weight for this iteration     100.00
  WARNING: grid for Broyden might be to small

 eigenvalues of (default mixing * dielectric matrix)
  average eigenvalue GAMMA=   1.5381
  7.5231  3.9847  3.9847  1.5312  1.5312  1.7772  1.7772  1.6546  1.6546  1.0487
  1.0487  0.9436  0.9436  0.8374  0.8374  0.7019  0.7019  0.6362  0.6362  0.6119
  0.6119  0.0001  0.3981

 Free energy of the ion-electron system (eV)
  ---------------------------------------------------
  alpha Z        PSCENC =         0.00121808
  Ewald energy   TEWEN  =        15.45038639
  -Hartree energ DENC   =       -31.83473095
  -exchange      EXHF   =         0.00000000
  -V(xc)+E(xc)   XCENC  =         6.22750045
  PAW double counting   =        23.83919735      -23.87057909
  entropy T*S    EENTRO =        -0.00000000
  eigenvalues    EBANDS =       -21.68475661
  atomic energy  EATOM  =        24.97672418
  Solvation  Ediel_sol  =         0.00000000
  ---------------------------------------------------
  free energy    TOTEN  =        -6.89504019 eV

  energy without entropy =       -6.89504019  energy(sigma->0) =       -6.89504019


--------------------------------------------------------------------------------------------------------




--------------------------------------- Iteration      1(  25)  ---------------------------------------


    POTLOK:  cpu time      6.0356: real time      6.0392
    SETDIJ:  cpu time      1.5311: real time      1.5318
    EDDIAG:  cpu time      6.0166: real time      6.0209
     EDDAV:  cpu time     30.3806: real time     30.4004
       DOS:  cpu time      0.0028: real time      0.0028
    CHARGE:  cpu time     36.7362: real time     36.9746
    MIXING:  cpu time      0.3877: real time      0.3877
    --------------------------------------------
      LOOP:  cpu time     81.0906: real time     81.3575

 eigenvalue-minimisations  :   152
 total energy-change (2. order) :-0.1495644E-01  (-0.5038001E-05)
 number of electron       2.0000000 magnetization 
 augmentation part        0.0426110 magnetization 

 Broyden mixing:
  rms(total) = 0.64380E-02    rms(broyden)= 0.18535E-01
  rms(prec ) = 0.20811E-02
  weight for this iteration     100.00
  WARNING: grid for Broyden might be to small

 eigenvalues of (default mixing * dielectric matrix)
  average eigenvalue GAMMA=   1.5638
  7.9060  4.2980  4.2980  1.5312  1.5312  1.7761  1.7761  1.7098  1.7098  1.0829
  1.0829  1.0771  1.0771  0.8569  0.8569  0.7246  0.7246  0.6491  0.6491  0.6107
  0.6107  0.5977  0.0001  0.3955

 Free energy of the ion-electron system (eV)
  ---------------------------------------------------
  alpha Z        PSCENC =         0.00121808
  Ewald energy   TEWEN  =        15.45038639
  -Hartree energ DENC   =       -31.80164755
  -exchange      EXHF   =         0.00000000
  -V(xc)+E(xc)   XCENC  =         6.20961872
  PAW double counting   =        23.83696596      -23.86833372
  entropy T*S    EENTRO =        -0.00000000
  eigenvalues    EBANDS =       -21.71492869
  atomic energy  EATOM  =        24.97672418
  Solvation  Ediel_sol  =         0.00000000
  ---------------------------------------------------
  free energy    TOTEN  =        -6.90999663 eV

  energy without entropy =       -6.90999663  energy(sigma->0) =       -6.90999663


--------------------------------------------------------------------------------------------------------




--------------------------------------- Iteration      1(  26)  ---------------------------------------


    POTLOK:  cpu time      6.0636: real time      6.0660
    SETDIJ:  cpu time      1.5362: real time      1.5370
    EDDIAG:  cpu time      6.0149: real time      6.0174
     EDDAV:  cpu time     28.3773: real time     28.3920
       DOS:  cpu time      0.0029: real time      0.0029
    CHARGE:  cpu time     36.6661: real time     36.9202
    MIXING:  cpu time      0.4057: real time      0.4058
    --------------------------------------------
      LOOP:  cpu time     79.0666: real time     79.3412

 eigenvalue-minimisations  :   136
 total energy-change (2. order) :-0.1889497E-02  (-0.6142549E-06)
 number of electron       2.0000000 magnetization 
 augmentation part        0.0426036 magnetization 

 Broyden mixing:
  rms(total) = 0.16702E-02    rms(broyden)= 0.10146E-01
  rms(prec ) = 0.13050E-02
  weight for this iteration     100.00
  WARNING: grid for Broyden might be to small

 eigenvalues of (default mixing * dielectric matrix)
  average eigenvalue GAMMA=   1.5920
  8.0270  4.4104  4.4104  1.5312  1.5312  2.3407  1.7735  1.7735  1.3649  1.3649
  1.4223  1.1563  1.1563  0.9123  0.9123  0.7603  0.7603  0.6709  0.6709  0.6239
  0.6239  0.6072  0.5856  0.0001  0.4096

 Free energy of the ion-electron system (eV)
  ---------------------------------------------------
  alpha Z        PSCENC =         0.00121808
  Ewald energy   TEWEN  =        15.45038639
  -Hartree energ DENC   =       -31.81366170
  -exchange      EXHF   =         0.00000000
  -V(xc)+E(xc)   XCENC  =         6.21080225
  PAW double counting   =        23.83242085      -23.86383246
  entropy T*S    EENTRO =        -0.00000000
  eigenvalues    EBANDS =       -21.70594372
  atomic energy  EATOM  =        24.97672418
  Solvation  Ediel_sol  =         0.00000000
  ---------------------------------------------------
  free energy    TOTEN  =        -6.91188613 eV

  energy without entropy =       -6.91188613  energy(sigma->0) =       -6.91188613


--------------------------------------------------------------------------------------------------------




--------------------------------------- Iteration      1(  27)  ---------------------------------------


    POTLOK:  cpu time      6.0492: real time      6.0517
    SETDIJ:  cpu time      1.5332: real time      1.5343
    EDDIAG:  cpu time      6.0181: real time      6.0211
     EDDAV:  cpu time     24.3176: real time     24.3313
       DOS:  cpu time      0.0023: real time      0.0023
    CHARGE:  cpu time     37.0538: real time     37.2983
    MIXING:  cpu time      0.4263: real time      0.4263
    --------------------------------------------
      LOOP:  cpu time     75.4005: real time     75.6652

 eigenvalue-minimisations  :   104
 total energy-change (2. order) :-0.2751097E-03  (-0.2136197E-05)
 number of electron       2.0000000 magnetization 
 augmentation part        0.0425906 magnetization 

 Broyden mixing:
  rms(total) = 0.40108E-03    rms(broyden)= 0.38295E-02
  rms(prec ) = 0.40159E-03
  weight for this iteration     100.00
  WARNING: grid for Broyden might be to small

 eigenvalues of (default mixing * dielectric matrix)
  average eigenvalue GAMMA=   1.6007
  8.2839  4.9866  3.9508  1.5312  1.5312  2.3594  1.7703  1.7703  1.6143  1.6143
  1.5777  1.1581  1.1581  0.9201  0.9201  0.7516  0.7516  0.7098  0.7098  0.6531
  0.6531  0.6168  0.6168  0.6072  0.0001  0.4014

 Free energy of the ion-electron system (eV)
  ---------------------------------------------------
  alpha Z        PSCENC =         0.00121808
  Ewald energy   TEWEN  =        15.45038639
  -Hartree energ DENC   =       -31.83780425
  -exchange      EXHF   =         0.00000000
  -V(xc)+E(xc)   XCENC  =         6.21417992
  PAW double counting   =        23.83405608      -23.86553674
[...]
     EDDAV:  cpu time     28.3606: real time     28.3774
       DOS:  cpu time      0.0006: real time      0.0006
    CHARGE:  cpu time     36.7453: real time     37.0535
    MIXING:  cpu time      0.7291: real time      0.7295
    --------------------------------------------
      LOOP:  cpu time     79.4183: real time     79.7507

 eigenvalue-minimisations  :   136
 total energy-change (2. order) :-0.2375523E-03  (-0.1415323E-06)
 number of electron       2.0000000 magnetization 
 augmentation part        0.0426003 magnetization 

 Broyden mixing:
  rms(total) = 0.10928E-02    rms(broyden)= 0.97664E-02
  rms(prec ) = 0.12119E-02
  weight for this iteration     100.00
  WARNING: grid for Broyden might be to small

 eigenvalues of (default mixing * dielectric matrix)
  average eigenvalue GAMMA=   1.5596
  8.1635  8.1635  4.2474  4.2474  2.1321  2.1321  1.5312  1.5312  2.2873  2.2873
  1.7735  1.7735  1.1368  1.1368  1.3154  1.3154  1.2103  1.2103  0.9775  0.9775
  0.8482  0.8482  0.7917  0.7917  0.7005  0.7005  0.6412  0.6412  0.6159  0.6159
  0.6092  0.5514  0.5514  0.0012  0.0003  0.0001  0.3994  0.4055

 Free energy of the ion-electron system (eV)
  ---------------------------------------------------
  alpha Z        PSCENC =         0.00121808
  Ewald energy   TEWEN  =        15.45038639
  -Hartree energ DENC   =       -31.81933847
  -exchange      EXHF   =         0.00000000
  -V(xc)+E(xc)   XCENC  =         6.21122479
  PAW double counting   =        23.83838356      -23.86980216
  entropy T*S    EENTRO =        -0.00000000
  eigenvalues    EBANDS =       -21.70083542
  atomic energy  EATOM  =        24.97672418
  Solvation  Ediel_sol  =         0.00000000
  ---------------------------------------------------
  free energy    TOTEN  =        -6.91203904 eV

  energy without entropy =       -6.91203904  energy(sigma->0) =       -6.91203904


--------------------------------------------------------------------------------------------------------




--------------------------------------- Iteration      1(  40)  ---------------------------------------


    POTLOK:  cpu time      6.0555: real time      6.0582
    SETDIJ:  cpu time      1.5375: real time      1.5382
    EDDIAG:  cpu time      6.0129: real time      6.0157
     EDDAV:  cpu time     25.3314: real time     25.3440
       DOS:  cpu time      0.0027: real time      0.0027
    CHARGE:  cpu time     36.7964: real time     37.1152
    MIXING:  cpu time      0.7587: real time      0.7591
    --------------------------------------------
      LOOP:  cpu time     76.4950: real time     76.8329

 eigenvalue-minimisations  :   112
 total energy-change (2. order) :-0.7128957E-04  (-0.2599928E-06)
 number of electron       2.0000000 magnetization 
 augmentation part        0.0425964 magnetization 

 Broyden mixing:
  rms(total) = 0.67820E-03    rms(broyden)= 0.48244E-02
  rms(prec ) = 0.80395E-03
  weight for this iteration     100.00
  WARNING: grid for Broyden might be to small

 eigenvalues of (default mixing * dielectric matrix)
  average eigenvalue GAMMA=   1.6069
  8.6366  8.6366  4.6313  4.6313  2.3685  2.3685  2.4300  2.4300  1.5312  1.5312
  1.7733  1.7733  1.1319  1.1319  1.3954  1.3954  1.2165  1.2165  1.0082  1.0082
  0.9083  0.9083  0.0012  0.0003  0.0001  0.7966  0.7966  0.6999  0.6999  0.5478
  0.5478  0.6414  0.6414  0.6071  0.6071  0.6012  0.6012  0.4168  0.3994

 Free energy of the ion-electron system (eV)
  ---------------------------------------------------
  alpha Z        PSCENC =         0.00121808
  Ewald energy   TEWEN  =        15.45038639
  -Hartree energ DENC   =       -31.82505382
  -exchange      EXHF   =         0.00000000
  -V(xc)+E(xc)   XCENC  =         6.21240335
  PAW double counting   =        23.83546993      -23.86691846
  entropy T*S    EENTRO =        -0.00000000
  eigenvalues    EBANDS =       -21.69633999
  atomic energy  EATOM  =        24.97672418
  Solvation  Ediel_sol  =         0.00000000
  ---------------------------------------------------
  free energy    TOTEN  =        -6.91211033 eV

  energy without entropy =       -6.91211033  energy(sigma->0) =       -6.91211033


--------------------------------------------------------------------------------------------------------




--------------------------------------- Iteration      1(  41)  ---------------------------------------


    POTLOK:  cpu time      6.0362: real time      6.0522
    SETDIJ:  cpu time      1.5390: real time      1.5397
    EDDIAG:  cpu time      6.0115: real time      6.0150
     EDDAV:  cpu time     25.3344: real time     25.3502
       DOS:  cpu time      0.0006: real time      0.0006
    CHARGE:  cpu time     36.8123: real time     37.0383
    MIXING:  cpu time      0.7878: real time      0.7882
    --------------------------------------------
      LOOP:  cpu time     76.5218: real time     76.7842

 eigenvalue-minimisations  :   112
 total energy-change (2. order) :-0.2341766E-04  (-0.3257148E-06)
 number of electron       2.0000000 magnetization 
 augmentation part        0.0425911 magnetization 

 Broyden mixing:
  rms(total) = 0.36608E-03    rms(broyden)= 0.21936E-02
  rms(prec ) = 0.47224E-03
  weight for this iteration     100.00
  WARNING: grid for Broyden might be to small

 eigenvalues of (default mixing * dielectric matrix)
  average eigenvalue GAMMA=   1.6605
  9.2245  9.2245  5.1668  5.1668  2.3073  2.3073  2.4580  2.4580  1.5312  1.5312
  1.7690  1.7690  1.1304  1.1304  1.4983  1.4983  1.4020  1.4020  1.0560  1.0560
  0.9412  0.9412  0.8067  0.8067  0.7191  0.7191  0.6904  0.6904  0.6370  0.6370
  0.6153  0.6153  0.6081  0.5468  0.5468  0.0012  0.0003  0.0001  0.3994  0.4133

 Free energy of the ion-electron system (eV)
  ---------------------------------------------------
  alpha Z        PSCENC =         0.00121808
  Ewald energy   TEWEN  =        15.45038639
  -Hartree energ DENC   =       -31.83357524
  -exchange      EXHF   =         0.00000000
  -V(xc)+E(xc)   XCENC  =         6.21380354
  PAW double counting   =        23.83437548      -23.86585817
  entropy T*S    EENTRO =        -0.00000000
  eigenvalues    EBANDS =       -21.68920801
  atomic energy  EATOM  =        24.97672418
  Solvation  Ediel_sol  =         0.00000000
  ---------------------------------------------------
  free energy    TOTEN  =        -6.91213375 eV

  energy without entropy =       -6.91213375  energy(sigma->0) =       -6.91213375


--------------------------------------------------------------------------------------------------------




--------------------------------------- Iteration      1(  42)  ---------------------------------------


    POTLOK:  cpu time      6.0378: real time      6.0411
    SETDIJ:  cpu time      1.5361: real time      1.5367
    EDDIAG:  cpu time      6.0143: real time      6.0180
     EDDAV:  cpu time     32.4097: real time     32.4310
       DOS:  cpu time      0.0029: real time      0.0029
    CHARGE:  cpu time     37.1326: real time     37.4432
    MIXING:  cpu time      0.8191: real time      0.8197
    --------------------------------------------
      LOOP:  cpu time     83.9525: real time     84.2926

 eigenvalue-minimisations  :   168
 total energy-change (2. order) : 0.7615816E-05  (-0.6451254E-08)
 number of electron       2.0000000 magnetization 
 augmentation part        0.0425910 magnetization 

 Broyden mixing:
  rms(total) = 0.37206E-03    rms(broyden)= 0.22838E-02
  rms(prec ) = 0.48188E-03
  weight for this iteration     100.00
  WARNING: grid for Broyden might be to small

 eigenvalues of (default mixing * dielectric matrix)
  average eigenvalue GAMMA=   1.7368
 10.2094 10.2094  5.5468  5.5468  2.9019  2.9019  2.1921  2.1921  1.5312  1.5312
  1.7657  1.7657  1.7277  1.7277  1.1334  1.1334  1.3394  1.3394  1.1151  1.1151
  0.9639  0.9639  0.0012  0.0003  0.0001  0.8678  0.8678  0.7863  0.7863  0.5468
  0.5468  0.6956  0.6956  0.6453  0.6453  0.6182  0.6182  0.6099  0.6099  0.4135
  0.3994

 Free energy of the ion-electron system (eV)
  ---------------------------------------------------
  alpha Z        PSCENC =         0.00121808
  Ewald energy   TEWEN  =        15.45038639
  -Hartree energ DENC   =       -31.83309790
  -exchange      EXHF   =         0.00000000
  -V(xc)+E(xc)   XCENC  =         6.21374333
  PAW double counting   =        23.83426876      -23.86575166
  entropy T*S    EENTRO =        -0.00000000
  eigenvalues    EBANDS =       -21.68961731
  atomic energy  EATOM  =        24.97672418
  Solvation  Ediel_sol  =         0.00000000
  ---------------------------------------------------
  free energy    TOTEN  =        -6.91212613 eV

  energy without entropy =       -6.91212613  energy(sigma->0) =       -6.91212613


--------------------------------------------------------------------------------------------------------




--------------------------------------- Iteration      1(  43)  ---------------------------------------


    POTLOK:  cpu time      6.0238: real time      6.0272
    SETDIJ:  cpu time      1.5420: real time      1.5426
    EDDIAG:  cpu time      6.0165: real time      6.0202
     EDDAV:  cpu time     24.3229: real time     24.3379
       DOS:  cpu time      0.0026: real time      0.0026
    --------------------------------------------
      LOOP:  cpu time     37.9083: real time     37.9309

 eigenvalue-minimisations  :   104
 total energy-change (2. order) : 0.7423723E-06  (-0.1873097E-07)
 number of electron       2.0000000 magnetization 
 augmentation part        0.0425910 magnetization 

 Free energy of the ion-electron system (eV)
  ---------------------------------------------------
  alpha Z        PSCENC =         0.00121808
  Ewald energy   TEWEN  =        15.45038639
  -Hartree energ DENC   =       -31.83242639
  -exchange      EXHF   =         0.00000000
  -V(xc)+E(xc)   XCENC  =         6.21352582
  PAW double counting   =        23.83605626      -23.86752889
  entropy T*S    EENTRO =        -0.00000000
  eigenvalues    EBANDS =       -21.69008085
  atomic energy  EATOM  =        24.97672418
  Solvation  Ediel_sol  =         0.00000000
  ---------------------------------------------------
  free energy    TOTEN  =        -6.91212539 eV

  energy without entropy =       -6.91212539  energy(sigma->0) =       -6.91212539


--------------------------------------------------------------------------------------------------------




 average (electrostatic) potential at core
  the test charge radii are     0.5201
  (the norm of the test charge is              1.0000)
       1 -43.5703       2 -43.5703



 E-fermi : -10.3870     XC(G=0):  -0.0624     alpha+bet : -0.0069

 val. band max:      -10.8450403383   @ k =   0.5000   0.5000   0.5000
 cond. band min:      -0.0721941418   @ k =   0.0000   0.0000   0.0000
 fundamental gap:     10.7728461966
 Fermi energy:       -10.3870476253

 k-point     1 :       0.0000    0.0000    0.0000
  band No.  band energies     occupation 
      1     -10.8450      2.00000
      2      -0.0722      0.00000
      3       0.2687      0.00000
      4       0.2756      0.00000
      5       0.2823      0.00000
      6       0.2826      0.00000
      7       0.2827      0.00000
      8       0.3560      0.00000

 k-point     2 :       0.5000    0.0000    0.0000
  band No.  band energies     occupation 
      1     -10.8450      2.00000
      2       0.0019      0.00000
      3       0.0353      0.00000
      4       0.3580      0.00000
      5       0.3605      0.00000
      6       0.3650      0.00000
      7       0.3734      0.00000
      8       0.3863      0.00000

 k-point     3 :       0.0000    0.0000    0.5000
  band No.  band energies     occupation 
      1     -10.8450      2.00000
      2       0.0033      0.00000
      3       0.0323      0.00000
      4       0.3626      0.00000
      5       0.3659      0.00000
      6       0.3677      0.00000
      7       0.3737      0.00000
      8       0.3749      0.00000

 k-point     4 :       0.5000    0.5000    0.0000
  band No.  band energies     occupation 
      1     -10.8450      2.00000
      2       0.0866      0.00000
      3       0.0980      0.00000
      4       0.0981      0.00000
      5       0.1575      0.00000
      6       0.4461      0.00000
      7       0.4585      0.00000
      8       0.4622      0.00000

 k-point     5 :       0.0000    0.5000    0.5000
  band No.  band energies     occupation 
      1     -10.8450      2.00000
      2       0.0916      0.00000
      3       0.0929      0.00000
      4       0.0983      0.00000
      5       0.1544      0.00000
      6       0.4556      0.00000
      7       0.4609      0.00000
      8       0.4633      0.00000

 k-point     6 :       0.5000    0.5000    0.5000
  band No.  band energies     occupation 
      1     -10.8450      2.00000
      2       0.1732      0.00000
      3       0.1805      0.00000
      4       0.1856      0.00000
      5       0.1857      0.00000
      6       0.1917      0.00000
      7       0.1918      0.00000
      8       0.1945      0.00000


--------------------------------------------------------------------------------------------------------


 soft charge-density along one line, spin component           1
         0         1         2         3         4         5         6         7         8         9
 total charge-density along one line

 pseudopotential strength for first ion, spin component:           1
 -2.339  -4.032  -0.000   0.054   0.000
 -4.032  -6.855  -0.000   0.062   0.000
 -0.000  -0.000  -0.153  -0.000   0.000
  0.054   0.062  -0.000  -0.007  -0.000
  0.000   0.000   0.000  -0.000  -0.153
 total augmentation occupancy for first ion, spin component:           1
  2.943  -0.414   0.000  -0.404   0.000
 -0.414   0.058   0.000   0.057  -0.000
  0.000   0.000   0.000   0.000   0.000
 -0.404   0.057   0.000   0.055   0.000
  0.000   0.000   0.000   0.000   0.000


------------------------ aborting loop because EDIFF is reached ----------------------------------------





 total charge

# of ion       s       p       d       tot
------------------------------------------
    1        0.618   0.033   0.000   0.651
    2        0.618   0.033   0.000   0.651
--------------------------------------------------
tot          1.236   0.066   0.000   1.302

    CHARGE:  cpu time     17.8904: real time     18.0025
    FORLOC:  cpu time      0.2560: real time      0.2560
    FORNL :  cpu time      8.0700: real time      8.0755
    STRESS:  cpu time     99.6935: real time     99.9027
    FORHAR:  cpu time      1.2945: real time      1.2951
    MIXING:  cpu time      0.8445: real time      0.8451
    OFIELD:  cpu time      0.0006: real time      0.0008

  FORCE on cell =-STRESS in cart. coord.  units (eV):
  Direction    XX          YY          ZZ          XY          YZ          ZX
  --------------------------------------------------------------------------------------
  Alpha Z     0.00122     0.00122     0.00122
  Ewald      -1.36293    -1.36293    18.17625     0.00000     0.00000     0.00000
  Hartree     9.89294     9.89294    12.06997    -0.00000    -0.00000    -0.00000
  E(xc)      -6.07901    -6.07901    -6.11711     0.00000     0.00000    -0.00000
  Local     -18.45229   -18.45229   -31.94033    -0.00000    -0.00000    -0.00000
  n-local    -5.40577    -5.40577    -6.41327    -0.00000    -0.00000     0.00000
  augment     0.29246     0.29246     0.20567    -0.00000    -0.00000     0.00000
  Kinetic    21.11925    21.11925    14.13051    -0.00000    -0.00000     0.00002
  Fock        0.00000     0.00000     0.00000     0.00000     0.00000     0.00000
  -------------------------------------------------------------------------------------
  Total       0.00587     0.00587     0.11291     0.00000     0.00000     0.00000
  in kB       0.00118     0.00118     0.02261     0.00000     0.00000     0.00000
  external pressure =        0.01 kB  Pullay stress =        0.00 kB


 VOLUME and BASIS-vectors are now :
 -----------------------------------------------------------------------------
  energy-cutoff  :     1200.00
  volume of cell :     8000.00
      direct lattice vectors                 reciprocal lattice vectors
    20.000000000  0.000000000  0.000000000     0.050000000  0.000000000  0.000000000
     0.000000000 20.000000000  0.000000000     0.000000000  0.050000000  0.000000000
     0.000000000  0.000000000 20.000000000     0.000000000  0.000000000  0.050000000

  length of vectors
    20.000000000 20.000000000 20.000000000     0.050000000  0.050000000  0.050000000


 FORCES acting on ions
    electron-ion (+dipol)            ewald-force                    non-local-force                 convergence-correction
 -----------------------------------------------------------------------------------------------
   0.978E-16 0.163E-13 -.210E+02   -.351E-18 -.483E-19 0.265E+02   0.265E-22 0.993E-23 -.537E+01   0.156E-13 -.192E-14 0.247E-02
   -.121E-16 -.153E-13 0.210E+02   0.112E-18 -.223E-18 -.265E+02   0.463E-22 -.331E-22 0.537E+01   -.149E-13 0.299E-14 -.247E-02
 -----------------------------------------------------------------------------------------------
   0.857E-16 0.107E-14 0.320E-13   -.240E-18 -.271E-18 0.000E+00   0.728E-22 -.232E-22 0.000E+00   0.683E-15 0.107E-14 0.524E-15


 POSITION                                       TOTAL-FORCE (eV/Angst)
 -----------------------------------------------------------------------------------
      0.00000      0.00000      0.36858         0.000000     -0.000000      0.146688
      0.00000      0.00000     19.63142        -0.000000      0.000000     -0.146688
 -----------------------------------------------------------------------------------
    total drift:                                0.000000      0.000000      0.000000


--------------------------------------------------------------------------------------------------------



  FREE ENERGIE OF THE ION-ELECTRON SYSTEM (eV)
  ---------------------------------------------------
  free  energy   TOTEN  =        -6.91212539 eV

  energy  without entropy=       -6.91212539  energy(sigma->0) =       -6.91212539



--------------------------------------------------------------------------------------------------------


    POTLOK:  cpu time      7.5400: real time      7.5505


--------------------------------------------------------------------------------------------------------


     LOOP+:  cpu time   3503.5077: real time   3514.9816
    4ORBIT:  cpu time      0.0000: real time      0.0000



 total charge

# of ion       s       p       d       tot
------------------------------------------
    1        0.618   0.033   0.000   0.651
    2        0.618   0.033   0.000   0.651
--------------------------------------------------
tot          1.236   0.066   0.000   1.302


 total amount of memory used by VASP MPI-rank0   496049. kBytes
=======================================================================

   base                                    :      30000. kBytes
   nonl-proj                               :      12851. kBytes
   fftplans                                :     278333. kBytes
   grid                                    :     165791. kBytes
   one-center                              :          1. kBytes
   wavefun                                 :       9073. kBytes

  
  
 General timing and accounting informations for this job:
 ========================================================
  
                  Total CPU time used (sec):     3691.923
                            User time (sec):     3160.806
                          System time (sec):      531.117
                         Elapsed time (sec):     3703.777
  
                   Maximum memory used (kb):     3329544.
                   Average memory used (kb):          N/A
  
                          Minor page faults:     71578448
                          Major page faults:         1143
                 Voluntary context switches:        63513
