LAMMPS data file via write_data, version 2 Apr 2025, timestep = 6560000, units = metal

1000 atoms
2 atom types

-0.9691082946905674 25.492441070944196 xlo xhi
-0.9691082946905674 25.492441070944196 ylo yhi
-0.9691082946905674 25.492441070944196 zlo zhi

Atom Type Labels

1 H
2 Si

Masses

1 1.00784
2 28.0855

Atoms # atomic

408 2 1.373202003470536 0.7752236985704846 2.218622167874046 0 1 0
966 2 0.8385246580245636 2.7299843195563747 3.3056426554532434 0 0 1
615 2 1.9648968085961585 0.9938362408788899 -0.07464085376429652 0 1 0
855 2 -0.4857896363386904 -0.6245395275066596 2.4576216044128465 1 1 0
959 2 -0.8446226439355398 2.1307524406464156 5.083761967754591 0 1 1
612 2 3.3292154481536373 -0.3556851851467301 3.0800901178328797 0 0 1
250 1 3.869891669022155 0.5124757016300605 4.125763669914233 -1 -1 0
78 1 6.889248131792687 0.5029531783384924 -0.7456901873129661 0 -1 2
215 1 5.8010911883876535 -0.3701946206095198 1.0222955325321978 -1 2 0
55 1 6.711015972224512 2.496394095737934 1.718103563798154 0 -1 0
64 1 7.176222093240943 2.40920462205 2.271661584182512 -1 0 1
657 2 3.3742383163571192 -0.7471372152327345 -0.5969043737386094 0 0 0
105 1 6.089097239009435 1.7415561836518352 4.406341453634716 0 1 0
187 1 6.358821355592401 1.8820027351339705 5.055302032253064 0 0 0
48 1 9.55318041275134 1.3069206844390355 0.7165816240537872 -1 1 0
214 1 8.544947868920012 1.2175536754850076 4.425227554163128 0 0 0
998 2 9.888895532563277 0.45140321666524486 4.441098972019403 -1 1 0
682 2 11.598400758115506 0.7318555046283297 2.8830510286472237 0 0 1
166 1 11.847350226601803 2.098884489259798 2.4391777916412547 1 1 0
129 1 9.525227186872145 1.539773505306461 1.4308940768387277 0 1 1
12 1 9.377423038980767 -0.8761411772979232 4.139188407985145 0 0 1
183 1 10.81846183728657 2.965124041609326 4.980292642721005 0 1 0
723 2 11.072358206486978 10.812940389589162 0.01760364406263848 0 0 0
451 2 -0.4343039473638882 3.8853714444390297 -0.35227753563517417 0 0 0
606 2 1.5071930139654715 6.166484374512465 4.513248897886581 0 1 0
318 2 2.6141894398723298 4.266224243569308 3.6621008494546254 0 0 0
672 2 0.2858379490687173 6.3630101775038295 2.6673710193633164 1 0 0
397 2 -0.5059604571954801 4.208440324198875 1.9819030759294765 1 0 0
953 2 2.3670448048722332 6.933883933363434 -0.783113346376631 1 0 1
43 1 3.8526537155202956 3.701280393036029 4.414426257006125 -1 0 0
205 1 3.1270269611871138 4.5505982566997645 2.2489024707563683 0 1 0
432 2 8.697050788678068 12.176916761033834 2.6880692485902338 0 0 0
141 1 5.307122572455592 3.699354295469403 0.3075385614603692 0 -1 -1
130 1 4.604851497143385 6.053287726112402 1.5942445090537185 1 1 0
936 2 4.07044730714972 7.28925016557943 0.9539682434826076 0 1 0
2 1 6.490583701693431 5.894517435499636 2.960250397208606 0 0 0
177 1 6.543057349781349 6.546388150743269 3.3293511060870093 -1 -1 -1
224 1 7.8119073451976 4.8266216794039165 0.29920397473664107 0 1 1
76 1 11.313082716679832 -0.3293733969382029 1.9661702746453567 0 1 0
26 1 6.401856117231834 7.244265096420463 -0.9399047073485742 0 0 0
86 1 11.357966378323912 10.77696643039239 1.477272798916506 0 0 0
116 1 10.967179980459585 3.16795634502044 4.316760027420111 0 1 0
155 1 8.807558174551469 7.185964533503087 -0.4129012054114072 -1 1 0
88 1 9.125113721714113 6.9531865612792805 2.559428726810268 1 1 0
16 1 9.623470105884582 7.319933966790156 2.9298830424784246 0 0 0
89 1 7.110910408638535 4.912243469865916 0.39593143097280414 0 0 2
148 1 11.681599916160263 7.842438095694824 0.23291822110161542 0 1 0
35 1 12.212023286047758 5.2997537102415135 1.2846505840890399 0 0 0
229 1 10.848923602171181 6.053162464908681 -0.880415585699581 0 0 1
143 1 11.457480021841516 5.121891910289164 1.264218510362344 -4 3 0
326 2 8.817363817179764 10.671396232679726 -0.7200626379547937 0 0 1
908 2 1.7347104078775923 11.946961414028141 4.048607512003711 0 0 0
327 2 2.1070993338027058 8.553783330166667 4.695726727920647 0 0 0
338 2 2.3948841472978577 10.692137685473709 2.0774977761149445 1 0 0
872 2 -0.18453125854999386 9.183934947594297 4.563311523123746 0 0 0
687 2 0.2965130966230338 9.720904962249907 1.1969958418917175 0 0 0
975 2 -0.2605943437278898 11.324107257815301 5.063005281440942 0 0 0
806 2 0.6458815836666658 8.491149888496084 -0.7468784085222726 1 0 0
541 2 3.705143834591399 8.873772980165363 2.896144889491874 0 0 0
847 2 5.477519371881395 11.873866081470117 5.031374572945228 0 0 0
954 2 5.583514622354886 8.429958063729446 -0.3855222266002468 0 0 0
864 2 6.877128295267288 10.16947501808271 0.4652237707612632 0 0 1
372 2 7.612308506107105 10.05664081113054 2.761163534385802 0 0 0
602 2 5.645639134621398 9.839929299724874 3.9920647852294833 0 0 0
355 2 -0.04171627921247967 -0.058536811442335135 -0.9103477175128992 1 0 1
17 1 11.406764622675924 9.510603850772764 3.6968977816214066 0 -1 1
40 1 8.662391073651909 9.142272752323947 3.120410865114186 0 1 1
391 2 3.770458749978138 12.222112475796337 1.154812452398939 1 0 0
546 2 1.6993510122984326 1.5568248487151317 7.148793632266921 0 0 0
596 2 1.1937475761125689 1.5686953965520014 11.629876488828762 0 1 0
676 2 -0.0469694871786529 0.2618922949112492 6.3644126354383435 0 0 0
756 2 0.3021710244876139 3.022588960896983 8.4704184955517 0 1 0
324 2 -0.5600742009170767 1.5491970811256301 10.007331019350408 1 1 0
941 2 3.3425941939759545 2.4184960191659064 11.151257507257448 0 0 1
136 1 2.0834886828405113 2.6181270144683797 6.1402682939959785 -1 1 1
121 1 1.8493653437611668 -0.5863883469276974 9.951872482389648 2 1 0
931 2 3.8466574246717506 0.8089694374596104 7.5508038388396255 0 1 0
633 2 4.795816022711844 1.8307344861345514 9.48833072198216 0 1 0
426 2 6.319812860859463 0.17606861278540542 10.533614495355245 0 0 0
237 1 4.586649194380778 1.149230553283556 6.397058402896283 0 0 1
109 1 6.573486034340747 0.026033375273512793 6.276064936097772 1 0 1
617 2 6.874047331362606 1.8094308905287995 12.099044258571078 1 0 0
217 1 10.72276555883155 5.769696168521629 6.527856920166409 -1 -1 0
467 2 8.613271363754395 -0.07536469962761716 9.976551817435135 0 0 -1
464 2 9.678974016269782 2.0054777271240805 9.881090082226287 0 1 0
413 2 9.911461668311205 2.523066638314481 7.588827036278751 0 1 0
753 2 10.902921525346999 0.6040881677310705 6.6616630044813165 0 1 0
515 2 11.800191182650153 1.9071282450884426 10.68086681224712 0 1 0
93 1 8.676489168488404 2.9468431409861777 7.0104867518711025 0 -1 2
758 2 7.801581001933329 3.33324340394239 10.758657294095434 1 0 0
115 1 8.110401719778439 4.871661852285653 6.295084789950322 0 1 1
897 2 -0.930502709306744 5.720982867334004 11.010965691388332 0 0 0
539 2 0.9301418614478298 4.902424106744544 9.696543372265381 0 0 0
597 2 1.375791901513101 6.553627015852062 8.242760919731193 1 0 0
742 2 0.21952411114609238 5.895949803097275 6.416041452652467 0 0 0
832 2 2.8522798256099064 4.69846493580715 10.896211331134738 1 0 0
789 2 6.069773465618714 3.7584097105496674 9.345271662601569 0 1 1
140 1 6.294921256668432 3.7737247468817854 7.910619306292475 0 0 0
232 1 3.9060640075265267 5.44711270330846 6.804081839790054 -1 -1 1
527 2 3.6908168947892257 6.481434150344445 7.859128203293045 0 0 0
787 2 4.649938489999622 5.619105147392046 9.813663471843084 1 1 0
349 2 5.61134937013091 6.957095384407782 11.428015535677414 1 0 0
156 1 9.993311235122166 5.669487634310686 6.5167107528233466 0 0 0
118 1 12.215114849713398 6.032439728759681 9.487367628485636 0 1 0
445 2 10.040332171962499 9.642364806086738 7.354824112877953 0 0 0
134 1 10.613523618548715 3.720150642131606 7.232902890292383 1 1 0
181 1 9.763964390503673 6.413045741061791 9.26682897220334 0 1 0
593 2 9.271395149950337 6.849382325869723 10.736288799491305 0 0 0
553 2 8.629315356961772 4.9815577408109935 12.051199960136222 0 1 0
139 1 6.5041070675672055 7.108489628063129 5.856061420972276 0 1 0
487 2 0.9687261548647117 10.478473584136394 11.661075999362579 1 0 0
766 2 0.5309121142662632 8.465961571596523 9.15942070812695 1 0 0
609 2 1.6520066367582542 8.426840682516396 11.145527082669876 1 0 0
266 2 0.8265395969033882 10.418565964051632 8.078325152856667 0 0 0
815 2 2.7291239996779053 9.923331642635432 6.496220328488369 0 0 0
718 2 1.7773498868750277 11.881998677190628 9.760945474787937 1 0 0
681 2 3.186219200990217 12.113654856627733 5.878192109718485 0 0 0
977 2 7.480056741677332 12.09678244513674 6.23935142546622 0 0 0
838 2 4.369568327581039 8.74046184973642 7.663125541686055 0 0 0
473 2 3.9314041505313524 8.753169314638429 11.40215265186818 0 0 0
675 2 6.0945988246311025 8.572279166738088 5.943324214387921 0 0 0
289 2 7.23525304426869 10.065974786934252 9.398059736042446 0 0 0
522 2 4.855086229405896 9.90001880816722 9.602297295992019 0 -1 0
532 2 7.4089992043161335 8.191917262360642 10.691775715611328 0 0 0
406 2 4.106622484607043 12.109028985347361 9.40708556141278 0 0 0
396 2 10.229334080259276 12.202408618978227 10.537940613798364 0 0 0
164 1 10.642674162280741 9.470460155189413 6.023644555943304 -1 1 0
927 2 11.246883192708465 11.240493837507065 8.636768106624869 0 0 0
628 2 10.852899376927331 8.057072222758071 11.942967224533975 0 1 0
368 2 7.762363888402227 9.84023260935673 7.189387618040634 0 0 0
653 2 8.055772965189684 12.150086964036227 10.046371179851375 0 0 0
62 1 10.335076248657874 8.37716881457551 8.34222825971418 0 0 1
46 1 1.1625482395794453 0.15000262387015262 12.025702140217762 1 0 0
213 1 7.855020246461615 4.341264354244803 5.905204388858911 1 0 1
377 2 1.8762226599895144 2.6275464270983964 16.668119311878606 1 0 0
371 2 0.03646916326278493 2.1605709062723992 15.408159991219868 1 0 0
44 1 0.07503373549387726 0.6669461982200202 15.149939013212755 1 0 0
619 2 0.38537595671090275 3.1909863656045525 13.249918233895032 1 1 0
321 2 -0.7668724431990788 -0.23975587409561028 18.664879124826925 1 0 0
102 1 -0.3162987898050621 -0.8866379948012976 17.361887587849623 1 1 -1
701 2 -0.8200593123818127 7.523167971160007 14.470421371874863 0 0 0
28 1 3.6135280625654502 -0.6401567639582105 13.91507214408684 1 1 0
862 2 3.575092398719627 0.9375804393098115 16.42565415383515 0 1 0
455 2 4.662013530638707 0.4983402086419553 14.492512768369862 1 0 0
736 2 5.459070151429916 1.4954499635429013 17.81130760946061 0 0 0
298 2 4.719254357768428 2.1723616331319473 12.975926997472298 0 1 0
810 2 7.303126742479813 0.13209707085788103 16.917431238791902 0 1 -1
604 2 6.632968269969172 -0.7510044383472273 14.874733010735113 1 0 0
902 2 8.037955306220393 0.651020555976235 13.614884148676715 0 0 0
412 2 8.310625463425687 1.8874256612377702 15.68661285285092 0 0 0
677 2 10.579629251360473 2.226104315145049 16.131851449941276 0 1 0
255 2 11.703111541386262 0.3332381907100326 16.674717544046292 0 1 0
360 2 11.652856306119745 2.8372871063570497 14.025491432696011 0 0 0
867 2 10.886283292371825 -0.41961745129487393 18.85772702446373 0 1 0
500 2 9.068236333837968 -0.8434581027530872 12.302836512191929 0 1 0
674 2 0.5099681824923488 6.8774399386282665 12.651719527526335 0 0 0
449 2 2.4063967994916644 4.901790220582739 16.55184904810106 0 0 0
540 2 1.9062101772952573 4.989092796434474 13.069601272143052 0 0 0
526 2 0.7767666793626276 6.2356076822752025 17.799368707111157 0 0 0
622 2 6.202538304262832 3.684421594419719 17.87913645954818 1 0 0
696 2 3.6471423284783624 5.660548839152167 14.59347316571188 0 1 0
715 2 7.074234656035701 3.9135900296558246 15.644229941433302 0 0 0
374 2 6.605986656935666 5.723420695067846 12.998284264375709 0 0 0
480 2 5.298462871373622 4.1869133594589485 14.109681175950895 0 1 0
348 2 4.265109119716002 4.886465158135131 18.01014391025712 0 1 0
794 2 6.885232875452374 7.568903875450436 14.545939461051866 0 0 0
755 2 4.613886521488836 7.025689647688592 18.83798614053332 0 0 0
454 2 4.478366864490536 7.869351119162117 14.88930465697919 0 0 0
623 2 10.275031979172175 9.164044667026628 15.816528135184058 0 0 0
407 2 8.06063794968579 7.454416705965453 18.36392978154059 0 0 0
861 2 8.56976434655669 7.200900682693668 16.110174436500827 0 0 0
994 2 10.19592319331564 4.704295335213641 13.731132955124515 0 0 0
331 2 10.553067535512435 4.062177351760738 17.584678012609935 0 0 0
524 2 9.170704782755514 5.10066973859641 15.897308321987751 0 0 0
863 2 11.74851833909793 6.171154836653175 13.00045108865754 0 0 0
352 2 12.095747560815052 5.359762577807968 18.68680522929095 0 0 0
435 2 0.046305103523884616 8.10403639988788 16.562144242326152 1 0 0
932 2 1.7775188577200147 9.567072756564645 17.02003889949132 1 0 0
314 2 2.4924948870736467 11.211280279713511 13.39288655739296 0 0 0
337 2 1.4044937568619882 11.321889916419307 15.514195136693523 0 0 0
438 2 9.859986360788257 9.661457476794746 13.517629165289929 0 0 0
418 2 9.89441647870099 11.155921561695425 16.983061443906767 0 0 -1
448 2 5.577198839236216 10.277379258526503 17.232664609185733 1 0 0
493 2 6.370672099072106 11.82707989118897 15.57325323163602 0 0 0
888 2 4.277026314287327 9.839351771583315 13.498038079456782 0 0 0
329 2 7.712548289533524 9.078443223984362 12.900779794581876 0 0 0
781 2 4.0536038331317386 8.483714731356763 16.999194136433232 0 0 -1
804 2 6.416003017874627 11.134704605403007 13.290794403935005 0 0 0
869 2 4.453214868107845 11.854374241427115 18.38438766896075 0 0 0
462 2 10.659303677943818 11.829019338886667 12.90741506549354 0 -1 0
843 2 12.136110543778647 12.188443850210792 16.902152378484978 0 0 0
618 2 1.1408675173131448 1.0494906563326056 22.080462376904784 1 0 0
841 2 1.2752195628694913 0.4398692204285104 19.77065991516914 0 0 0
558 2 -0.29493694045583974 2.9687685922368603 21.990045273093855 1 0 0
380 2 2.7176103162952834 2.798331210041111 24.992949406444207 1 0 0
307 2 -0.49874753591510673 3.239817765080354 19.701014987441614 0 0 0
294 2 0.08509669612926718 -0.7028703450101913 23.211093129761277 0 0 -1
783 2 3.2006325021829722 1.6396211934409815 23.061436150578295 0 0 0
710 2 7.115974847397746 9.507763979281716 18.913619302148515 0 0 0
447 2 1.5753992853385324 2.6690695301780094 18.91471426784938 0 1 0
256 2 4.600286311022973 -0.04180903150028592 23.82063747712812 0 0 0
802 2 4.888063072723224 0.6850822796245253 19.959064642756463 0 0 0
639 2 4.530069616792225 2.514393959649139 21.235606279255883 0 0 0
599 2 6.212886250216622 1.3372254026022077 24.77658398304337 0 0 -1
346 2 6.482390331339781 3.4196581520551668 21.956344488371304 0 0 0
914 2 4.9662960586908955 3.317885745145789 25.380991233130565 0 0 -1
776 2 6.4941378774630945 -0.8221946578532088 20.703585663083345 0 0 0
518 2 7.779734312672291 1.8613674693370603 23.087393460842563 0 0 0
982 2 8.289739306011505 0.2172726142673156 21.619472139635477 0 1 0
737 2 10.383203133906177 1.213216288346553 20.4873365123496 0 1 -1
944 2 9.764655558021833 3.405177364801098 19.63627829085446 0 1 -1
345 2 12.251717522958648 4.110485399148533 22.536278808788687 0 0 -1
240 1 9.490979372970003 1.4055547073167705 24.956497830017515 -1 1 -1
796 2 12.066813682569855 10.577100491184057 22.683421280372144 0 0 0
860 2 8.61055074746899 9.997318932222807 23.491460755545305 0 0 -1
721 2 -0.5029372351862545 7.024439207859087 22.62535820380044 0 0 -1
356 2 0.5774945246078118 4.929145475557789 22.810126627019027 1 0 0
963 2 2.360486589944353 5.584276966094132 21.174844461881566 0 0 0
693 2 2.2850824342101124 7.165809097719851 19.443087231871818 0 0 -1
505 2 1.4387230935121127 4.700615265161787 24.991269740760085 0 0 0
691 2 3.1460122237152017 7.759717080568803 23.668778045140517 0 1 0
759 2 3.186781872372374 3.887129892172105 19.865741612177953 0 0 0
574 2 3.139596241807287 -0.7918309613614075 19.51802845679464 1 0 0
565 2 5.620436493669178 4.8333688898363105 23.695684650935018 0 0 0
581 2 4.245524088099553 6.207615455088127 22.319215232966094 0 0 0
466 2 5.726296420252106 7.209414956682705 20.891903950288558 0 0 0
262 2 7.527878893597283 3.9888648859900355 19.940601741486226 0 0 0
122 1 6.676780923490154 5.658181260179454 24.128020766936473 0 1 -2
287 2 7.671341510661049 6.201068536622032 20.195213178040554 0 0 0
236 1 11.842241040121614 4.441546412146728 24.00802803223098 -1 1 -1
965 2 11.02801269942122 5.116592726690395 20.762094680171124 0 1 0
469 2 9.737850555403549 7.033873890817656 21.140036006954453 0 0 0
417 2 9.563471104671946 6.485020407904758 25.056778341768936 0 0 0
9 1 9.020851604339557 5.331820714249051 24.4471426068776 0 0 -1
640 2 9.794779568287929 8.052866682609327 23.311707423971985 0 1 0
395 2 10.139539527278979 8.226176525680902 19.203029947604147 0 1 0
280 2 0.20411144187275032 10.413430341744032 19.207714061553034 1 0 0
849 2 0.967962511676121 9.977509534525979 24.153912206141765 0 0 -1
439 2 1.3182844058898198 8.527883158470791 22.442437163190448 1 0 -1
573 2 1.9549748634212136 9.268321624416448 20.27017394286806 0 0 -1
625 2 2.9659985119193375 11.242522638773039 24.119240355095286 0 0 -1
767 2 6.329873510673221 10.302594244977522 23.18466188684157 0 0 0
300 2 4.560860458471806 9.436223006148051 24.320762653744776 0 0 -1
822 2 3.9015424477342897 10.745720825610187 20.32299130698401 0 0 0
837 2 5.8317613633349925 9.559936516117277 20.96545868789207 0 0 -1
512 2 -0.838907802034127 11.184293836322915 23.365432091947266 1 0 0
13 1 11.970769874663372 10.401817256618301 19.43929449958682 0 -1 0
354 2 9.983381486188497 11.511072917110768 22.488063880537897 0 0 0
303 2 12.250596915855501 8.500885306053396 23.59763239633344 0 0 -1
979 2 9.268130355119716 10.362802737687852 19.036900953009752 0 0 0
159 1 10.025878205828107 1.154107137112399 25.455708976315147 0 0 0
19 1 0.6216140686936045 11.821897107221261 18.92339064015405 1 -1 0
901 2 1.4852557485325666 14.078486916551991 3.318545169679995 0 0 1
913 2 1.490677698763006 15.486018481669117 5.132039191062756 0 0 0
555 2 -0.45693413662212723 14.611124813127736 2.208747111953633 0 0 0
336 2 2.6717600949463005 12.813254227575953 -0.7566725330083974 0 0 0
870 2 3.6315583259116346 14.104379678649876 2.4220243434348094 0 0 0
162 1 0.8867582783676078 15.218352056127323 -0.7864644019736053 1 0 1
259 2 3.7341743893079533 15.795515456500517 0.6141789110234079 0 0 1
649 2 6.111765757867676 15.57350437248487 4.836679915032846 0 0 0
601 2 5.42897678132085 13.75082243720348 3.7654504077043267 1 0 0
274 2 6.975587124778263 13.454650648514841 1.9642163643617216 0 0 0
589 2 7.386173019889387 15.534594971397073 1.226087850965162 0 0 0
709 2 7.572771269649202 14.847086552354074 -0.9661772945771785 0 0 0
325 2 9.224413689114337 12.900504405784098 4.783850976258962 0 0 0
833 2 8.520533788338039 15.07763354769148 4.811821294567844 0 0 0
276 2 11.252691640122212 15.348670186439268 1.9582850534959606 0 0 0
992 2 11.525201224448503 12.596164128605416 4.945700262465318 0 -1 1
808 2 8.871946475317149 16.15223261324829 2.783577877431629 0 0 0
381 2 10.352580960019333 13.238250621388444 1.2287021002773448 0 0 0
768 2 9.125873601724054 13.085131792733018 -0.7055105980712952 0 0 0
124 1 10.853165391914825 22.591901889848497 0.21566943150142737 0 0 0
437 2 -0.13290285766145438 16.75896622936824 1.247646236007411 1 0 1
258 2 1.9624783923310054 17.408307807466755 1.7765550947334252 0 0 0
344 2 1.9885374628319483 17.615536854497265 4.15581434745034 0 -1 0
714 2 2.3756717081013425 19.415939426374983 0.6620404086338385 0 0 0
556 2 0.6812027667205618 19.256305584881538 4.832714534549454 0 -1 1
171 1 0.9368802388584117 20.437975585344983 3.9028721106734814 0 -1 2
844 2 5.678029414640906 17.010382532593045 1.1740361965479629 0 0 1
853 2 5.903822067119083 17.480551813305098 3.4853898268530106 0 0 0
434 2 4.001996488340095 18.39654988719619 4.6278720414225845 1 0 0
587 2 6.343461208201812 18.879516102486864 0.11826892279987344 0 -1 1
969 2 4.518794739440116 20.32693489211743 0.0534580824473343 0 0 0
530 2 8.28344532293389 19.41735224780166 1.4788980119353523 0 0 1
981 2 8.14931994303476 18.335688767258784 3.398627469454654 0 -1 0
698 2 9.84191274580153 19.67805347016736 4.466958173085212 0 0 0
741 2 10.251966531920566 18.691333684245958 0.40121988993511115 0 0 0
56 1 10.796004633354784 20.0806559487059 0.14194492278720383 -1 0 0
409 2 11.631471200676216 17.680071267122255 1.8613069869231684 0 0 0
730 2 11.706849044617723 18.363526726390827 4.081856098787839 0 0 0
138 1 8.15520304881782 20.94791810789965 1.3450798669576596 0 0 0
38 1 9.969004665678774 21.10085276628422 3.9034544766141828 -1 0 0
892 2 1.1106744028517443 21.253990674321134 1.44794830082748 0 0 0
940 2 0.26079836087744157 24.943812073432674 4.6502815783405085 1 -1 1
456 2 -0.4212052821532559 24.54014548429974 0.5548349073888335 0 -1 0
882 2 2.7319290960730727 22.130848984967443 2.8976230384419535 0 0 0
302 2 2.4404671475209945 24.260309698722782 4.019997398286164 0 -1 0
277 2 0.8313057132544031 22.802191925362397 -0.24737235906017374 0 -1 0
951 2 -0.5570966035284226 23.002723602615784 5.272414941673144 1 0 0
430 2 3.9272046937213636 20.735458633971973 4.3514017191763035 0 0 0
175 1 5.33153306168276 20.953899274265154 3.7680715597725394 2 -1 -1
117 1 4.855546962213646 21.21931602381847 1.143000742338391 0 0 1
80 1 3.4226114080755066 22.746618780931122 1.659936304883752 0 0 1
50 1 5.577911814335835 24.6169763210738 2.781864359695635 -1 0 0
107 1 4.712625297715477 23.715340800196778 0.9806011385854676 0 0 -1
891 2 4.791936533906212 25.06990703999029 1.5349084535652082 0 0 1
613 2 11.742088006470459 16.492053445628073 5.436372457791269 0 0 0
958 2 5.8993556189639325 12.312207974723602 0.3087359986927025 0 0 0
63 1 11.604880323499618 22.679801567807875 0.0983066127771457 0 -1 0
144 1 8.695189376771136 22.451963273478775 5.319853276183088 0 0 1
25 1 8.155060237533492 23.75349027865332 1.732305466173806 0 -1 0
193 1 7.8705416540155575 23.729729260832507 1.0026330147374323 0 -1 0
745 2 1.0097372045229533 13.993392358022843 10.243620933982069 0 0 0
508 2 2.0495791352598145 15.230356813203947 8.721471048484023 1 0 0
453 2 3.0472050526159364 14.460117121849358 6.754923057245751 0 0 0
373 2 -0.828409169991899 20.091365290867255 8.434827414030313 1 0 0
249 1 3.342480613286355 15.710512330371913 9.255350234735278 0 0 0
457 2 6.5714043017889034 15.277293011790341 8.59146026480493 1 0 0
819 2 5.0353715893945665 15.72027544644994 6.911651893809296 1 0 0
578 2 5.714473873087082 15.553061651715556 10.773024286866132 0 0 0
392 2 4.750460368483487 13.470903186927078 11.149431626779299 1 0 0
684 2 6.835123076223333 12.860371551776465 11.860150398162489 0 0 0
996 2 7.932254682310873 13.439271829449659 8.109751278737871 0 0 0
178 1 4.754657744493081 12.670284661879467 8.040463018656714 -1 1 1
717 2 10.47046760199614 23.217363293356993 7.890857858232927 0 0 1
285 2 10.172705695031395 14.228169417960391 8.04730530713947 0 0 1
591 2 11.02493780796793 14.463309415189713 10.136380718845988 -1 0 0
976 2 11.84680457410098 12.87022786653971 7.161310019733593 0 0 0
585 2 9.70329216143903 15.961529227588734 6.651017118879937 0 0 0
357 2 9.888429886607984 15.299617476410674 11.988780472460357 0 0 0
988 2 1.024047862444035 20.213502813150885 6.921218070971454 0 -1 0
252 2 1.0574402376006047 17.455888425291477 8.838885041820244 0 0 0
771 2 2.649093932237496 19.046639227921503 8.187795036441292 0 0 0
850 2 0.9970494181235592 17.974289612755754 11.283914240796209 0 -1 0
598 2 1.2116267377397967 20.335111122485486 11.758866210082894 0 0 0
894 2 3.397046079599842 21.157649472355477 11.447778415982308 0 0 0
929 2 7.357387758604494 25.29318018200914 6.769524349816332 0 -1 0
429 2 4.363714590333158 17.99151041754972 6.916228691477379 0 0 0
335 2 4.212594698752347 19.570868390382884 9.785114809383328 1 0 0
452 2 4.704293693328514 17.671413756120657 11.20651977145969 0 0 0
839 2 6.544496326251266 18.76979536982139 7.3518694646038725 0 0 0
482 2 6.314429257659408 20.3459616248487 9.171085241147084 0 0 0
519 2 7.670852771306727 20.044682849798008 10.858866947086764 0 0 0
42 1 7.066738196598672 19.56199714614794 6.24000491575563 0 0 -1
94 1 3.8893450922984147 21.23297622071901 7.421960423222812 1 -1 0
706 2 8.707808140120333 17.69897339170535 7.963595265664896 0 0 0
881 2 9.6109916257087 18.683531413482658 10.30771774633546 0 0 0
405 2 9.684694488766025 19.74701058964672 6.712018297925962 0 0 0
791 2 11.591025496930072 20.3270871808108 9.673595994676997 0 -1 0
362 2 11.85197688321783 20.12887013786317 7.5062849703904515 0 0 0
497 2 9.45632998463527 25.36948025436292 7.891865880646629 0 0 0
739 2 -0.0874263490005528 21.520143184240183 10.127284684276336 0 0 0
752 2 0.6182832119852202 23.351053028922493 8.816765034904739 0 -1 0
885 2 2.4910149502709378 24.54645956532113 9.683527301889608 0 0 0
814 2 1.2924934662129548 22.52788680032354 6.644385133585259 1 0 0
726 2 3.2892652138308094 23.522801085040523 6.123201555258334 0 0 0
366 2 6.073593128954197 24.281433732614982 10.725289085902963 0 0 0
631 2 3.9668919657496344 23.60895465140238 11.260871279246118 0 0 0
570 2 3.881367567606926 24.97620334613548 7.874286759929031 0 0 0
728 2 4.729345564722698 21.75447633707454 6.206427170223273 0 0 0
720 2 6.570141170856212 22.067589753207265 7.607066450569707 0 -1 0
735 2 6.078545505752802 24.105252023313195 8.38412351686392 0 0 0
510 2 7.698167062024705 23.625335285774568 12.141470498371676 0 0 0
263 2 10.724132925881598 22.48261384659237 10.158569179433945 0 -1 1
332 2 9.069437719215747 21.862514097206407 11.591135509167502 0 0 0
495 2 8.849113042549119 21.9183514173101 6.830756986703295 0 -1 0
211 1 7.358237519840118 24.342983410666196 5.7443849680639945 1 -1 0
663 2 -0.9404848150971475 15.212319888654555 5.675773758313672 1 0 0
744 2 0.284850998334667 14.807811402668575 14.057173022387154 0 0 0
909 2 1.8747230080120572 14.601847269489099 17.424615224303594 0 0 0
777 2 2.965478045951292 12.674138107522381 16.752836515649566 1 0 0
824 2 1.3526789217061004 16.261125979516052 15.578646820159815 0 0 0
907 2 -0.24518708108782017 12.499715066514845 14.494706071952086 0 0 0
947 2 8.689417656156616 22.335432251994554 15.321482923932422 0 0 0
785 2 -0.4441026510194246 14.252330980094264 17.93650401834865 0 0 0
444 2 3.5519398045856443 13.317675840403663 13.188183228440636 0 0 0
588 2 6.270500972681645 18.93792181701305 12.510522400239878 1 -1 0
460 2 5.187241205392997 15.447554990345061 15.511133062494789 0 0 0
697 2 4.617027607072551 13.258628881991056 15.18988447247727 0 0 0
809 2 5.367987899538088 15.50770460828516 17.824238710770093 0 0 0
308 2 7.276209270102504 15.722834798441038 14.534752942305696 0 0 0
507 2 6.558200439089665 13.503922217040188 18.558782842474667 0 0 0
792 2 8.108277035134654 12.924006455239889 16.722112149341793 0 0 0
477 2 9.122118965798949 14.819817484870505 15.72833977339689 0 0 0
485 2 10.50606110266336 14.058576291701645 13.816283340085697 0 0 0
315 2 10.209323321439186 16.56117417135111 17.034155695687602 0 0 0
111 1 12.08496031930667 13.136374183034384 15.745526964746027 1 0 1
569 2 1.888176634925292 14.6295733543233 12.352244739748663 0 0 0
110 1 0.5309275547620167 17.275777729894234 16.12336722239887 1 0 -1
18 1 3.135511721050775 19.83251661781176 16.055782753688415 1 -1 1
53 1 2.993229735557386 19.563300012466943 17.79741951991175 1 -1 -1
361 2 3.270540627212151 16.98289247233653 14.789574196962471 1 0 0
780 2 2.857443808013545 16.79730018036536 12.317611256953786 1 0 0
31 1 0.7092475461323029 20.367116136380794 13.115019158552798 0 0 -2
192 1 0.9396828027429165 21.322598671908096 17.318805472170602 1 0 -1
82 1 -0.8896012174162359 20.373025976863737 16.60500111472725 0 -1 0
41 1 -0.9260655702308362 19.88413817599435 16.150821231452785 1 -1 1
757 2 4.068875083460722 19.099661539293553 15.059935510378377 0 0 0
446 2 5.895021172855315 17.779666461831724 18.090586367575856 0 -1 -1
607 2 6.186163371529592 19.152185038179933 16.16840237483599 0 0 0
957 2 7.309261333697917 18.06201072168626 14.245363921730204 0 0 0
594 2 4.609923507388235 20.38131462983354 13.219852000152649 1 -1 0
658 2 4.061268896298538 19.01998074012761 18.71790315195868 0 0 0
490 2 7.367813402094523 21.077992733621112 16.857932995856824 1 0 0
773 2 12.080716846734337 20.521733645121785 14.301288265988633 0 -1 0
550 2 11.40225957531068 20.006652610654452 16.61848057564719 0 0 -1
828 2 9.54969945854192 18.71160418982372 16.589017359875978 0 0 -1
278 2 9.441478947156064 18.85979835955848 14.10386630067722 0 0 0
476 2 8.627783682605623 20.009963448290083 18.369825623183637 0 -1 -1
281 2 9.97223727191294 21.08807785824215 13.698741695590272 0 0 0
629 2 10.22811228628824 23.538118871284453 16.559651845180884 0 0 -1
243 1 0.5884261364679442 22.027423548681494 14.792732051544835 1 0 0
83 1 2.0009289210548613 23.877778945410085 13.869586955605929 1 -1 1
182 1 1.7131947964019365 24.989821677596293 16.446115031557973 1 -1 1
32 1 1.1463473218140536 23.50365659020105 17.910871470522796 1 0 0
257 2 3.35071005807073 24.2127959398426 13.442903294753396 0 0 0
108 1 0.03505316317283391 22.3560491542103 15.175780415601803 1 1 -1
436 2 3.000379353666075 25.265280372317733 17.163736182967487 1 0 0
37 1 3.038333077992829 22.439703425510803 16.634057916250885 1 0 0
865 2 1.0935781944242202 22.250097828353145 18.511767821928373 0 -1 0
316 2 6.854859917477441 23.462435863625668 14.261443275699873 0 -1 0
778 2 4.266838913091827 23.22216731491176 16.75913195685819 1 0 0
488 2 6.029630033841493 22.544840495398013 18.070293836224824 0 0 0
489 2 4.7418074892641044 22.537431442235462 14.396498267730369 0 0 0
654 2 11.33193400644034 25.31758636131159 12.850540571523696 0 -1 0
548 2 11.37324776395394 22.041843353883603 17.869914331103317 0 0 0
513 2 11.739642718476055 24.858564619094174 15.123839729944322 0 -1 0
299 2 8.988942294531961 24.9445258271399 17.862554123338093 0 0 0
782 2 7.498974625540704 15.027744157260333 12.323799145996311 0 0 0
972 2 10.413796962973581 17.54954445589397 12.424347008082158 0 0 0
49 1 8.355399109232215 14.978752982581952 18.84639408082953 0 0 -1
543 2 3.3369984338065617 15.527659023952868 18.836777555871386 0 0 0
478 2 0.06420468304244364 13.415633745193073 23.32332623561574 0 0 -1
265 2 1.9742304720171409 13.865433313907982 22.1380593159955 0 0 0
154 1 1.6059440458960306 14.029624362758167 20.768372742166648 0 -1 -1
411 2 2.5722052875949406 15.710822656606833 23.36473880433981 0 0 0
984 2 0.6358918004589063 13.808514542806217 25.45218066994029 0 0 0