
units metal
atom_style atomic

read_data ${data_file}
read_data /u/vld/spet5633/Silicon/a-Si_potential/DFT_1200eV/Testing/Paper/l-SiH/1,000_structures/NVT_2.58/Hconc-45/4/SiH.data
Reading data file ...
  orthogonal box = (0 0 0) to (21.710943 21.710943 21.710943)
  2 by 2 by 2 MPI processor grid
  reading atoms ...
  1000 atoms
  read_data CPU = 0.037 seconds
# reset_timestep 0

mass 2 28.0855
mass 1 1.00784

labelmap atom 2 Si 1 H

pair_style  pace
ACE version: 2023.11.25
Recursive evaluator is used
pair_coeff  * * ${yacepot} H Si
pair_coeff  * * /u/vld/spet5633/Silicon/a-Si_potential/DFT_1200eV/Testing/Ites/Ite_6.8_kappa_auto_10/output_potential_tuned_repulsion_vHH_vSiH.yaml H Si
Loading /u/vld/spet5633/Silicon/a-Si_potential/DFT_1200eV/Testing/Ites/Ite_6.8_kappa_auto_10/output_potential_tuned_repulsion_vHH_vSiH.yaml
Total number of basis functions
	H: 26 (r=1) 1352 (r>1)
	Si: 28 (r=1) 2101 (r>1)
Mapping LAMMPS atom type #1(H) -> ACE species type #0
Mapping LAMMPS atom type #2(Si) -> ACE species type #1


neighbor 2.0 bin #default bin value for unit style (ie. metal)
neigh_modify every 1 delay 0 check yes #rebuild the neighbor list at every timestep

variable Nfreq equal 1000
variable Nprint equal 1000
variable Nevery equal 1000
variable Nrepeat equal ${Nfreq}/${Nevery}
variable Nrepeat equal 1000/${Nevery}
variable Nrepeat equal 1000/1000
variable Ndump equal ${ndump}
variable Ndump equal 10000
#variable nAtoms equal atoms
#variable Nrestart equal ${quench_timesteps}/15

timestep 0.0001

fix removeMomentum all momentum 1 linear 1 1 1

compute T all temp
fix TempAve all ave/time ${Nevery} ${Nrepeat} ${Nfreq} c_T
fix TempAve all ave/time 1000 ${Nrepeat} ${Nfreq} c_T
fix TempAve all ave/time 1000 1 ${Nfreq} c_T
fix TempAve all ave/time 1000 1 1000 c_T

variable P equal press
fix PressAve all ave/time ${Nevery} ${Nrepeat} ${Nfreq} v_P
fix PressAve all ave/time 1000 ${Nrepeat} ${Nfreq} v_P
fix PressAve all ave/time 1000 1 ${Nfreq} v_P
fix PressAve all ave/time 1000 1 1000 v_P

variable v equal vol
fix vAve all ave/time ${Nevery} ${Nrepeat} ${Nfreq} v_v
fix vAve all ave/time 1000 ${Nrepeat} ${Nfreq} v_v
fix vAve all ave/time 1000 1 ${Nfreq} v_v
fix vAve all ave/time 1000 1 1000 v_v

compute PE all pe pair
fix PEAve all ave/time ${Nevery} ${Nrepeat} ${Nfreq} c_PE
fix PEAve all ave/time 1000 ${Nrepeat} ${Nfreq} c_PE
fix PEAve all ave/time 1000 1 ${Nfreq} c_PE
fix PEAve all ave/time 1000 1 1000 c_PE
compute PEa all pe/atom pair

compute MSD all msd

thermo_style custom step cpu temp f_TempAve press f_PressAve f_PEAve vol f_vAve c_MSD[4]
thermo_modify flush yes
thermo ${Nfreq}
thermo 1000


######### Extrapolation grade check for >5  #########
# fix pace_gamma_1 all pair 100 pace/extrapolation gamma 1 # compute per-atom extrapolation grade every 10 steps
# compute gamma_ave all reduce ave f_pace_gamma_1 # compute average gamma
# compute max_pace_gamma_1 all reduce max f_pace_gamma_1 # compute maximum extrapolation grade over complete structure
# dump extrapolative structures if c_max_pace_gamma > 5, skip otherwise, check every 20 steps
# variable dump_skip equal "c_max_pace_gamma_1 < 5"
# dump pace_dump all custom 100 ${rundir}/out_str/extrapolative_structures.dump id element x y z# f_pace_gamma_1
# dump_modify pace_dump skip v_dump_skip
# dump_modify pace_dump element H Si


######### Dumping  #########
# fix pace_gamma_reg all pair ${Ndump} pace/extrapolation gamma 1 # compute per-atom extrapolation grade every 10 steps
dump ens all custom ${Ndump} ${rundir}/NPT/dump_custom_pace id element x y z fx fy fz c_PEa #f_pace_gamma_reg
dump ens all custom 10000 ${rundir}/NPT/dump_custom_pace id element x y z fx fy fz c_PEa 
dump ens all custom 10000 /u/vld/spet5633/Silicon/a-Si_potential/DFT_1200eV/Testing/Paper/l-SiH/1,000_structures/NVT_2.58/Hconc-45/4/NPT/dump_custom_pace id element x y z fx fy fz c_PEa 
#difference between dump ens and dump sep is that dump sep has a .dat file for each timestep vs ens is 1 big file
dump_modify ens sort 1 #sorting the dump by the 1st column of data ie the id
dump_modify ens element H Si

# variable max_pace_gamma equal c_gamma_ave
# fix extreme_extrapolation all halt 10 v_max_pace_gamma > 25

minimize 0 1.0e-6 1000 100000

CITE-CITE-CITE-CITE-CITE-CITE-CITE-CITE-CITE-CITE-CITE-CITE-CITE

Your simulation uses code contributions which should be cited:

- Type Label Framework: https://doi.org/10.1021/acs.jpcb.3c08419

@Article{Gissinger24,
 author = {Jacob R. Gissinger, Ilia Nikiforov, Yaser Afshar, Brendon Waters, Moon-ki Choi, Daniel S. Karls, Alexander Stukowski, Wonpil Im, Hendrik Heinz, Axel Kohlmeyer, and Ellad B. Tadmor},
 title = {Type Label Framework for Bonded Force Fields in LAMMPS},
 journal = {J. Phys. Chem. B},
 year =    2024,
 volume =  128,
 number =  13,
 pages =   {3282--3297}
}

CITE-CITE-CITE-CITE-CITE-CITE-CITE-CITE-CITE-CITE-CITE-CITE-CITE

Neighbor list info ...
  update: every = 1 steps, delay = 0 steps, check = yes
  max neighbors/atom: 2000, page size: 100000
  master list distance cutoff = 8.4
  ghost atom cutoff = 8.4
  binsize = 4.2, bins = 6 6 6
  1 neighbor lists, perpetual/occasional/extra = 1 0 0
  (1) pair pace, perpetual
      attributes: full, newton on
      pair build: full/bin/atomonly
      stencil: full/bin/3d
      bin: standard
Per MPI rank memory allocation (min/avg/max) = 4.784 | 4.785 | 4.785 Mbytes
   Step          CPU            Temp        f_TempAve        Press        f_PressAve      f_PEAve         Volume         f_vAve        c_MSD[4]   
         0   0              0              0              307480.89      0              0              10233.78       0              0            
      1000   977.43055      0              0              52273.399      0              0              10233.78       0              1.1585076    
Loop time of 977.431 on 8 procs for 1000 steps with 1000 atoms

86.4% CPU use with 8 MPI tasks x 1 OpenMP threads

Minimization stats:
  Stopping criterion = max iterations
  Energy initial, next-to-last, final = 
     -3346.91000461819    -4514.414350496    -4514.414350496
  Force two-norm initial, final = 203.9002 78.79466
  Force max component initial, final = 20.565666 42.070566
  Final line search alpha, max atom move = 9.2849952e-06 0.000390625
  Iterations, force evaluations = 1000 10774

MPI task timing breakdown:
Section |  min time  |  avg time  |  max time  |%varavg| %total
---------------------------------------------------------------
Pair    | 715        | 775.78     | 974.79     | 280.7 | 79.37
Neigh   | 0.0078701  | 0.0080651  | 0.008458   |   0.2 |  0.00
Comm    | 2.302      | 201.23     | 261.96     | 551.0 | 20.59
Output  | 0.00013218 | 0.00022635 | 0.00078625 |   0.0 |  0.00
Modify  | 0          | 0          | 0          |   0.0 |  0.00
Other   |            | 0.4191     |            |       |  0.04

Nlocal:            125 ave         149 max         116 min
Histogram: 2 2 2 1 0 0 0 0 0 1
Nghost:        1959.12 ave        2039 max        1901 min
Histogram: 1 0 2 1 2 1 0 0 0 1
Neighs:              0 ave           0 max           0 min
Histogram: 8 0 0 0 0 0 0 0 0 0
FullNghs:      30258.2 ave       38256 max       28009 min
Histogram: 3 4 0 0 0 0 0 0 0 1

Total # of neighbors = 242066
Ave neighs/atom = 242.066
Neighbor list builds = 8
Dangerous builds = 0

velocity all create ${t_anneal} ${rand}
velocity all create 2000 ${rand}
velocity all create 2000 202860707

fix integrate all nvt temp ${t_anneal} ${t_anneal} $(100.0*dt) #iso 0.0 0.0 $(1000.0*dt)
fix integrate all nvt temp 2000 ${t_anneal} $(100.0*dt) 
fix integrate all nvt temp 2000 2000 $(100.0*dt) 
fix integrate all nvt temp 2000 2000 0.010000000000000000208 
run ${anneal_timesteps}
run 1000000
Per MPI rank memory allocation (min/avg/max) = 5.054 | 5.055 | 5.056 Mbytes
   Step          CPU            Temp        f_TempAve        Press        f_PressAve      f_PEAve         Volume         f_vAve        c_MSD[4]   
      1000   0              2000           2000           79228.635      79228.635     -4514.4144      10233.78       10233.78       1.1585076    
ERROR: Lost atoms: original 1000 current 997
For more information see https://docs.lammps.org/err0008 (src/thermo.cpp:518)

units metal
atom_style atomic

read_data ${data_file}
read_data /u/vld/spet5633/Silicon/a-Si_potential/DFT_1200eV/Testing/Paper/l-SiH/1,000_structures/NVT_2.58/Hconc-45/4/SiH.data
Reading data file ...
  orthogonal box = (0 0 0) to (21.710943 21.710943 21.710943)
  2 by 2 by 4 MPI processor grid
  reading atoms ...
  1000 atoms
  read_data CPU = 0.062 seconds
# reset_timestep 0

mass 2 28.0855
mass 1 1.00784

labelmap atom 2 Si 1 H

pair_style  pace
ACE version: 2023.11.25
Recursive evaluator is used
pair_coeff  * * ${yacepot} H Si
pair_coeff  * * /u/vld/spet5633/Silicon/a-Si_potential/DFT_1200eV/Testing/Ites/Ite_6.8_kappa_auto_10/output_potential_tuned_repulsion_vHH_vSiH.yaml H Si
Loading /u/vld/spet5633/Silicon/a-Si_potential/DFT_1200eV/Testing/Ites/Ite_6.8_kappa_auto_10/output_potential_tuned_repulsion_vHH_vSiH.yaml
Total number of basis functions
	H: 26 (r=1) 1352 (r>1)
	Si: 28 (r=1) 2101 (r>1)
Mapping LAMMPS atom type #1(H) -> ACE species type #0
Mapping LAMMPS atom type #2(Si) -> ACE species type #1


neighbor 2.0 bin #default bin value for unit style (ie. metal)
neigh_modify every 1 delay 0 check yes #rebuild the neighbor list at every timestep

variable Nfreq equal 1000
variable Nprint equal 1000
variable Nevery equal 1000
variable Nrepeat equal ${Nfreq}/${Nevery}
variable Nrepeat equal 1000/${Nevery}
variable Nrepeat equal 1000/1000
variable Ndump equal ${ndump}
variable Ndump equal 10000
#variable nAtoms equal atoms
#variable Nrestart equal ${quench_timesteps}/15

timestep 0.0001

fix removeMomentum all momentum 1 linear 1 1 1

compute T all temp
fix TempAve all ave/time ${Nevery} ${Nrepeat} ${Nfreq} c_T
fix TempAve all ave/time 1000 ${Nrepeat} ${Nfreq} c_T
fix TempAve all ave/time 1000 1 ${Nfreq} c_T
fix TempAve all ave/time 1000 1 1000 c_T

variable P equal press
fix PressAve all ave/time ${Nevery} ${Nrepeat} ${Nfreq} v_P
fix PressAve all ave/time 1000 ${Nrepeat} ${Nfreq} v_P
fix PressAve all ave/time 1000 1 ${Nfreq} v_P
fix PressAve all ave/time 1000 1 1000 v_P

variable v equal vol
fix vAve all ave/time ${Nevery} ${Nrepeat} ${Nfreq} v_v
fix vAve all ave/time 1000 ${Nrepeat} ${Nfreq} v_v
fix vAve all ave/time 1000 1 ${Nfreq} v_v
fix vAve all ave/time 1000 1 1000 v_v

compute PE all pe pair
fix PEAve all ave/time ${Nevery} ${Nrepeat} ${Nfreq} c_PE
fix PEAve all ave/time 1000 ${Nrepeat} ${Nfreq} c_PE
fix PEAve all ave/time 1000 1 ${Nfreq} c_PE
fix PEAve all ave/time 1000 1 1000 c_PE
compute PEa all pe/atom pair

compute MSD all msd

thermo_style custom step cpu temp f_TempAve press f_PressAve f_PEAve vol f_vAve c_MSD[4]
thermo_modify flush yes
thermo ${Nfreq}
thermo 1000


######### Extrapolation grade check for >5  #########
# fix pace_gamma_1 all pair 100 pace/extrapolation gamma 1 # compute per-atom extrapolation grade every 10 steps
# compute gamma_ave all reduce ave f_pace_gamma_1 # compute average gamma
# compute max_pace_gamma_1 all reduce max f_pace_gamma_1 # compute maximum extrapolation grade over complete structure
# dump extrapolative structures if c_max_pace_gamma > 5, skip otherwise, check every 20 steps
# variable dump_skip equal "c_max_pace_gamma_1 < 5"
# dump pace_dump all custom 100 ${rundir}/out_str/extrapolative_structures.dump id element x y z# f_pace_gamma_1
# dump_modify pace_dump skip v_dump_skip
# dump_modify pace_dump element H Si


######### Dumping  #########
# fix pace_gamma_reg all pair ${Ndump} pace/extrapolation gamma 1 # compute per-atom extrapolation grade every 10 steps
dump ens all custom ${Ndump} ${rundir}/NPT/dump_custom_pace id element x y z fx fy fz c_PEa #f_pace_gamma_reg
dump ens all custom 10000 ${rundir}/NPT/dump_custom_pace id element x y z fx fy fz c_PEa 
dump ens all custom 10000 /u/vld/spet5633/Silicon/a-Si_potential/DFT_1200eV/Testing/Paper/l-SiH/1,000_structures/NVT_2.58/Hconc-45/4/NPT/dump_custom_pace id element x y z fx fy fz c_PEa 
#difference between dump ens and dump sep is that dump sep has a .dat file for each timestep vs ens is 1 big file
dump_modify ens sort 1 #sorting the dump by the 1st column of data ie the id
dump_modify ens element H Si

# variable max_pace_gamma equal c_gamma_ave
# fix extreme_extrapolation all halt 10 v_max_pace_gamma > 25

minimize 0 1.0e-6 1000 100000

CITE-CITE-CITE-CITE-CITE-CITE-CITE-CITE-CITE-CITE-CITE-CITE-CITE

Your simulation uses code contributions which should be cited:

- Type Label Framework: https://doi.org/10.1021/acs.jpcb.3c08419

@Article{Gissinger24,
 author = {Jacob R. Gissinger, Ilia Nikiforov, Yaser Afshar, Brendon Waters, Moon-ki Choi, Daniel S. Karls, Alexander Stukowski, Wonpil Im, Hendrik Heinz, Axel Kohlmeyer, and Ellad B. Tadmor},
 title = {Type Label Framework for Bonded Force Fields in LAMMPS},
 journal = {J. Phys. Chem. B},
 year =    2024,
 volume =  128,
 number =  13,
 pages =   {3282--3297}
}

CITE-CITE-CITE-CITE-CITE-CITE-CITE-CITE-CITE-CITE-CITE-CITE-CITE

Neighbor list info ...
  update: every = 1 steps, delay = 0 steps, check = yes
  max neighbors/atom: 2000, page size: 100000
  master list distance cutoff = 8.4
  ghost atom cutoff = 8.4
  binsize = 4.2, bins = 6 6 6
  1 neighbor lists, perpetual/occasional/extra = 1 0 0
  (1) pair pace, perpetual
      attributes: full, newton on
      pair build: full/bin/atomonly
      stencil: full/bin/3d
      bin: standard
Per MPI rank memory allocation (min/avg/max) = 4.759 | 4.76 | 4.761 Mbytes
   Step          CPU            Temp        f_TempAve        Press        f_PressAve      f_PEAve         Volume         f_vAve        c_MSD[4]   
         0   0              0              0              307480.89      0              0              10233.78       0              0            
       161   29.571139      0              0              51211.739      0              0              10233.78       0              1.1375132    
Loop time of 29.5731 on 16 procs for 161 steps with 1000 atoms

82.7% CPU use with 16 MPI tasks x 1 OpenMP threads

Minimization stats:
  Stopping criterion = linesearch alpha is zero
  Energy initial, next-to-last, final = 
     -3346.91000461819  -4510.18275451606  -4510.18275451606
  Force two-norm initial, final = 203.9002 50.564542
  Force max component initial, final = 20.565666 22.493362
  Final line search alpha, max atom move = 4.1053868e-12 9.2343949e-11
  Iterations, force evaluations = 161 594

MPI task timing breakdown:
Section |  min time  |  avg time  |  max time  |%varavg| %total
---------------------------------------------------------------
Pair    | 19.389     | 21.656     | 29.053     |  46.7 | 73.23
Neigh   | 0.0036113  | 0.003832   | 0.0040735  |   0.2 |  0.01
Comm    | 0.4732     | 7.8699     | 10.137     |  77.5 | 26.61
Output  | 0          | 0          | 0          |   0.0 |  0.00
Modify  | 0          | 0          | 0          |   0.0 |  0.00
Other   |            | 0.04365    |            |       |  0.15

Nlocal:           62.5 ave          83 max          56 min
Histogram: 3 4 6 1 1 0 0 0 0 1
Nghost:        1607.69 ave        1641 max        1575 min
Histogram: 1 0 3 2 4 2 0 1 1 2
Neighs:              0 ave           0 max           0 min
Histogram: 16 0 0 0 0 0 0 0 0 0
FullNghs:      15118.8 ave       21262 max       13511 min
Histogram: 6 4 4 1 0 0 0 0 0 1

Total # of neighbors = 241900
Ave neighs/atom = 241.9
Neighbor list builds = 8
Dangerous builds = 0

velocity all create ${t_anneal} ${rand}
velocity all create 2000 ${rand}
velocity all create 2000 102402322

fix integrate all nvt temp ${t_anneal} ${t_anneal} $(100.0*dt) #iso 0.0 0.0 $(1000.0*dt)
fix integrate all nvt temp 2000 ${t_anneal} $(100.0*dt) 
fix integrate all nvt temp 2000 2000 $(100.0*dt) 
fix integrate all nvt temp 2000 2000 0.010000000000000000208 
run ${anneal_timesteps}
run 1000000
Per MPI rank memory allocation (min/avg/max) = 5.02 | 5.021 | 5.022 Mbytes
   Step          CPU            Temp        f_TempAve        Press        f_PressAve      f_PEAve         Volume         f_vAve        c_MSD[4]   
       161   0              2000           0              78166.975      0              0              10233.78       0              1.1375132    
ERROR: Lost atoms: original 1000 current 987
For more information see https://docs.lammps.org/err0008 (src/thermo.cpp:518)

units metal
atom_style atomic

read_data ${data_file}
read_data /u/vld/spet5633/Silicon/a-Si_potential/DFT_1200eV/Testing/Paper/l-SiH/1,000_structures/NVT_2.58/Hconc-45/4/SiH.data
Reading data file ...
  orthogonal box = (0 0 0) to (21.710943 21.710943 21.710943)
  2 by 2 by 4 MPI processor grid
  reading atoms ...
  1000 atoms
  read_data CPU = 0.007 seconds
# reset_timestep 0

mass 2 28.0855
mass 1 1.00784

labelmap atom 2 Si 1 H

pair_style  pace
ACE version: 2023.11.25
Recursive evaluator is used
pair_coeff  * * ${yacepot} H Si
pair_coeff  * * /u/vld/spet5633/Silicon/a-Si_potential/DFT_1200eV/Testing/Ites/Ite_6.8_kappa_auto_10/output_potential_tuned_repulsion_vHH_vSiH.yaml H Si
Loading /u/vld/spet5633/Silicon/a-Si_potential/DFT_1200eV/Testing/Ites/Ite_6.8_kappa_auto_10/output_potential_tuned_repulsion_vHH_vSiH.yaml
Total number of basis functions
	H: 26 (r=1) 1352 (r>1)
	Si: 28 (r=1) 2101 (r>1)
Mapping LAMMPS atom type #1(H) -> ACE species type #0
Mapping LAMMPS atom type #2(Si) -> ACE species type #1


neighbor 2.0 bin #default bin value for unit style (ie. metal)
neigh_modify every 1 delay 0 check yes #rebuild the neighbor list at every timestep

variable Nfreq equal 1000
variable Nprint equal 1000
variable Nevery equal 1000
variable Nrepeat equal ${Nfreq}/${Nevery}
variable Nrepeat equal 1000/${Nevery}
variable Nrepeat equal 1000/1000
variable Ndump equal ${ndump}
variable Ndump equal 10000
#variable nAtoms equal atoms
#variable Nrestart equal ${quench_timesteps}/15

timestep 0.0001

fix removeMomentum all momentum 1 linear 1 1 1

compute T all temp
fix TempAve all ave/time ${Nevery} ${Nrepeat} ${Nfreq} c_T
fix TempAve all ave/time 1000 ${Nrepeat} ${Nfreq} c_T
fix TempAve all ave/time 1000 1 ${Nfreq} c_T
fix TempAve all ave/time 1000 1 1000 c_T

variable P equal press
fix PressAve all ave/time ${Nevery} ${Nrepeat} ${Nfreq} v_P
fix PressAve all ave/time 1000 ${Nrepeat} ${Nfreq} v_P
fix PressAve all ave/time 1000 1 ${Nfreq} v_P
fix PressAve all ave/time 1000 1 1000 v_P

variable v equal vol
fix vAve all ave/time ${Nevery} ${Nrepeat} ${Nfreq} v_v
fix vAve all ave/time 1000 ${Nrepeat} ${Nfreq} v_v
fix vAve all ave/time 1000 1 ${Nfreq} v_v
fix vAve all ave/time 1000 1 1000 v_v

compute PE all pe pair
fix PEAve all ave/time ${Nevery} ${Nrepeat} ${Nfreq} c_PE
fix PEAve all ave/time 1000 ${Nrepeat} ${Nfreq} c_PE
fix PEAve all ave/time 1000 1 ${Nfreq} c_PE
fix PEAve all ave/time 1000 1 1000 c_PE
compute PEa all pe/atom pair

compute MSD all msd

thermo_style custom step cpu temp f_TempAve press f_PressAve f_PEAve vol f_vAve c_MSD[4]
thermo_modify flush yes
thermo ${Nfreq}
thermo 1000


######### Extrapolation grade check for >5  #########
# fix pace_gamma_1 all pair 100 pace/extrapolation gamma 1 # compute per-atom extrapolation grade every 10 steps
# compute gamma_ave all reduce ave f_pace_gamma_1 # compute average gamma
# compute max_pace_gamma_1 all reduce max f_pace_gamma_1 # compute maximum extrapolation grade over complete structure
# dump extrapolative structures if c_max_pace_gamma > 5, skip otherwise, check every 20 steps
# variable dump_skip equal "c_max_pace_gamma_1 < 5"
# dump pace_dump all custom 100 ${rundir}/out_str/extrapolative_structures.dump id element x y z# f_pace_gamma_1
# dump_modify pace_dump skip v_dump_skip
# dump_modify pace_dump element H Si


######### Dumping  #########
# fix pace_gamma_reg all pair ${Ndump} pace/extrapolation gamma 1 # compute per-atom extrapolation grade every 10 steps
dump ens all custom ${Ndump} ${rundir}/NPT/dump_custom_pace id element x y z fx fy fz c_PEa #f_pace_gamma_reg
dump ens all custom 10000 ${rundir}/NPT/dump_custom_pace id element x y z fx fy fz c_PEa 
dump ens all custom 10000 /u/vld/spet5633/Silicon/a-Si_potential/DFT_1200eV/Testing/Paper/l-SiH/1,000_structures/NVT_2.58/Hconc-45/4/NPT/dump_custom_pace id element x y z fx fy fz c_PEa 
#difference between dump ens and dump sep is that dump sep has a .dat file for each timestep vs ens is 1 big file
dump_modify ens sort 1 #sorting the dump by the 1st column of data ie the id
dump_modify ens element H Si

# variable max_pace_gamma equal c_gamma_ave
# fix extreme_extrapolation all halt 10 v_max_pace_gamma > 25

minimize 0 1.0e-6 1000 100000

CITE-CITE-CITE-CITE-CITE-CITE-CITE-CITE-CITE-CITE-CITE-CITE-CITE

Your simulation uses code contributions which should be cited:

- Type Label Framework: https://doi.org/10.1021/acs.jpcb.3c08419

@Article{Gissinger24,
 author = {Jacob R. Gissinger, Ilia Nikiforov, Yaser Afshar, Brendon Waters, Moon-ki Choi, Daniel S. Karls, Alexander Stukowski, Wonpil Im, Hendrik Heinz, Axel Kohlmeyer, and Ellad B. Tadmor},
 title = {Type Label Framework for Bonded Force Fields in LAMMPS},
 journal = {J. Phys. Chem. B},
 year =    2024,
 volume =  128,
 number =  13,
 pages =   {3282--3297}
}

CITE-CITE-CITE-CITE-CITE-CITE-CITE-CITE-CITE-CITE-CITE-CITE-CITE

Neighbor list info ...
  update: every = 1 steps, delay = 0 steps, check = yes
  max neighbors/atom: 2000, page size: 100000
  master list distance cutoff = 8.4
  ghost atom cutoff = 8.4
  binsize = 4.2, bins = 6 6 6
  1 neighbor lists, perpetual/occasional/extra = 1 0 0
  (1) pair pace, perpetual
      attributes: full, newton on
      pair build: full/bin/atomonly
      stencil: full/bin/3d
      bin: standard
Per MPI rank memory allocation (min/avg/max) = 4.759 | 4.76 | 4.761 Mbytes
   Step          CPU            Temp        f_TempAve        Press        f_PressAve      f_PEAve         Volume         f_vAve        c_MSD[4]   
         0   0              0              0              307480.89      0              0              10233.78       0              0            
       161   24.980369      0              0              51211.739      0              0              10233.78       0              1.1375132    
Loop time of 24.982 on 16 procs for 161 steps with 1000 atoms

81.9% CPU use with 16 MPI tasks x 1 OpenMP threads

Minimization stats:
  Stopping criterion = linesearch alpha is zero
  Energy initial, next-to-last, final = 
     -3346.91000461819  -4510.18275451606  -4510.18275451606
  Force two-norm initial, final = 203.9002 50.564542
  Force max component initial, final = 20.565666 22.493362
  Final line search alpha, max atom move = 4.1053868e-12 9.2343949e-11
  Iterations, force evaluations = 161 594

MPI task timing breakdown:
Section |  min time  |  avg time  |  max time  |%varavg| %total
---------------------------------------------------------------
Pair    | 16.286     | 17.94      | 24.549     |  44.5 | 71.81
Neigh   | 0.002879   | 0.0030749  | 0.003439   |   0.3 |  0.01
Comm    | 0.4054     | 7.0118     | 8.6692     |  71.2 | 28.07
Output  | 0          | 0          | 0          |   0.0 |  0.00
Modify  | 0          | 0          | 0          |   0.0 |  0.00
Other   |            | 0.0276     |            |       |  0.11

Nlocal:           62.5 ave          83 max          56 min
Histogram: 3 4 6 1 1 0 0 0 0 1
Nghost:        1607.69 ave        1641 max        1575 min
Histogram: 1 0 3 2 4 2 0 1 1 2
Neighs:              0 ave           0 max           0 min
Histogram: 16 0 0 0 0 0 0 0 0 0
FullNghs:      15118.8 ave       21262 max       13511 min
Histogram: 6 4 4 1 0 0 0 0 0 1

Total # of neighbors = 241900
Ave neighs/atom = 241.9
Neighbor list builds = 8
Dangerous builds = 0

velocity all create ${t_anneal} ${rand}
velocity all create 2000 ${rand}
velocity all create 2000 2146109366

fix integrate all nvt temp ${t_anneal} ${t_anneal} $(100.0*dt) #iso 0.0 0.0 $(1000.0*dt)
fix integrate all nvt temp 2000 ${t_anneal} $(100.0*dt) 
fix integrate all nvt temp 2000 2000 $(100.0*dt) 
fix integrate all nvt temp 2000 2000 0.010000000000000000208 
run ${anneal_timesteps}
run 1000000
Per MPI rank memory allocation (min/avg/max) = 5.02 | 5.021 | 5.022 Mbytes
   Step          CPU            Temp        f_TempAve        Press        f_PressAve      f_PEAve         Volume         f_vAve        c_MSD[4]   
       161   0              2000           0              78166.975      0              0              10233.78       0              1.1375132    
      1000   35.21099       22004.961      22004.961      108710.01      108710.01     -4556.4985      10233.78       10233.78       32.489006    
      2000   78.064068      133669.52      133669.52     -1038219.1     -1038219.1     -8780.879       10233.78       10233.78       47.688686    
      3000   120.42441      999.12485      999.12485     -7935.6472     -7935.6472     -4148.3964      10233.78       10233.78       55.06898     
      4000   156.27664      956.33992      956.33992      178695         178695        -4093.7004      10233.78       10233.78       57.842119    
      5000   192.71491      1910.4251      1910.4251      154182.24      154182.24     -4058.2803      10233.78       10233.78       58.971473    
      6000   229.4386       2005.4486      2005.4486      147020.94      147020.94     -4066.3876      10233.78       10233.78       62.183758    
      7000   264.2152       1923.4285      1923.4285      129118.75      129118.75     -4066.1014      10233.78       10233.78       66.393513    
      8000   297.96159      2035.2444      2035.2444      136014.14      136014.14     -4057.77        10233.78       10233.78       69.84698     
      9000   331.34143      2015.8661      2015.8661      140930.51      140930.51     -4073.9313      10233.78       10233.78       72.980274    
     10000   364.40428      2059.7211      2059.7211      122775.66      122775.66     -4058.4858      10233.78       10233.78       76.175378    
     11000   397.63458      1971.7799      1971.7799      131975.05      131975.05     -4060.5965      10233.78       10233.78       80.967162    
     12000   430.37671      2063.6965      2063.6965      132991.96      132991.96     -4062.2447      10233.78       10233.78       83.758088    
     13000   463.02238      2046.2102      2046.2102      117814.69      117814.69     -4055.9269      10233.78       10233.78       88.052773    
     14000   494.85628      1982.3724      1982.3724      131648.37      131648.37     -4060.6535      10233.78       10233.78       92.375556    
     15000   526.8087       2026.9285      2026.9285      127277.64      127277.64     -4062.6262      10233.78       10233.78       95.670562    
     16000   558.80846      2049.886       2049.886       143081.86      143081.86     -4062.8875      10233.78       10233.78       100.64054    
     17000   592.07396      1926.3201      1926.3201      132755.32      132755.32     -4069.9977      10233.78       10233.78       104.45639    
     18000   625.13216      2112.9115      2112.9115      136857.38      136857.38     -4068.2371      10233.78       10233.78       108.40888    
     19000   657.7249       2055.4002      2055.4002      132342.7       132342.7      -4067.0113      10233.78       10233.78       113.9036     
     20000   690.54788      2092.4657      2092.4657      126078.88      126078.88     -4060.4492      10233.78       10233.78       117.56154    
     21000   723.48715      1948.6924      1948.6924      137897.29      137897.29     -4065.0865      10233.78       10233.78       119.99526    
     22000   756.98226      1913.4104      1913.4104      130973.9       130973.9      -4077.6241      10233.78       10233.78       122.92144    
     23000   789.46783      3302.4467      3302.4467      911528.19      911528.19     -4578.9671      10233.78       10233.78       126.58517    
     24000   821.68105      286.75921      286.75921      114922.97      114922.97     -4218.4803      10233.78       10233.78       136.83634    
     25000   853.72414      1717.9456      1717.9456      140024.2       140024.2      -4126.4148      10233.78       10233.78       138.20159    
     26000   886.5229       2054.7995      2054.7995      145541.01      145541.01     -4078.5121      10233.78       10233.78       141.20841    
     27000   919.94583      2038.6389      2038.6389      143491.31      143491.31     -4084.7592      10233.78       10233.78       146.536      
     28000   953.0354       2038.283       2038.283       143747.79      143747.79     -4061.1629      10233.78       10233.78       152.10749    
     29000   985.20942      2034.6866      2034.6866      144514.83      144514.83     -4083.7378      10233.78       10233.78       156.44757    
     30000   1018.0197      2015.4465      2015.4465      142012.86      142012.86     -4079.1291      10233.78       10233.78       160.40688    
     31000   1050.6048      1998.8223      1998.8223      136268.98      136268.98     -4073.4088      10233.78       10233.78       163.55715    
     32000   1083.1443      2008.4765      2008.4765      136183.16      136183.16     -4060.9951      10233.78       10233.78       166.83061    
     33000   1115.4461      2053.9396      2053.9396      126625.27      126625.27     -4066.4331      10233.78       10233.78       171.41879    
     34000   1148.9427      2049.501       2049.501       146675.65      146675.65     -4062.0413      10233.78       10233.78       174.52116    
     35000   1181.6094      1940.3013      1940.3013      138898.9       138898.9      -4073.2886      10233.78       10233.78       178.18451    
     36000   1214.6577      2179.6063      2179.6063      141527.24      141527.24     -4077.3887      10233.78       10233.78       183.71294    
     37000   1248.0528      2072.5107      2072.5107      143431.88      143431.88     -4064.1069      10233.78       10233.78       189.29883    
     38000   1280.866       2039.1745      2039.1745      116716.69      116716.69     -4068.5394      10233.78       10233.78       193.22378    
     39000   1313.3204      2014.3173      2014.3173      116817.63      116817.63     -4070.6594      10233.78       10233.78       199.76478    
     40000   1345.4584      1924.8272      1924.8272      147720.89      147720.89     -4068.4762      10233.78       10233.78       202.20022    
     41000   1377.639       1930.4336      1930.4336      128485.79      128485.79     -4071.5354      10233.78       10233.78       206.0114     
     42000   1410.4329      2047.5935      2047.5935      139702.76      139702.76     -4072.6082      10233.78       10233.78       211.29815    
     43000   1443.1869      2079.3849      2079.3849      130218.39      130218.39     -4069.2045      10233.78       10233.78       215.31432    
     44000   1475.5436      2013.886       2013.886       140655.4       140655.4      -4077.6364      10233.78       10233.78       218.2333     
     45000   1508.3131      1981.3887      1981.3887      149783.47      149783.47     -4060.3067      10233.78       10233.78       221.44873    
     46000   1540.9576      2005.5489      2005.5489      137093.22      137093.22     -4074.9464      10233.78       10233.78       225.12094    
     47000   1573.5554      2050.2094      2050.2094      138599.69      138599.69     -4066.3416      10233.78       10233.78       227.98398    
     48000   1606.1606      1985.156       1985.156       147431.65      147431.65     -4077.2412      10233.78       10233.78       232.73656    
     49000   1638.0108      1905.5709      1905.5709      133344.06      133344.06     -4077.6122      10233.78       10233.78       234.90572    
     50000   1671.1         1981.3706      1981.3706      130889.9       130889.9      -4067.7236      10233.78       10233.78       239.74916    
     51000   1703.9275      1955.5598      1955.5598      135827.88      135827.88     -4065.7228      10233.78       10233.78       245.42524    
     52000   1736.3346      1957.092       1957.092       114286.18      114286.18     -4073.7652      10233.78       10233.78       249.9939     
     53000   1769.3631      2049.1244      2049.1244      141514.77      141514.77     -4071.7759      10233.78       10233.78       254.21448    
     54000   1802.8189      1961.0538      1961.0538      122224.23      122224.23     -4070.0842      10233.78       10233.78       258.79768    
     55000   1837.2444      1956.2588      1956.2588      98554.028      98554.028     -4068.6118      10233.78       10233.78       261.06872    
     56000   1870.1195      1945.3363      1945.3363      120944.94      120944.94     -4071.5133      10233.78       10233.78       266.21138    
     57000   1902.6648      1953.749       1953.749       138808.53      138808.53     -4061.9816      10233.78       10233.78       269.71422    
     58000   1934.9461      2039.169       2039.169       124682.19      124682.19     -4071.5248      10233.78       10233.78       273.90454    
     59000   1967.6296      2075.4333      2075.4333      138205.61      138205.61     -4077.018       10233.78       10233.78       279.74492    
     60000   2000.9468      2040.0653      2040.0653      143380.61      143380.61     -4075.2409      10233.78       10233.78       283.61393    
     61000   2032.8467      1976.3121      1976.3121      132005.25      132005.25     -4070.601       10233.78       10233.78       286.60192    
     62000   2064.7005      1995.9626      1995.9626      139687.82      139687.82     -4077.8056      10233.78       10233.78       290.93408    
     63000   2096.7414      1916.9864      1916.9864      134286.57      134286.57     -4074.827       10233.78       10233.78       293.98725    
     64000   2129.6032      1873.3704      1873.3704      131358.68      131358.68     -4071.3311      10233.78       10233.78       296.85984    
     65000   2162.2929      2060.8707      2060.8707      131571.11      131571.11     -4072.6112      10233.78       10233.78       299.79198    
     66000   2194.6823      2005.3637      2005.3637      139418.47      139418.47     -4068.1997      10233.78       10233.78       302.77909    
     67000   2226.1484      1899.7554      1899.7554      124788.08      124788.08     -4064.7453      10233.78       10233.78       306.41247    
     68000   2257.7637      2033.7971      2033.7971      136061.43      136061.43     -4061.1352      10233.78       10233.78       307.44052    
     69000   2289.6489      1987.6699      1987.6699      144455.48      144455.48     -4067.2135      10233.78       10233.78       311.17745    
     70000   2321.5121      2022.4028      2022.4028      145597         145597        -4071.6786      10233.78       10233.78       313.83317    
     71000   2354.1977      2070.9862      2070.9862      137767.94      137767.94     -4064.162       10233.78       10233.78       317.70568    
     72000   2386.0131      1981.805       1981.805       147543.29      147543.29     -4066.0034      10233.78       10233.78       319.70081    
     73000   2418.9448      2034.3132      2034.3132      133719.16      133719.16     -4067.1383      10233.78       10233.78       322.71539    
     74000   2451.4896      2058.5984      2058.5984      144096.36      144096.36     -4059.2901      10233.78       10233.78       325.61879    
     75000   2484.024       2044.7783      2044.7783      135419.02      135419.02     -4075.0756      10233.78       10233.78       327.52995    
     76000   2516.449       1935.7477      1935.7477      126651.9       126651.9      -4069.7629      10233.78       10233.78       330.5259     
     77000   2548.4756      2083.5631      2083.5631      158279.33      158279.33     -4067.388       10233.78       10233.78       336.51078    
     78000   2580.7018      2012.7425      2012.7425      137790.56      137790.56     -4065.8441      10233.78       10233.78       341.09397    
     79000   2612.9954      1988.9708      1988.9708      136703.98      136703.98     -4061.9977      10233.78       10233.78       342.82144    
     80000   2645.0929      1999.0158      1999.0158      126082.9       126082.9      -4063.0039      10233.78       10233.78       344.2518     
     81000   2676.9107      1975.5512      1975.5512      138117.25      138117.25     -4080.1144      10233.78       10233.78       349.0634     
     82000   2709.3924      1980.9998      1980.9998      146512.92      146512.92     -4062.0209      10233.78       10233.78       353.41523    
     83000   2742.0923      1922.4246      1922.4246      135923.14      135923.14     -4066.2902      10233.78       10233.78       356.56078    
     84000   2774.2697      2063.6727      2063.6727      148083         148083        -4061.656       10233.78       10233.78       361.99493    
     85000   2807.5683      2006.4173      2006.4173      134851.26      134851.26     -4062.5371      10233.78       10233.78       368.58963    
     86000   2839.8518      2030.0769      2030.0769      126572.82      126572.82     -4073.3759      10233.78       10233.78       371.11178    
     87000   2873.5455      1968.6208      1968.6208      127860.35      127860.35     -4068.1272      10233.78       10233.78       374.57388    
     88000   2905.8508      2038.7051      2038.7051      131402.7       131402.7      -4061.6425      10233.78       10233.78       376.60512    
     89000   2938.2754      1966.1872      1966.1872      134960.57      134960.57     -4071.9131      10233.78       10233.78       381.27172    
     90000   2969.9244      2003.9873      2003.9873      134303.93      134303.93     -4076.1464      10233.78       10233.78       384.77204    
     91000   3002.2979      1999.5188      1999.5188      122520.05      122520.05     -4078.9885      10233.78       10233.78       388.39939    
     92000   3035.512       2043.6949      2043.6949      132707.12      132707.12     -4064.9629      10233.78       10233.78       391.2341     
     93000   3068.0351      1942.5441      1942.5441      122520.32      122520.32     -4072.6674      10233.78       10233.78       394.57994    
     94000   3099.6747      2019.2703      2019.2703      126576.77      126576.77     -4073.1932      10233.78       10233.78       397.82271    
     95000   3132.372       1931.7758      1931.7758      140795.04      140795.04     -4070.7965      10233.78       10233.78       403.87261    
     96000   3165.006       2057.7472      2057.7472      137234.06      137234.06     -4065.314       10233.78       10233.78       407.28087    
     97000   3196.743       2003.3529      2003.3529      128217.81      128217.81     -4070.6519      10233.78       10233.78       412.22435    
     98000   3228.8529      2044.8567      2044.8567      138387.9       138387.9      -4072.1255      10233.78       10233.78       416.49952    
     99000   3260.7686      1978.4836      1978.4836      146124.5       146124.5      -4071.0103      10233.78       10233.78       418.84955    
    100000   3293.9685      1867.8669      1867.8669      132148.6       132148.6      -4072.8988      10233.78       10233.78       424.66457    
    101000   3326.4613      1952.6736      1952.6736      138259.62      138259.62     -4077.8802      10233.78       10233.78       427.58012    
    102000   3358.5105      2048.9683      2048.9683      140191.5       140191.5      -4068.058       10233.78       10233.78       432.38724    
    103000   3390.775       2038.3374      2038.3374      135094.97      135094.97     -4067.4529      10233.78       10233.78       435.38843    
    104000   3423.0276      1960.0458      1960.0458      127842.36      127842.36     -4076.37        10233.78       10233.78       441.43289    
    105000   3456.1319      2021.074       2021.074       133728.35      133728.35     -4062.1709      10233.78       10233.78       444.60801    
    106000   3489.0244      2055.6962      2055.6962      135423.92      135423.92     -4071.6824      10233.78       10233.78       445.88088    
    107000   3521.1047      2024.3042      2024.3042      138766.76      138766.76     -4061.5869      10233.78       10233.78       453.05246    
    108000   3553.7753      2052.8448      2052.8448      135611.34      135611.34     -4066.8063      10233.78       10233.78       455.6523     
    109000   3586.7536      1944.3033      1944.3033      145612.15      145612.15     -4070.0859      10233.78       10233.78       458.61425    
    110000   3619.352       1988.4173      1988.4173      130383.45      130383.45     -4074.4153      10233.78       10233.78       463.05309    
    111000   3651.2972      1964.9396      1964.9396      132633.65      132633.65     -4074.8983      10233.78       10233.78       467.66264    
    112000   3683.818       2017.2458      2017.2458      148971.75      148971.75     -4072.6218      10233.78       10233.78       471.3619     
ures/NVT_2.58/Hconc-45/4/SiH.data
Reading data file ...
  orthogonal box = (0 0 0) to (21.710943 21.710943 21.710943)
  2 by 2 by 4 MPI processor grid
  reading atoms ...
  1000 atoms
  read_data CPU = 0.017 seconds
# reset_timestep 0

mass 2 28.0855
mass 1 1.00784

labelmap atom 2 Si 1 H

pair_style  pace
ACE version: 2023.11.25
Recursive evaluator is used
pair_coeff  * * ${yacepot} H Si
pair_coeff  * * /u/vld/spet5633/Silicon/a-Si_potential/DFT_1200eV/Testing/Ites/Ite_6.8_kappa_auto_10/output_potential_tuned_repulsion_vHH_vSiH.yaml H Si
Loading /u/vld/spet5633/Silicon/a-Si_potential/DFT_1200eV/Testing/Ites/Ite_6.8_kappa_auto_10/output_potential_tuned_repulsion_vHH_vSiH.yaml
Total number of basis functions
	H: 26 (r=1) 1352 (r>1)
	Si: 28 (r=1) 2101 (r>1)
Mapping LAMMPS atom type #1(H) -> ACE species type #0
Mapping LAMMPS atom type #2(Si) -> ACE species type #1


neighbor 2.0 bin #default bin value for unit style (ie. metal)
neigh_modify every 1 delay 0 check yes #rebuild the neighbor list at every timestep

variable Nfreq equal 1000
variable Nprint equal 1000
variable Nevery equal 1000
variable Nrepeat equal ${Nfreq}/${Nevery}
variable Nrepeat equal 1000/${Nevery}
variable Nrepeat equal 1000/1000
variable Ndump equal ${ndump}
variable Ndump equal 10000
#variable nAtoms equal atoms
#variable Nrestart equal ${quench_timesteps}/15

timestep 0.0001

fix removeMomentum all momentum 1 linear 1 1 1

compute T all temp
fix TempAve all ave/time ${Nevery} ${Nrepeat} ${Nfreq} c_T
fix TempAve all ave/time 1000 ${Nrepeat} ${Nfreq} c_T
fix TempAve all ave/time 1000 1 ${Nfreq} c_T
fix TempAve all ave/time 1000 1 1000 c_T

variable P equal press
fix PressAve all ave/time ${Nevery} ${Nrepeat} ${Nfreq} v_P
fix PressAve all ave/time 1000 ${Nrepeat} ${Nfreq} v_P
fix PressAve all ave/time 1000 1 ${Nfreq} v_P
fix PressAve all ave/time 1000 1 1000 v_P

variable v equal vol
fix vAve all ave/time ${Nevery} ${Nrepeat} ${Nfreq} v_v
fix vAve all ave/time 1000 ${Nrepeat} ${Nfreq} v_v
fix vAve all ave/time 1000 1 ${Nfreq} v_v
fix vAve all ave/time 1000 1 1000 v_v

compute PE all pe pair
fix PEAve all ave/time ${Nevery} ${Nrepeat} ${Nfreq} c_PE
fix PEAve all ave/time 1000 ${Nrepeat} ${Nfreq} c_PE
fix PEAve all ave/time 1000 1 ${Nfreq} c_PE
fix PEAve all ave/time 1000 1 1000 c_PE
compute PEa all pe/atom pair

compute MSD all msd

thermo_style custom step cpu temp f_TempAve press f_PressAve f_PEAve vol f_vAve c_MSD[4]
thermo_modify flush yes
thermo ${Nfreq}
thermo 1000


######### Extrapolation grade check for >5  #########
# fix pace_gamma_1 all pair 100 pace/extrapolation gamma 1 # compute per-atom extrapolation grade every 10 steps
# compute gamma_ave all reduce ave f_pace_gamma_1 # compute average gamma
# compute max_pace_gamma_1 all reduce max f_pace_gamma_1 # compute maximum extrapolation grade over complete structure
# dump extrapolative structures if c_max_pace_gamma > 5, skip otherwise, check every 20 steps
# variable dump_skip equal "c_max_pace_gamma_1 < 5"
# dump pace_dump all custom 100 ${rundir}/out_str/extrapolative_structures.dump id element x y z# f_pace_gamma_1
# dump_modify pace_dump skip v_dump_skip
# dump_modify pace_dump element H Si


######### Dumping  #########
# fix pace_gamma_reg all pair ${Ndump} pace/extrapolation gamma 1 # compute per-atom extrapolation grade every 10 steps
dump ens all custom ${Ndump} ${rundir}/NPT/dump_custom_pace id element x y z fx fy fz c_PEa #f_pace_gamma_reg
dump ens all custom 10000 ${rundir}/NPT/dump_custom_pace id element x y z fx fy fz c_PEa 
dump ens all custom 10000 /u/vld/spet5633/Silicon/a-Si_potential/DFT_1200eV/Testing/Paper/l-SiH/1,000_structures/NVT_2.58/Hconc-45/4/NPT/dump_custom_pace id element x y z fx fy fz c_PEa 
#difference between dump ens and dump sep is that dump sep has a .dat file for each timestep vs ens is 1 big file
dump_modify ens sort 1 #sorting the dump by the 1st column of data ie the id
dump_modify ens element H Si

# variable max_pace_gamma equal c_gamma_ave
# fix extreme_extrapolation all halt 10 v_max_pace_gamma > 25

minimize 0 1.0e-6 1000 100000

CITE-CITE-CITE-CITE-CITE-CITE-CITE-CITE-CITE-CITE-CITE-CITE-CITE

Your simulation uses code contributions which should be cited:

- Type Label Framework: https://doi.org/10.1021/acs.jpcb.3c08419

@Article{Gissinger24,
 author = {Jacob R. Gissinger, Ilia Nikiforov, Yaser Afshar, Brendon Waters, Moon-ki Choi, Daniel S. Karls, Alexander Stukowski, Wonpil Im, Hendrik Heinz, Axel Kohlmeyer, and Ellad B. Tadmor},
 title = {Type Label Framework for Bonded Force Fields in LAMMPS},
 journal = {J. Phys. Chem. B},
 year =    2024,
 volume =  128,
 number =  13,
 pages =   {3282--3297}
}

CITE-CITE-CITE-CITE-CITE-CITE-CITE-CITE-CITE-CITE-CITE-CITE-CITE

Neighbor list info ...
  update: every = 1 steps, delay = 0 steps, check = yes
  max neighbors/atom: 2000, page size: 100000
  master list distance cutoff = 8.4
  ghost atom cutoff = 8.4
  binsize = 4.2, bins = 6 6 6
  1 neighbor lists, perpetual/occasional/extra = 1 0 0
  (1) pair pace, perpetual
      attributes: full, newton on
      pair build: full/bin/atomonly
      stencil: full/bin/3d
      bin: standard
Per MPI rank memory allocation (min/avg/max) = 4.759 | 4.76 | 4.761 Mbytes
   Step          CPU            Temp        f_TempAve        Press        f_PressAve      f_PEAve         Volume         f_vAve        c_MSD[4]   
         0   0              0              0              307480.89      0              0              10233.78       0              0            
       161   29.136178      0              0              51211.739      0              0              10233.78       0              1.1375132    
Loop time of 29.1384 on 16 procs for 161 steps with 1000 atoms

82.8% CPU use with 16 MPI tasks x 1 OpenMP threads

Minimization stats:
  Stopping criterion = linesearch alpha is zero
  Energy initial, next-to-last, final = 
     -3346.91000461819  -4510.18275451606  -4510.18275451606
  Force two-norm initial, final = 203.9002 50.564542
  Force max component initial, final = 20.565666 22.493362
  Final line search alpha, max atom move = 4.1053868e-12 9.2343949e-11
  Iterations, force evaluations = 161 594

MPI task timing breakdown:
Section |  min time  |  avg time  |  max time  |%varavg| %total
---------------------------------------------------------------
Pair    | 19.094     | 21.401     | 28.55      |  45.9 | 73.44
Neigh   | 0.0036054  | 0.0037792  | 0.003947   |   0.2 |  0.01
Comm    | 0.53482    | 7.6878     | 9.9917     |  76.6 | 26.38
Output  | 0          | 0          | 0          |   0.0 |  0.00
Modify  | 0          | 0          | 0          |   0.0 |  0.00
Other   |            | 0.04623    |            |       |  0.16

Nlocal:           62.5 ave          83 max          56 min
Histogram: 3 4 6 1 1 0 0 0 0 1
Nghost:        1607.69 ave        1641 max        1575 min
Histogram: 1 0 3 2 4 2 0 1 1 2
Neighs:              0 ave           0 max           0 min
Histogram: 16 0 0 0 0 0 0 0 0 0
FullNghs:      15118.8 ave       21262 max       13511 min
Histogram: 6 4 4 1 0 0 0 0 0 1

Total # of neighbors = 241900
Ave neighs/atom = 241.9
Neighbor list builds = 8
Dangerous builds = 0

velocity all create ${t_anneal} ${rand}
velocity all create 2000 ${rand}
velocity all create 2000 539799825

fix integrate all nvt temp ${t_anneal} ${t_anneal} $(100.0*dt) #iso 0.0 0.0 $(1000.0*dt)
fix integrate all nvt temp 2000 ${t_anneal} $(100.0*dt) 
fix integrate all nvt temp 2000 2000 $(100.0*dt) 
fix integrate all nvt temp 2000 2000 0.010000000000000000208 
run ${anneal_timesteps}
run 1000000
Per MPI rank memory allocation (min/avg/max) = 5.02 | 5.021 | 5.022 Mbytes
   Step          CPU            Temp        f_TempAve        Press        f_PressAve      f_PEAve         Volume         f_vAve        c_MSD[4]   
       161   0              2000           0              78166.975      0              0              10233.78       0              1.1375132    
                                                                                                                                                       115000   3781.5655      1993.1792      1993.1792      133131.61      133131.61     -4075.8853      10233.78       10233.78       478.4572     
    116000   3813.7613      1967.6589      1967.6589      136027.08      136027.08     -4069.9654      10233.78       10233.78       483.02673    
    117000   3846.4738      2013.6518      2013.6518      138054.87      138054.87     -4074.995       10233.78       10233.78       486.6906     
    118000   3878.9336      1981.8652      1981.8652      123188.43      123188.43     -4078.6484      10233.78       10233.78       489.54309    
    119000   3912.4403      2014.742       2014.742       132754.85      132754.85     -4073.4869      10233.78       10233.78       493.90794    
    120000   3946.7175      1943.6861      1943.6861      117957.07      117957.07     -4096.6596      10233.78       10233.78       497.15819    
    121000   3979.2844      2038.8678      2038.8678      145571.39      145571.39     -4096.4154      10233.78       10233.78       502.18455    
    122000   4011.949       1997.7195      1997.7195      145177.75      145177.75     -4085.5739      10233.78       10233.78       507.76676    
    123000   4044.5034      1984.8287      1984.8287      134322.58      134322.58     -4083.5515      10233.78       10233.78       510.50355    
    124000   4076.5978      2078.6822      2078.6822      147949.68      147949.68     -4086.337       10233.78       10233.78       512.6884     
    125000   4108.8326      1944.3364      1944.3364      144313.75      144313.75     -4091.5923      10233.78       10233.78       513.49301    
    126000   4140.8055      2040.7053      2040.7053      135221.79      135221.79     -4084.1752      10233.78       10233.78       516.40907    
    127000   4173.6429      1955.6759      1955.6759      146692.36      146692.36     -4081.0689      10233.78       10233.78       519.91187    
    128000   4206.1434      2012.5829      2012.5829      119757.1       119757.1      -4077.0209      10233.78       10233.78       523.55773    
    129000   4239.7695      1997.8168      1997.8168      148961.92      148961.92     -4081.817       10233.78       10233.78       529.0196     
    130000   4272.0529      2069.0322      2069.0322      132330.81      132330.81     -4090.7044      10233.78       10233.78       534.5196     
    131000   4304.4939      2057.0132      2057.0132      120535.64      120535.64     -4090.0333      10233.78       10233.78       538.44858    
    132000   4337.3118      1929.9428      1929.9428      132134.9       132134.9      -4081.1419      10233.78       10233.78       542.50219    
    133000   4368.8645      2006.2715      2006.2715      126487.87      126487.87     -4087.6402      10233.78       10233.78       542.69366    
    134000   4400.4509      1943.0361      1943.0361      127838.57      127838.57     -4081.0561      10233.78       10233.78       545.91312    
    135000   4432.1841      2161.4809      2161.4809      135656.07      135656.07     -4086.0951      10233.78       10233.78       549.64853    
    136000   4464.136       2024.316       2024.316       136883.21      136883.21     -4090.0472      10233.78       10233.78       553.2924     
    137000   4495.418       2001.4434      2001.4434      141210.98      141210.98     -4073.4492      10233.78       10233.78       559.18641    
    138000   4528.1468      2043.9025      2043.9025      144937.95      144937.95     -4080.9937      10233.78       10233.78       560.4634     
    139000   4559.8858      2016.1226      2016.1226      140181.77      140181.77     -4077.707       10233.78       10233.78       563.77971    
    140000   4592.1091      2080.6937      2080.6937      141887.77      141887.77     -4071.7794      10233.78       10233.78       567.76508    
    141000   4623.9449      2023.6036      2023.6036      143601.35      143601.35     -4079.9632      10233.78       10233.78       572.32876    
    142000   4655.7164      2003.6667      2003.6667      137380.1       137380.1      -4085.0695      10233.78       10233.78       579.89648    
    143000   4687.6019      2171.9711      2171.9711      125974.04      125974.04     -4083.793       10233.78       10233.78       581.75073    
    144000   4719.9266      2006.7409      2006.7409      133388.7       133388.7      -4087.2465      10233.78       10233.78       583.29715    
    145000   4752.1776      2065.6599      2065.6599      115328.49      115328.49     -4081.2106      10233.78       10233.78       585.97494    
    146000   4784.7464      1960.7246      1960.7246      146579.12      146579.12     -4078.6733      10233.78       10233.78       587.28161    
    147000   4816.1918      2034.9777      2034.9777      148966.23      148966.23     -4074.8929      10233.78       10233.78       587.16786    
    148000   4848.2343      1945.0043      1945.0043      137060.59      137060.59     -4082.6861      10233.78       10233.78       588.07371    
    149000   4879.8461      1890.7828      1890.7828      135073.88      135073.88     -4076.9631      10233.78       10233.78       591.07893    
    150000   4911.8942      1934.7592      1934.7592      118961.48      118961.48     -4082.4419      10233.78       10233.78       594.0326     
    151000   4944.4072      2034.0184      2034.0184      138907.96      138907.96     -4084.4879      10233.78       10233.78       598.88025    
    152000   4977.3634      1975.7964      1975.7964      123615.03      123615.03     -4076.1837      10233.78       10233.78       597.48377    
    153000   5008.5025      1975.2215      1975.2215      147989.35      147989.35     -4084.4445      10233.78       10233.78       597.35983    
    154000   5040.7416      1977.5752      1977.5752      146187.83      146187.83     -4078.0149      10233.78       10233.78       599.52705    
    155000   5073.0579      1964.7961      1964.7961      119883.32      119883.32     -4077.3723      10233.78       10233.78       605.24098    
    156000   5105.9815      1978.238       1978.238       133574.14      133574.14     -4090.4522      10233.78       10233.78       608.4313     
    157000   5138.1666      2058.4275      2058.4275      141153.59      141153.59     -4087.5972      10233.78       10233.78       612.77673    
    158000   5170.1753      1941.3467      1941.3467      130763.58      130763.58     -4074.0177      10233.78       10233.78       616.55292    
    159000   5202.7707      2075.8079      2075.8079      113391.37      113391.37     -4105.2614      10233.78       10233.78       622.46006    
    160000   5235.4292      869.64598      869.64598      135665.85      135665.85     -4188.1766      10233.78       10233.78       641.83695    
    161000   5268.475       1678.2022      1678.2022      182681.38      182681.38     -4107.5946      10233.78       10233.78       642.61112    
    162000   5303.1577      2084.0378      2084.0378      132812.1       132812.1      -4095.553       10233.78       10233.78       644.54209    
    163000   5337.195       1289.7349      1289.7349      232878.5       232878.5      -3908.1633      10233.78       10233.78       682.3298     
    164000   5372.3558      2441.3277      2441.3277      186727.39      186727.39     -4078.2957      10233.78       10233.78       682.048      
    165000   5407.5351      2059.8755      2059.8755      125111.71      125111.71     -4089.8826      10233.78       10233.78       686.20613    
    166000   5440.3285      2016.7055      2016.7055      118895         118895        -4074.0733      10233.78       10233.78       691.19303    
    167000   5472.7315      2071.9999      2071.9999      118421.7       118421.7      -4068.1369      10233.78       10233.78       691.72882    
    168000   5505.0736      1964.8566      1964.8566      66974.082      66974.082     -4059.6924      10233.78       10233.78       697.63724    
    169000   5537.7034      1956.5838      1956.5838      151329.4       151329.4      -4071.3389      10233.78       10233.78       700.28984    
    170000   5569.975       1965.3145      1965.3145      118387.14      118387.14     -4070.9027      10233.78       10233.78       703.07097    
    171000   5602.1994      1905.5095      1905.5095      140109.26      140109.26     -4082.3503      10233.78       10233.78       704.79039    
    172000   5634.2358      2056.0479      2056.0479      117925.69      117925.69     -4069.4645      10233.78       10233.78       707.9066     
    173000   5665.551       2047.1479      2047.1479      102117.31      102117.31     -4069.1873      10233.78       10233.78       712.42795    
    174000   5698.0174      2011.7657      2011.7657      159934.42      159934.42     -4064.5867      10233.78       10233.78       715.72328    
    175000   5730.0342      1928.9678      1928.9678      133376.73      133376.73     -4068.7533      10233.78       10233.78       719.33187    
    176000   5762.6554      1968.1234      1968.1234      122845.52      122845.52     -4073.7344      10233.78       10233.78       720.80352    
    177000   5794.7494      1927.7815      1927.7815      133558.37      133558.37     -4062.5174      10233.78       10233.78       725.24488    
    178000   5826.0828      2074.0572      2074.0572      153721.65      153721.65     -4078.4707      10233.78       10233.78       729.27143    
    179000   5857.7019      2040.9836      2040.9836      148975.46      148975.46     -4058.4134      10233.78       10233.78       732.71366    
    180000   5889.4656      2015.243       2015.243       143485.96      143485.96     -4075.4288      10233.78       10233.78       735.80224    
    181000   5920.9978      2036.0841      2036.0841      145372.22      145372.22     -4070.4613      10233.78       10233.78       742.49537    
    182000   5954.0188      1969.6249      1969.6249      117772.58      117772.58     -4096.0931      10233.78       10233.78       749.26265    
ERROR: Lost atoms: original 1000 current 998
For more information see https://docs.lammps.org/err0008 (src/thermo.cpp:518)

units metal
atom_style atomic

read_data ${data_file}
read_data /u/vld/spet5633/Silicon/a-Si_potential/DFT_1200eV/Testing/Paper/l-SiH/1,000_structures/NVT_2.58/Hconc-45/4/SiH.data
Reading data file ...
  orthogonal box = (0 0 0) to (21.710943 21.710943 21.710943)
  2 by 2 by 4 MPI processor grid
  reading atoms ...
  1000 atoms
  read_data CPU = 0.023 seconds
# reset_timestep 0

mass 2 28.0855
mass 1 1.00784

labelmap atom 2 Si 1 H

pair_style  pace
ACE version: 2023.11.25
Recursive evaluator is used
pair_coeff  * * ${yacepot} H Si
pair_coeff  * * /u/vld/spet5633/Silicon/a-Si_potential/DFT_1200eV/Testing/Ites/Ite_6.8_kappa_auto_10/output_potential_tuned_repulsion_vHH_vSiH.yaml H Si
Loading /u/vld/spet5633/Silicon/a-Si_potential/DFT_1200eV/Testing/Ites/Ite_6.8_kappa_auto_10/output_potential_tuned_repulsion_vHH_vSiH.yaml
Total number of basis functions
	H: 26 (r=1) 1352 (r>1)
	Si: 28 (r=1) 2101 (r>1)
Mapping LAMMPS atom type #1(H) -> ACE species type #0
Mapping LAMMPS atom type #2(Si) -> ACE species type #1


neighbor 2.0 bin #default bin value for unit style (ie. metal)
neigh_modify every 1 delay 0 check yes #rebuild the neighbor list at every timestep

variable Nfreq equal 1000
variable Nprint equal 1000
variable Nevery equal 1000
variable Nrepeat equal ${Nfreq}/${Nevery}
variable Nrepeat equal 1000/${Nevery}
variable Nrepeat equal 1000/1000
variable Ndump equal ${ndump}
variable Ndump equal 10000
#variable nAtoms equal atoms
#variable Nrestart equal ${quench_timesteps}/15

timestep 0.0001

fix removeMomentum all momentum 1 linear 1 1 1

compute T all temp
fix TempAve all ave/time ${Nevery} ${Nrepeat} ${Nfreq} c_T
fix TempAve all ave/time 1000 ${Nrepeat} ${Nfreq} c_T
fix TempAve all ave/time 1000 1 ${Nfreq} c_T
fix TempAve all ave/time 1000 1 1000 c_T

variable P equal press
fix PressAve all ave/time ${Nevery} ${Nrepeat} ${Nfreq} v_P
fix PressAve all ave/time 1000 ${Nrepeat} ${Nfreq} v_P
fix PressAve all ave/time 1000 1 ${Nfreq} v_P
fix PressAve all ave/time 1000 1 1000 v_P

variable v equal vol
fix vAve all ave/time ${Nevery} ${Nrepeat} ${Nfreq} v_v
fix vAve all ave/time 1000 ${Nrepeat} ${Nfreq} v_v
fix vAve all ave/time 1000 1 ${Nfreq} v_v
fix vAve all ave/time 1000 1 1000 v_v

compute PE all pe pair
fix PEAve all ave/time ${Nevery} ${Nrepeat} ${Nfreq} c_PE
fix PEAve all ave/time 1000 ${Nrepeat} ${Nfreq} c_PE
fix PEAve all ave/time 1000 1 ${Nfreq} c_PE
fix PEAve all ave/time 1000 1 1000 c_PE
compute PEa all pe/atom pair

compute MSD all msd

thermo_style custom step cpu temp f_TempAve press f_PressAve f_PEAve vol f_vAve c_MSD[4]
thermo_modify flush yes
thermo ${Nfreq}
thermo 1000


######### Extrapolation grade check for >5  #########
# fix pace_gamma_1 all pair 100 pace/extrapolation gamma 1 # compute per-atom extrapolation grade every 10 steps
# compute gamma_ave all reduce ave f_pace_gamma_1 # compute average gamma
# compute max_pace_gamma_1 all reduce max f_pace_gamma_1 # compute maximum extrapolation grade over complete structure
# dump extrapolative structures if c_max_pace_gamma > 5, skip otherwise, check every 20 steps
# variable dump_skip equal "c_max_pace_gamma_1 < 5"
# dump pace_dump all custom 100 ${rundir}/out_str/extrapolative_structures.dump id element x y z# f_pace_gamma_1
# dump_modify pace_dump skip v_dump_skip
# dump_modify pace_dump element H Si


######### Dumping  #########
# fix pace_gamma_reg all pair ${Ndump} pace/extrapolation gamma 1 # compute per-atom extrapolation grade every 10 steps
dump ens all custom ${Ndump} ${rundir}/NPT/dump_custom_pace id element x y z fx fy fz c_PEa #f_pace_gamma_reg
dump ens all custom 10000 ${rundir}/NPT/dump_custom_pace id element x y z fx fy fz c_PEa 
dump ens all custom 10000 /u/vld/spet5633/Silicon/a-Si_potential/DFT_1200eV/Testing/Paper/l-SiH/1,000_structures/NVT_2.58/Hconc-45/4/NPT/dump_custom_pace id element x y z fx fy fz c_PEa 
#difference between dump ens and dump sep is that dump sep has a .dat file for each timestep vs ens is 1 big file
dump_modify ens sort 1 #sorting the dump by the 1st column of data ie the id
dump_modify ens element H Si

# variable max_pace_gamma equal c_gamma_ave
# fix extreme_extrapolation all halt 10 v_max_pace_gamma > 25

minimize 0 1.0e-6 1000 100000

CITE-CITE-CITE-CITE-CITE-CITE-CITE-CITE-CITE-CITE-CITE-CITE-CITE

Your simulation uses code contributions which should be cited:

- Type Label Framework: https://doi.org/10.1021/acs.jpcb.3c08419

@Article{Gissinger24,
 author = {Jacob R. Gissinger, Ilia Nikiforov, Yaser Afshar, Brendon Waters, Moon-ki Choi, Daniel S. Karls, Alexander Stukowski, Wonpil Im, Hendrik Heinz, Axel Kohlmeyer, and Ellad B. Tadmor},
 title = {Type Label Framework for Bonded Force Fields in LAMMPS},
 journal = {J. Phys. Chem. B},
 year =    2024,
 volume =  128,
 number =  13,
 pages =   {3282--3297}
}

CITE-CITE-CITE-CITE-CITE-CITE-CITE-CITE-CITE-CITE-CITE-CITE-CITE

Neighbor list info ...
  update: every = 1 steps, delay = 0 steps, check = yes
  max neighbors/atom: 2000, page size: 100000
  master list distance cutoff = 8.4
  ghost atom cutoff = 8.4
  binsize = 4.2, bins = 6 6 6
  1 neighbor lists, perpetual/occasional/extra = 1 0 0
  (1) pair pace, perpetual
      attributes: full, newton on
      pair build: full/bin/atomonly
      stencil: full/bin/3d
      bin: standard
Per MPI rank memory allocation (min/avg/max) = 4.759 | 4.76 | 4.761 Mbytes
   Step          CPU            Temp        f_TempAve        Press        f_PressAve      f_PEAve         Volume         f_vAve        c_MSD[4]   
         0   0              0              0              307480.89      0              0              10233.78       0              0            
       161   25.788162      0              0              51211.739      0              0              10233.78       0              1.1375132    
Loop time of 25.7896 on 16 procs for 161 steps with 1000 atoms

82.9% CPU use with 16 MPI tasks x 1 OpenMP threads

Minimization stats:
  Stopping criterion = linesearch alpha is zero
  Energy initial, next-to-last, final = 
     -3346.91000461819  -4510.18275451606  -4510.18275451606
  Force two-norm initial, final = 203.9002 50.564542
  Force max component initial, final = 20.565666 22.493362
  Final line search alpha, max atom move = 4.1053868e-12 9.2343949e-11
  Iterations, force evaluations = 161 594

MPI task timing breakdown:
Section |  min time  |  avg time  |  max time  |%varavg| %total
---------------------------------------------------------------
Pair    | 17.16      | 19         | 25.351     |  44.4 | 73.67
Neigh   | 0.003014   | 0.0032005  | 0.0035449  |   0.3 |  0.01
Comm    | 0.41051    | 6.7605     | 8.6017     |  74.4 | 26.21
Output  | 0          | 0          | 0          |   0.0 |  0.00
Modify  | 0          | 0          | 0          |   0.0 |  0.00
Other   |            | 0.02582    |            |       |  0.10

Nlocal:           62.5 ave          83 max          56 min
Histogram: 3 4 6 1 1 0 0 0 0 1
Nghost:        1607.69 ave        1641 max        1575 min
Histogram: 1 0 3 2 4 2 0 1 1 2
Neighs:              0 ave           0 max           0 min
Histogram: 16 0 0 0 0 0 0 0 0 0
FullNghs:      15118.8 ave       21262 max       13511 min
Histogram: 6 4 4 1 0 0 0 0 0 1

Total # of neighbors = 241900
Ave neighs/atom = 241.9
Neighbor list builds = 8
Dangerous builds = 0

velocity all create ${t_anneal} ${rand}
velocity all create 2000 ${rand}
velocity all create 2000 2000215857

fix integrate all nvt temp ${t_anneal} ${t_anneal} $(100.0*dt) #iso 0.0 0.0 $(1000.0*dt)
fix integrate all nvt temp 2000 ${t_anneal} $(100.0*dt) 
fix integrate all nvt temp 2000 2000 $(100.0*dt) 
fix integrate all nvt temp 2000 2000 0.010000000000000000208 
run ${anneal_timesteps}
run 1000000
Per MPI rank memory allocation (min/avg/max) = 5.02 | 5.021 | 5.022 Mbytes
   Step          CPU            Temp        f_TempAve        Press        f_PressAve      f_PEAve         Volume         f_vAve        c_MSD[4]   
       161   0              2000           0              78166.975      0              0              10233.78       0              1.1375132    
ERROR: Lost atoms: original 1000 current 998
For more information see https://docs.lammps.org/err0008 (src/thermo.cpp:518)

units metal
atom_style atomic

read_data ${data_file}
read_data /u/vld/spet5633/Silicon/a-Si_potential/DFT_1200eV/Testing/Paper/l-SiH/1,000_structures/NVT_2.58/Hconc-45/4/SiH.data
Reading data file ...
  orthogonal box = (0 0 0) to (21.710943 21.710943 21.710943)
  2 by 2 by 4 MPI processor grid
  reading atoms ...
  1000 atoms
  read_data CPU = 0.007 seconds
# reset_timestep 0

mass 2 28.0855
mass 1 1.00784

labelmap atom 2 Si 1 H

pair_style  pace
ACE version: 2023.11.25
Recursive evaluator is used
pair_coeff  * * ${yacepot} H Si
pair_coeff  * * /u/vld/spet5633/Silicon/a-Si_potential/DFT_1200eV/Testing/Ites/Ite_6.8_kappa_auto_10/output_potential_tuned_repulsion_vHH_vSiH.yaml H Si
Loading /u/vld/spet5633/Silicon/a-Si_potential/DFT_1200eV/Testing/Ites/Ite_6.8_kappa_auto_10/output_potential_tuned_repulsion_vHH_vSiH.yaml
Total number of basis functions
	H: 26 (r=1) 1352 (r>1)
	Si: 28 (r=1) 2101 (r>1)
Mapping LAMMPS atom type #1(H) -> ACE species type #0
Mapping LAMMPS atom type #2(Si) -> ACE species type #1


neighbor 2.0 bin #default bin value for unit style (ie. metal)
neigh_modify every 1 delay 0 check yes #rebuild the neighbor list at every timestep

variable Nfreq equal 1000
variable Nprint equal 1000
variable Nevery equal 1000
variable Nrepeat equal ${Nfreq}/${Nevery}
variable Nrepeat equal 1000/${Nevery}
variable Nrepeat equal 1000/1000
variable Ndump equal ${ndump}
variable Ndump equal 10000
#variable nAtoms equal atoms
#variable Nrestart equal ${quench_timesteps}/15

timestep 0.0001

fix removeMomentum all momentum 1 linear 1 1 1

compute T all temp
fix TempAve all ave/time ${Nevery} ${Nrepeat} ${Nfreq} c_T
fix TempAve all ave/time 1000 ${Nrepeat} ${Nfreq} c_T
fix TempAve all ave/time 1000 1 ${Nfreq} c_T
fix TempAve all ave/time 1000 1 1000 c_T

variable P equal press
fix PressAve all ave/time ${Nevery} ${Nrepeat} ${Nfreq} v_P
fix PressAve all ave/time 1000 ${Nrepeat} ${Nfreq} v_P
fix PressAve all ave/time 1000 1 ${Nfreq} v_P
fix PressAve all ave/time 1000 1 1000 v_P

variable v equal vol
fix vAve all ave/time ${Nevery} ${Nrepeat} ${Nfreq} v_v
fix vAve all ave/time 1000 ${Nrepeat} ${Nfreq} v_v
fix vAve all ave/time 1000 1 ${Nfreq} v_v
fix vAve all ave/time 1000 1 1000 v_v

compute PE all pe pair
fix PEAve all ave/time ${Nevery} ${Nrepeat} ${Nfreq} c_PE
fix PEAve all ave/time 1000 ${Nrepeat} ${Nfreq} c_PE
fix PEAve all ave/time 1000 1 ${Nfreq} c_PE
fix PEAve all ave/time 1000 1 1000 c_PE
compute PEa all pe/atom pair

compute MSD all msd

thermo_style custom step cpu temp f_TempAve press f_PressAve f_PEAve vol f_vAve c_MSD[4]
thermo_modify flush yes
thermo ${Nfreq}
thermo 1000


######### Extrapolation grade check for >5  #########
# fix pace_gamma_1 all pair 100 pace/extrapolation gamma 1 # compute per-atom extrapolation grade every 10 steps
# compute gamma_ave all reduce ave f_pace_gamma_1 # compute average gamma
# compute max_pace_gamma_1 all reduce max f_pace_gamma_1 # compute maximum extrapolation grade over complete structure
# dump extrapolative structures if c_max_pace_gamma > 5, skip otherwise, check every 20 steps
# variable dump_skip equal "c_max_pace_gamma_1 < 5"
# dump pace_dump all custom 100 ${rundir}/out_str/extrapolative_structures.dump id element x y z# f_pace_gamma_1
# dump_modify pace_dump skip v_dump_skip
# dump_modify pace_dump element H Si


######### Dumping  #########
# fix pace_gamma_reg all pair ${Ndump} pace/extrapolation gamma 1 # compute per-atom extrapolation grade every 10 steps
dump ens all custom ${Ndump} ${rundir}/NPT/dump_custom_pace id element x y z fx fy fz c_PEa #f_pace_gamma_reg
dump ens all custom 10000 ${rundir}/NPT/dump_custom_pace id element x y z fx fy fz c_PEa 
dump ens all custom 10000 /u/vld/spet5633/Silicon/a-Si_potential/DFT_1200eV/Testing/Paper/l-SiH/1,000_structures/NVT_2.58/Hconc-45/4/NPT/dump_custom_pace id element x y z fx fy fz c_PEa 
#difference between dump ens and dump sep is that dump sep has a .dat file for each timestep vs ens is 1 big file
dump_modify ens sort 1 #sorting the dump by the 1st column of data ie the id
dump_modify ens element H Si

# variable max_pace_gamma equal c_gamma_ave
# fix extreme_extrapolation all halt 10 v_max_pace_gamma > 25

minimize 0 1.0e-6 1000 100000

CITE-CITE-CITE-CITE-CITE-CITE-CITE-CITE-CITE-CITE-CITE-CITE-CITE

Your simulation uses code contributions which should be cited:

- Type Label Framework: https://doi.org/10.1021/acs.jpcb.3c08419

@Article{Gissinger24,
 author = {Jacob R. Gissinger, Ilia Nikiforov, Yaser Afshar, Brendon Waters, Moon-ki Choi, Daniel S. Karls, Alexander Stukowski, Wonpil Im, Hendrik Heinz, Axel Kohlmeyer, and Ellad B. Tadmor},
 title = {Type Label Framework for Bonded Force Fields in LAMMPS},
 journal = {J. Phys. Chem. B},
 year =    2024,
 volume =  128,
 number =  13,
 pages =   {3282--3297}
}

CITE-CITE-CITE-CITE-CITE-CITE-CITE-CITE-CITE-CITE-CITE-CITE-CITE

Neighbor list info ...
  update: every = 1 steps, delay = 0 steps, check = yes
  max neighbors/atom: 2000, page size: 100000
  master list distance cutoff = 8.4
  ghost atom cutoff = 8.4
  binsize = 4.2, bins = 6 6 6
  1 neighbor lists, perpetual/occasional/extra = 1 0 0
  (1) pair pace, perpetual
      attributes: full, newton on
      pair build: full/bin/atomonly
      stencil: full/bin/3d
      bin: standard
Per MPI rank memory allocation (min/avg/max) = 4.759 | 4.76 | 4.761 Mbytes
   Step          CPU            Temp        f_TempAve        Press        f_PressAve      f_PEAve         Volume         f_vAve        c_MSD[4]   
         0   0              0              0              307480.89      0              0              10233.78       0              0            
       161   24.142671      0              0              51211.739      0              0              10233.78       0              1.1375132    
Loop time of 24.1439 on 16 procs for 161 steps with 1000 atoms

82.2% CPU use with 16 MPI tasks x 1 OpenMP threads

Minimization stats:
  Stopping criterion = linesearch alpha is zero
  Energy initial, next-to-last, final = 
     -3346.91000461819  -4510.18275451606  -4510.18275451606
  Force two-norm initial, final = 203.9002 50.564542
  Force max component initial, final = 20.565666 22.493362
  Final line search alpha, max atom move = 4.1053868e-12 9.2343949e-11
  Iterations, force evaluations = 161 594

MPI task timing breakdown:
Section |  min time  |  avg time  |  max time  |%varavg| %total
---------------------------------------------------------------
Pair    | 15.565     | 17.401     | 23.597     |  47.2 | 72.07
Neigh   | 0.0028927  | 0.0030522  | 0.0033812  |   0.2 |  0.01
Comm    | 0.51873    | 6.7129     | 8.5514     |  76.0 | 27.80
Output  | 0          | 0          | 0          |   0.0 |  0.00
Modify  | 0          | 0          | 0          |   0.0 |  0.00
Other   |            | 0.02735    |            |       |  0.11

Nlocal:           62.5 ave          83 max          56 min
Histogram: 3 4 6 1 1 0 0 0 0 1
Nghost:        1607.69 ave        1641 max        1575 min
Histogram: 1 0 3 2 4 2 0 1 1 2
Neighs:              0 ave           0 max           0 min
Histogram: 16 0 0 0 0 0 0 0 0 0
FullNghs:      15118.8 ave       21262 max       13511 min
Histogram: 6 4 4 1 0 0 0 0 0 1

Total # of neighbors = 241900
Ave neighs/atom = 241.9
Neighbor list builds = 8
Dangerous builds = 0

velocity all create ${t_anneal} ${rand}
velocity all create 2000 ${rand}
velocity all create 2000 1189373232

fix integrate all nvt temp ${t_anneal} ${t_anneal} $(100.0*dt) #iso 0.0 0.0 $(1000.0*dt)
fix integrate all nvt temp 2000 ${t_anneal} $(100.0*dt) 
fix integrate all nvt temp 2000 2000 $(100.0*dt) 
fix integrate all nvt temp 2000 2000 0.010000000000000000208 
run ${anneal_timesteps}
run 1000000
Per MPI rank memory allocation (min/avg/max) = 5.02 | 5.021 | 5.022 Mbytes
   Step          CPU            Temp        f_TempAve        Press        f_PressAve      f_PEAve         Volume         f_vAve        c_MSD[4]   
       161   0              2000           0              78166.975      0              0              10233.78       0              1.1375132    
      1000   33.529689      1719.2552      1719.2552      159361.08      159361.08     -4217.6505      10233.78       10233.78       45.861599    
      2000   69.852126      2206.7103      2206.7103      176380.08      176380.08     -4092.4168      10233.78       10233.78       48.268389    
      3000   108.73928      2007.7028      2007.7028      137812.03      137812.03     -4058.2962      10233.78       10233.78       52.890398    
      4000   143.89811      1355.6627      1355.6627      86554.617      86554.617     -4116.9525      10233.78       10233.78       55.158982    
      5000   178.41047      1965.8839      1965.8839      165630.11      165630.11     -4084.5804      10233.78       10233.78       58.575718    
      6000   212.25162      1919.9284      1919.9284      93515.218      93515.218     -4069.8647      10233.78       10233.78       61.890243    
      7000   245.05927      2057.5471      2057.5471      151436.32      151436.32     -4063.5246      10233.78       10233.78       66.109546    
      8000   278.02785      2013.4492      2013.4492      88611.171      88611.171     -4060.9474      10233.78       10233.78       70.053826    
      9000   310.6975       1992.0245      1992.0245      165727.61      165727.61     -4053.8943      10233.78       10233.78       72.923795    
     10000   344.03919      1956.4271      1956.4271      162399.15      162399.15     -4070.3432      10233.78       10233.78       76.745435    
     11000   376.79872      1982.7172      1982.7172      157315.29      157315.29     -4054.7249      10233.78       10233.78       79.190176    
     12000   410.14442      2006.1565      2006.1565      140565.59      140565.59     -4058.0948      10233.78       10233.78       82.750615    
     13000   443.36281      1943.2656      1943.2656      155927.45      155927.45     -4059.7989      10233.78       10233.78       86.44434     
     14000   476.6738       2035.6376      2035.6376      157647.99      157647.99     -4065.3         10233.78       10233.78       90.63997     
     15000   510.53044      1977.3963      1977.3963      135100.66      135100.66     -4059.7575      10233.78       10233.78       94.580014    
     16000   544.00125      2051.2345      2051.2345      133601.11      133601.11     -4068.153       10233.78       10233.78       97.906993    
     17000   576.92574      2042.5378      2042.5378      119747.23      119747.23     -4075.1422      10233.78       10233.78       101.33398    
     18000   610.74274      2043.482       2043.482       158922.31      158922.31     -4059.2513      10233.78       10233.78       104.17452    
     19000   643.99916      2054.4092      2054.4092      128740.84      128740.84     -4062.4756      10233.78       10233.78       107.80046    
     20000   676.82489      1985.7438      1985.7438      136207.54      136207.54     -4051.8592      10233.78       10233.78       112.6845     
     21000   709.7538       1978.7435      1978.7435      121867.73      121867.73     -4063.1891      10233.78       10233.78       116.07287    
     22000   742.38734      1997.4203      1997.4203      165159.99      165159.99     -4062.0284      10233.78       10233.78       119.32996    
     23000   775.97379      1969.1144      1969.1144      129164.1       129164.1      -4058.0605      10233.78       10233.78       124.61495    
     24000   808.76914      1940.7364      1940.7364      123092.5       123092.5      -4064.2884      10233.78       10233.78       127.01842    
     25000   841.40106      1940.3153      1940.3153      95159.292      95159.292     -4066.6704      10233.78       10233.78       130.91166    
     26000   874.49422      1990.5197      1990.5197      128487.63      128487.63     -4066.9906      10233.78       10233.78       133.86613    
     27000   907.63915      1929.6459      1929.6459      116823.74      116823.74     -4064.361       10233.78       10233.78       136.60401    
     28000   939.77514      2010.0245      2010.0245      92654.569      92654.569     -4065.9102      10233.78       10233.78       140.46288    
     29000   973.17683      1951.6402      1951.6402      162477.73      162477.73     -4063.209       10233.78       10233.78       142.21941    
     30000   1006.4344      1940.6747      1940.6747      128302.32      128302.32     -4080.6449      10233.78       10233.78       146.2713     
[...]
    857000   27362.041      1937.7775      1937.7775      146153.78      146153.78     -4109.6717      10233.78       10233.78       3359.1906    
    858000   27394.12       1900.9433      1900.9433      128853.35      128853.35     -4112.7995      10233.78       10233.78       3367.9923    
    859000   27425.579      1897.6161      1897.6161      135146.62      135146.62     -4111.5431      10233.78       10233.78       3375.4986    
    860000   27457.918      1945.3757      1945.3757      147046.49      147046.49     -4103.6513      10233.78       10233.78       3385.8476    
    861000   27490.654      1983.4557      1983.4557      144523.14      144523.14     -4108.1066      10233.78       10233.78       3381.8072    
    862000   27522.025      2024.1877      2024.1877      132278.09      132278.09     -4109.3749      10233.78       10233.78       3379.9025    
    863000   27553.522      2020.8982      2020.8982      136082.22      136082.22     -4114.5201      10233.78       10233.78       3381.5233    
    864000   27585.093      1929.1005      1929.1005      137463.55      137463.55     -4109.9073      10233.78       10233.78       3381.6452    
    865000   27616.586      1963.068       1963.068       143973.21      143973.21     -4099.5743      10233.78       10233.78       3385.4693    
    866000   27648.653      2020.5803      2020.5803      147923.12      147923.12     -4109.7908      10233.78       10233.78       3385.7167    
    867000   27681.6        1972.9359      1972.9359      136647.83      136647.83     -4107.1993      10233.78       10233.78       3392.9569    
    868000   27713.605      1950.1812      1950.1812      133869.89      133869.89     -4122.876       10233.78       10233.78       3387.5877    
    869000   27744.946      2006.9194      2006.9194      139857.32      139857.32     -4110.0439      10233.78       10233.78       3389.8538    
    870000   27776.301      2033.4828      2033.4828      131875.48      131875.48     -4103.6218      10233.78       10233.78       3392.4388    
    871000   27807.874      2029.2587      2029.2587      137473.06      137473.06     -4108.599       10233.78       10233.78       3406.2458    
    872000   27839.793      2006.2382      2006.2382      129435.62      129435.62     -4113.5571      10233.78       10233.78       3408.5704    
    873000   27871.909      1966.953       1966.953       140476.92      140476.92     -4110.8832      10233.78       10233.78       3411.2418    
    874000   27904.363      1953.2178      1953.2178      139503.55      139503.55     -4111.8945      10233.78       10233.78       3417.1652    
    875000   27935.782      2039.047       2039.047       143415.04      143415.04     -4110.3259      10233.78       10233.78       3417.32      
    876000   27967.375      1992.2467      1992.2467      139292.92      139292.92     -4107.9047      10233.78       10233.78       3426.2941    
    877000   27999.158      2019.5857      2019.5857      136822.66      136822.66     -4119.9869      10233.78       10233.78       3425.6336    
    878000   28030.964      2033.2185      2033.2185      137481.64      137481.64     -4098.0888      10233.78       10233.78       3427.6636    
    879000   28063.35       2109.7498      2109.7498      145335.74      145335.74     -4103.5984      10233.78       10233.78       3428.5857    
    880000   28095.433      1895.3311      1895.3311      145049.91      145049.91     -4105.9683      10233.78       10233.78       3432.0245    
    881000   28127.116      2027.9521      2027.9521      139096.04      139096.04     -4110.6094      10233.78       10233.78       3438.7085    
    882000   28158.837      1970.8196      1970.8196      132143.61      132143.61     -4130.319       10233.78       10233.78       3445.5037    
    883000   28190.099      2072.8752      2072.8752      140952.14      140952.14     -4107.9055      10233.78       10233.78       3448.6076    
    884000   28221.292      1975.1261      1975.1261      144735.71      144735.71     -4111.8791      10233.78       10233.78       3441.4817    
    885000   28253.848      2043.6369      2043.6369      132390.21      132390.21     -4109.671       10233.78       10233.78       3450.5323    
    886000   28285.113      1963.2177      1963.2177      143989.22      143989.22     -4118.6837      10233.78       10233.78       3444.7882    
    887000   28316.445      2034.3498      2034.3498      137331.72      137331.72     -4107.2381      10233.78       10233.78       3447.9684    
    888000   28348.305      1988.047       1988.047       138885.96      138885.96     -4132.2462      10233.78       10233.78       3459.6228    
    889000   28379.708      2087.2839      2087.2839      139337.22      139337.22     -4102.4254      10233.78       10233.78       3476.2724    
    890000   28411.569      1938.4335      1938.4335      146554.13      146554.13     -4112.0832      10233.78       10233.78       3473.2215    
    891000   28443.513      1944.2324      1944.2324      132665.44      132665.44     -4108.9495      10233.78       10233.78       3474.6482    
    892000   28474.87       2025.3602      2025.3602      147082.32      147082.32     -4098.2608      10233.78       10233.78       3481.0472    
    893000   28507.556      1947.3234      1947.3234      136484.68      136484.68     -4106.0152      10233.78       10233.78       3476.3046    
    894000   28539.315      2061.8361      2061.8361      142544.45      142544.45     -4106.4114      10233.78       10233.78       3482.8522    
    895000   28570.913      1901.7348      1901.7348      141271.71      141271.71     -4098.1054      10233.78       10233.78       3481.2251    
    896000   28602.462      2085.9098      2085.9098      134088.96      134088.96     -4102.2832      10233.78       10233.78       3480.4281    
    897000   28634.115      1958.735       1958.735       132868.95      132868.95     -4112.4585      10233.78       10233.78       3486.0841    
    898000   28665.142      2029.7428      2029.7428      138562.63      138562.63     -4108.5207      10233.78       10233.78       3496.8242    
    899000   28697.676      1919.0602      1919.0602      131365.42      131365.42     -4099.2323      10233.78       10233.78       3502.2001    
    900000   28729.565      2008.9231      2008.9231      145669.38      145669.38     -4100.4014      10233.78       10233.78       3501.7311    
    901000   28762.115      2011.684       2011.684       143523.39      143523.39     -4104.2144      10233.78       10233.78       3504.9649    
    902000   28794.75       2012.9264      2012.9264      138502.86      138502.86     -4106.9109      10233.78       10233.78       3518.397     
    903000   28826.698      2029.4373      2029.4373      147180.22      147180.22     -4106.2286      10233.78       10233.78       3513.8512    
    904000   28858.347      1999.5301      1999.5301      146971.38      146971.38     -4101.5428      10233.78       10233.78       3517.9764    
    905000   28889.659      2027.7231      2027.7231      135488.45      135488.45     -4114.0137      10233.78       10233.78       3519.1053    
    906000   28921.328      1984.3366      1984.3366      131941.04      131941.04     -4112.2435      10233.78       10233.78       3532.4836    
    907000   28952.792      2033.1305      2033.1305      136837.16      136837.16     -4111.0489      10233.78       10233.78       3540.4267    
    908000   28984.292      2093.8343      2093.8343      138742.32      138742.32     -4110.0657      10233.78       10233.78       3542.8773    
    909000   29016.488      2034.9687      2034.9687      141769.56      141769.56     -4116.7475      10233.78       10233.78       3541.9633    
    910000   29048.254      1959.8037      1959.8037      146279.21      146279.21     -4105.461       10233.78       10233.78       3546.8114    
    911000   29081.58       2011.347       2011.347       133823.26      133823.26     -4107.1873      10233.78       10233.78       3547.9663    
    912000   29113.676      2023.7146      2023.7146      144093.47      144093.47     -4104.671       10233.78       10233.78       3556.9126    
    913000   29145.989      2043.0133      2043.0133      140754.02      140754.02     -4098.3356      10233.78       10233.78       3559.9372    
    914000   29177.364      1966.071       1966.071       140878.17      140878.17     -4115.9308      10233.78       10233.78       3570.1984    
    915000   29208.804      2020.5582      2020.5582      183336.55      183336.55     -4111.8894      10233.78       10233.78       3564.4683    
    916000   29240.521      2038.8038      2038.8038      137036.42      137036.42     -4113.8546      10233.78       10233.78       3570.3743    
    917000   29272.323      1993.0266      1993.0266      140012.03      140012.03     -4103.7214      10233.78       10233.78       3586.3853    
    918000   29304.046      1978.1205      1978.1205      125342.39      125342.39     -4123.1982      10233.78       10233.78       3591.7928    
    919000   29335.787      2050.2892      2050.2892      139094.86      139094.86     -4113.0639      10233.78       10233.78       3594.621     
    920000   29367.976      2013.0987      2013.0987      137567.11      137567.11     -4125.3865      10233.78       10233.78       3610.5128    
    921000   29400.869      2024.3777      2024.3777      133925.83      133925.83     -4107.199       10233.78       10233.78       3609.9846    
    922000   29432.702      2029.5413      2029.5413      140577         140577        -4119.4467      10233.78       10233.78       3621.5477    
    923000   29464.074      1962.5752      1962.5752      138535.48      138535.48     -4120.044       10233.78       10233.78       3633.1374    
    924000   29495.566      2023.9139      2023.9139      137142.59      137142.59     -4115.0552      10233.78       10233.78       3631.6686    
    925000   29528.034      2015.6701      2015.6701      135216.96      135216.96     -4116.8996      10233.78       10233.78       3637.4351    
    926000   29560.139      2017.5239      2017.5239      144706.8       144706.8      -4105.7357      10233.78       10233.78       3639.5382    
    927000   29592.724      2102.7397      2102.7397      141063.26      141063.26     -4117.4334      10233.78       10233.78       3640.5213    
    928000   29625.182      1922.3674      1922.3674      134641.41      134641.41     -4116.993       10233.78       10233.78       3647.9688    
    929000   29656.624      1954.0115      1954.0115      143412.39      143412.39     -4123.221       10233.78       10233.78       3650.5009    
    930000   29688.293      2040.5255      2040.5255      142174.44      142174.44     -4117.3684      10233.78       10233.78       3656.7119    
    931000   29719.72       2030.8742      2030.8742      147659.44      147659.44     -4114.9374      10233.78       10233.78       3659.5586    
    932000   29751.688      1923.0326      1923.0326      136512.96      136512.96     -4113.7629      10233.78       10233.78       3664.2688    
    933000   29783.543      2038.7956      2038.7956      134510.75      134510.75     -4113.7934      10233.78       10233.78       3663.1427    
    934000   29815.648      1938.9696      1938.9696      139112.91      139112.91     -4112.8176      10233.78       10233.78       3672.494     
    935000   29847.072      1949.6704      1949.6704      136164.52      136164.52     -4105.7001      10233.78       10233.78       3675.9443    
    936000   29879.187      2043.2919      2043.2919      145305.81      145305.81     -4097.6106      10233.78       10233.78       3673.8477    
    937000   29910.638      2044.5979      2044.5979      132144.45      132144.45     -4109.9926      10233.78       10233.78       3672.8096    
    938000   29942.395      2073.9909      2073.9909      136528.44      136528.44     -4108.6724      10233.78       10233.78       3679.974     
    939000   29974.148      1984.0994      1984.0994      141465.57      141465.57     -4110.5351      10233.78       10233.78       3684.6946    
    940000   30005.986      1886.9914      1886.9914      125107.01      125107.01     -4117.0525      10233.78       10233.78       3684.3822    
    941000   30038.533      1981.3598      1981.3598      135354.23      135354.23     -4111.355       10233.78       10233.78       3686.0219    
    942000   30070.482      1960.5533      1960.5533      139950.28      139950.28     -4114.0431      10233.78       10233.78       3689.245     
    943000   30101.599      2048.9397      2048.9397      137548.06      137548.06     -4111.7085      10233.78       10233.78       3688.7521    
    944000   30133.157      2032.5215      2032.5215      138455.94      138455.94     -4119.1813      10233.78       10233.78       3688.6452    
    945000   30164.299      2019.6175      2019.6175      130037.84      130037.84     -4112.8587      10233.78       10233.78       3684.5572    
    946000   30196.061      2062.1212      2062.1212      145917.7       145917.7      -4112.2333      10233.78       10233.78       3683.9765    
    947000   30227.724      1979.3107      1979.3107      139312.23      139312.23     -4108.5838      10233.78       10233.78       3682.5354    
    948000   30260.009      2017.4954      2017.4954      133260.28      133260.28     -4102.0472      10233.78       10233.78       3687.1913    
    949000   30291.911      1892.5777      1892.5777      132819.96      132819.96     -4117.6803      10233.78       10233.78       3689.5246    
    950000   30323.239      1967.1781      1967.1781      140388.83      140388.83     -4118.4205      10233.78       10233.78       3690.6569    
    951000   30354.547      1934.3805      1934.3805      144508.73      144508.73     -4105.6803      10233.78       10233.78       3696.6913    
    952000   30386.38       1999.8565      1999.8565      136733.36      136733.36     -4115.783       10233.78       10233.78       3699.5923    
    953000   30418.008      1999.1205      1999.1205      139255.25      139255.25     -4104.6669      10233.78       10233.78       3695.6172    
    954000   30449.816      1968.421       1968.421       146479.69      146479.69     -4109.8166      10233.78       10233.78       3697.5722    
    955000   30481.352      1977.9892      1977.9892      144248.05      144248.05     -4104.3225      10233.78       10233.78       3707.2887    
    956000   30513.218      2068.3844      2068.3844      138106.79      138106.79     -4110.8825      10233.78       10233.78       3700.079     
    957000   30545.222      2067.1375      2067.1375      144835.6       144835.6      -4116.0081      10233.78       10233.78       3702.0614    
    958000   30576.783      2075.8724      2075.8724      139487.39      139487.39     -4107.1776      10233.78       10233.78       3705.3896    
    959000   30608.948      1986.969       1986.969       142469.51      142469.51     -4119.7769      10233.78       10233.78       3706.7625    
    960000   30641.448      2045.1832      2045.1832      136076.05      136076.05     -4111.3754      10233.78       10233.78       3700.1334    
    961000   30672.837      1997.2146      1997.2146      141758.09      141758.09     -4115.7419      10233.78       10233.78       3705.1158    
    962000   30705.077      1973.9801      1973.9801      148740.04      148740.04     -4110.5952      10233.78       10233.78       3708.0756    
    963000   30737.761      1984.048       1984.048       141565.72      141565.72     -4106.3999      10233.78       10233.78       3706.7102    
    964000   30770.14       2036.3263      2036.3263      132679.93      132679.93     -4104.82        10233.78       10233.78       3703.3465    
    965000   30802.766      2111.197       2111.197       137617.39      137617.39     -4107.1244      10233.78       10233.78       3708.7064    
    966000   30835.066      2047.3767      2047.3767      133406.5       133406.5      -4121.4933      10233.78       10233.78       3711.0681    
    967000   30866.609      1967.3238      1967.3238      143071.01      143071.01     -4104.3607      10233.78       10233.78       3709.065     
    968000   30897.72       1970.9604      1970.9604      131297.77      131297.77     -4120.6143      10233.78       10233.78       3716.7624    
    969000   30930.339      1912.4032      1912.4032      142375.53      142375.53     -4111.7094      10233.78       10233.78       3722.0237    
    970000   30962.236      1942.3094      1942.3094      155521.77      155521.77     -4108.6588      10233.78       10233.78       3723.1941    
    971000   30994.188      2028.4043      2028.4043      141688.44      141688.44     -4097.3428      10233.78       10233.78       3729.8095    
    972000   31025.894      1945.9555      1945.9555      142892.47      142892.47     -4122.0807      10233.78       10233.78       3737.9949    
    973000   31057.941      1991.9913      1991.9913      136249.05      136249.05     -4108.4419      10233.78       10233.78       3742.2545    
    974000   31089.234      2030.6919      2030.6919      138082.03      138082.03     -4118.6957      10233.78       10233.78       3750.6083    
    975000   31121.672      1989.215       1989.215       147295.23      147295.23     -4120.7495      10233.78       10233.78       3753.3012    
    976000   31153.81       1922.04        1922.04        136978.32      136978.32     -4109.5046      10233.78       10233.78       3753.9617    
    977000   31185.892      2047.1417      2047.1417      133212.41      133212.41     -4117.4179      10233.78       10233.78       3749.5967    
    978000   31217.088      1943.9512      1943.9512      143799.9       143799.9      -4107.8967      10233.78       10233.78       3755.864     
    979000   31248.641      2019.7605      2019.7605      142312.93      142312.93     -4112.8797      10233.78       10233.78       3760.6833    
    980000   31280.379      1926.8917      1926.8917      142271.76      142271.76     -4105.0885      10233.78       10233.78       3765.8601    
    981000   31313.622      2119.7287      2119.7287      144358.98      144358.98     -4117.0888      10233.78       10233.78       3770.4261    
    982000   31345.138      2001.2234      2001.2234      131123.22      131123.22     -4111.7178      10233.78       10233.78       3784.5796    
    983000   31376.973      1979.4318      1979.4318      149237.47      149237.47     -4111.2248      10233.78       10233.78       3790.9527    
    984000   31409.174      2017.9399      2017.9399      136132.91      136132.91     -4101.1195      10233.78       10233.78       3800.2314    
    985000   31440.678      1934.8765      1934.8765      140186.06      140186.06     -4111.9634      10233.78       10233.78       3798.0486    
    986000   31472.979      1958.6305      1958.6305      139219.7       139219.7      -4104.6991      10233.78       10233.78       3790.7771    
    987000   31504.615      34664.373      34664.373      586839.58      586839.58     -4104.1875      10233.78       10233.78       3790.9566    
    988000   31536.522      5171.7859      5171.7859      166165.47      166165.47     -4288.3159      10233.78       10233.78       3861.6971    
    989000   31569.539      2075.0547      2075.0547      135218.92      135218.92     -4328.3639      10233.78       10233.78       3904.1022    
    990000   31602.45       14155.774      14155.774      298126.81      298126.81     -4360.1577      10233.78       10233.78       3963.4192    
    991000   31635.437      1945.9236      1945.9236      148810.34      148810.34     -4347.9983      10233.78       10233.78       4023.6156    
ERROR: Lost atoms: original 1000 current 998
For more information see https://docs.lammps.org/err0008 (src/thermo.cpp:518)
