ITEM: TIMESTEP
0
ITEM: NUMBER OF ATOMS
1000
ITEM: BOX BOUNDS pp pp pp
0.0000000000000000e+00 2.1158707884739954e+01
0.0000000000000000e+00 2.1158707884739954e+01
0.0000000000000000e+00 2.1158707884739954e+01
ITEM: ATOMS id element x y z fx fy fz c_PEa
1 H 6.32662 20.8568 8.11557 -0.375617 -1.55888 -0.875394 1.13236
2 H 4.83148 6.1762 16.2759 0.0929052 -0.116568 0.424885 -0.173668
3 H 13.5858 10.9455 16.7581 -0.790196 -0.663456 -0.048317 0.173088
4 H 4.98758 14.2431 20.7847 -1.04597 -0.263859 -0.189709 -0.0580343
5 H 5.26302 15.4813 6.6591 -0.144881 -0.255061 0.376766 0.171948
6 H 10.9273 12.5887 8.12655 -0.566824 -0.48208 1.31122 0.156533
7 H 8.32367 11.5222 16.7688 0.107963 -0.316905 0.579275 -0.00443015
8 H 19.3808 11.2241 9.97359 -0.986228 1.00411 0.861354 -0.248368
9 H 6.02408 20.3591 10.0406 0.361871 -0.410852 0.858656 0.0631959
10 H 2.95365 3.3555 16.0946 -0.209978 -0.731003 -0.250268 0.565143
11 H 4.97557 3.84227 4.93553 0.122655 -0.275465 -0.619591 0.11051
12 H 20.7492 0.00748768 19.2492 -0.99023 -1.13725 0.16662 3.00049
13 H 8.35549 9.73989 14.0355 0.370258 0.0470177 1.10973 -0.224323
14 H 3.34411 17.8329 11.0778 -1.09041 -0.663057 -0.606054 3.73569
15 H 7.32626 6.71516 16.5719 1.85158 1.15327 0.732875 -0.19112
16 H 9.8966 16.9746 0.739114 0.229943 -0.159241 0.296396 -0.285607
17 H 20.8647 8.29167 4.33418 0.488285 0.188667 -1.36975 0.0980962
18 H 6.03698 7.8776 11.5766 -0.464518 0.523425 -0.647308 0.0621912
19 H 11.3859 4.08868 19.7774 -1.34862 2.53365 -1.01425 0.766876
20 H 8.78655 13.5852 1.77493 0.325143 -0.99943 -0.289569 0.243262
21 H 4.63319 15.6721 4.71399 0.866231 0.554212 0.489178 0.50074
22 H 20.9281 18.3871 1.43207 0.411967 0.197375 1.07862 0.264307
23 H 14.1049 16.5293 9.41125 -0.606284 -0.580978 0.0540875 -0.21672
24 H 20.0011 16.7646 0.408603 1.46227 -0.459994 0.32868 0.0695768
25 H 8.03389 10.9613 4.44439 0.547677 0.0943277 1.21657 3.0723
26 H 17.6918 1.34887 12.2305 -1.41938 0.327602 -0.410964 -0.0565434
27 H 19.5153 2.7959 3.77966 0.481079 -0.510764 1.00932 -0.0866106
28 H 11.0049 2.49031 0.939758 -0.401001 0.574045 2.29088 0.115072
29 H 16.7703 6.83508 20.673 0.344119 -0.0928629 0.468061 -0.0636323
30 H 1.82176 14.9066 10.2171 -0.184116 -0.0922144 -0.304184 -0.0632682
31 H 13.1864 16.161 20.8151 1.04106 1.03446 0.531544 0.514536
32 H 1.65797 6.6284 13.0717 0.184319 -0.00308539 0.629369 0.390421
33 H 0.553762 2.50504 15.664 -0.579755 -0.793184 -0.0185366 -0.417929
34 H 19.8193 0.0452785 6.01938 -0.397189 -0.635425 -1.14504 2.05238
35 H 17.0997 12.3077 8.64914 0.160871 0.397484 -0.512123 -0.453299
36 H 7.12136 14.8408 13.8158 0.652389 1.15279 -0.549592 0.0953684
37 H 2.37876 15.7774 17.543 -0.21988 0.120784 0.350939 0.187395
38 H 0.462839 20.9984 3.84639 0.0293822 0.347899 -0.00715643 0.0932318
39 H 9.32261 18.9531 18.8167 -0.632827 -1.37362 -0.478537 0.0358379
40 H 18.6197 20.85 8.80677 -0.74825 -0.0160478 1.1583 0.480674
41 H 5.13985 20.7488 15.2609 0.0837887 -0.417898 -0.772922 0.223519
42 H 7.52487 7.38793 20.2519 0.331415 -0.83546 -0.480719 -0.295612
43 H 18.8594 17.0081 6.91524 -0.215271 -0.502897 -0.735034 -0.172823
44 H 6.19105 7.52472 18.1379 -0.0315062 -0.0589797 0.0889447 -0.231564
45 H 10.2412 14.7628 8.93965 -0.537121 -0.0547226 1.87774 0.218937
46 H 6.95551 17.9732 11.3594 -0.855901 0.48615 -0.19443 0.0859538
47 H 17.9859 19.056 10.589 -0.476376 -0.609084 0.101537 0.224276
48 H 1.60428 10.693 15.8929 2.48184 -1.77398 1.3479 0.111535
49 H 8.74537 3.22564 2.37698 0.662277 0.0395205 -0.379743 0.172444
50 H 12.9572 2.88524 6.21008 -0.236227 0.92738 0.0739207 0.598968
51 H 1.87881 0.0599679 6.95746 0.578495 -0.580695 -0.166805 0.682537
52 H 17.299 17.5302 16.9906 0.246418 0.717479 -1.19534 0.237059
53 H 7.7737 17.4877 13.0002 0.751994 -0.837015 0.264355 -0.0677245
54 H 4.68484 18.2423 2.01303 0.521656 0.474092 0.41897 0.724815
55 H 13.5958 20.4006 2.9595 1.5714 0.53343 -1.6329 1.23231
56 H 20.4837 7.21944 1.6792 -0.359273 -0.557922 0.190455 -0.118425
57 H 0.823136 4.95505 9.43648 0.967609 -0.0597569 -0.159616 2.63849
58 H 18.9514 3.3745 15.8544 1.21087 -0.218278 1.18786 -0.0645099
59 H 2.113 19.1251 19.3393 -0.835962 0.666232 -0.432818 0.177887
60 H 0.416431 11.104 19.3836 0.143064 -2.61569 -1.20122 0.250193
61 H 0.6048 18.0772 20.6554 -0.82038 -0.432177 -0.136624 0.243018
62 H 20.1516 0.946768 3.7908 -0.579264 0.0701651 0.539891 0.122344
63 H 13.2244 11.787 7.1594 -1.51418 0.727289 0.418047 0.193217
64 H 21.0137 17.5522 12.5684 -0.262491 0.0638048 0.0912392 0.0791578
65 H 14.3235 18.9201 4.62863 -0.169017 0.559705 0.0991839 0.125124
66 H 1.84354 7.50086 18.1161 0.418313 -0.336511 -0.758834 -0.325879
67 H 15.7406 9.75535 4.99482 1.57203 0.265073 -0.289226 -0.290943
68 H 0.0334444 19.5947 10.2077 0.125027 -0.367784 -0.0849386 1.31879
69 H 18.2658 10.637 15.4072 -2.21471 -1.19788 -3.37044 0.555685
70 H 9.88041 5.09463 8.46994 -0.323805 0.046751 -0.35076 -0.414402
71 H 13.4391 19.0443 19.8448 -0.724655 0.205466 0.862556 0.700256
72 H 6.3691 18.214 8.30332 0.369201 -0.0913647 -0.471105 -0.321753
73 H 0.75737 1.28427 8.29281 0.577658 0.904645 -0.26917 0.725187
74 H 16.4231 3.05214 2.98455 -0.493813 -0.621144 0.347732 0.137741
75 H 19.4691 15.3375 17.6528 0.488241 0.0960127 0.0225903 0.0178061
76 H 0.551562 16.5663 15.3343 1.02131 -0.0330373 -0.221636 0.555681
77 H 19.1423 18.3262 0.107024 -1.55982 -0.635026 -0.483456 -0.0679417
78 H 15.9361 17.8375 18.2455 0.175632 0.589302 0.269039 0.183842
79 H 11.8394 12.6675 5.19203 -0.256066 -0.475259 0.752118 0.264445
80 H 13.6137 18.3909 9.85153 0.418682 0.0103673 -0.443423 0.741469
81 H 11.4369 16.2002 4.41999 0.00806053 -0.409911 0.259512 0.0233871
82 H 8.53099 0.911844 21.0109 0.0372467 0.676487 -0.176018 0.521891
83 H 19.0328 20.4337 14.2191 -0.70779 0.672254 1.01119 0.297367
84 H 2.12732 11.2643 2.67693 1.48359 0.71353 0.871989 -0.0329369
85 H 18.0266 0.947746 20.1476 -0.120423 0.00906885 1.11255 0.568209
86 H 15.1525 8.30921 14.9122 -0.98723 -0.630426 -1.15484 -0.0395266
87 H 7.47601 5.80091 9.01582 -0.415479 0.132232 0.21216 0.281914
88 H 16.1774 7.29224 3.55886 0.690054 0.809402 -0.7166 -0.88441
89 H 4.64167 6.59153 2.28788 -0.333835 0.481666 -0.267758 0.24633
90 H 4.79641 10.7584 19.96 0.806727 0.0082438 -0.219389 0.328233
91 H 12.2422 1.09993 13.9218 0.805081 1.03525 0.276239 1.80156
92 H 5.66786 9.82961 17.7883 2.32035 -0.378377 0.220841 -0.434369
93 H 3.386 13.9621 6.10554 0.363737 0.958843 -0.377722 0.95435
94 H 5.26162 6.30612 12.0992 -0.158387 -0.105599 0.287515 0.480849
95 H 0.846528 13.1398 5.47348 0.171673 0.298218 0.897097 0.201684
96 H 5.67458 4.38391 12.0249 0.123593 -0.128342 0.268312 0.143802
97 H 10.0757 15.2258 3.10665 0.0553152 -0.926111 -0.850401 -0.221254
98 H 4.29488 8.88539 6.70159 -0.018347 -0.531224 0.781046 2.99907
99 H 4.66724 10.9436 10.1966 0.885312 -0.491628 0.328872 0.0914228
100 H 10.6388 6.68519 3.59541 -0.323347 -0.29357 0.106667 0.326561
101 H 19.9101 20.2181 1.79631 0.153039 1.26547 -0.412327 -0.577599
102 H 12.7924 10.1998 1.45605 0.709815 -0.387265 0.286859 0.541954
103 H 7.381 2.70481 14.507 1.62871 0.703735 1.27692 -0.0931561
104 H 14.6857 12.4098 6.05473 -0.597337 1.05286 -0.338019 -0.542344
105 H 17.2728 3.43099 4.57861 -0.732333 1.26274 0.389824 -0.196042
106 H 10.8127 15.6061 16.9549 -0.792925 -0.112987 0.142021 0.0839383
107 H 10.4364 12.7172 6.31948 -0.856448 -1.02954 -0.180845 0.432282
108 H 5.27994 7.25815 3.89749 -0.236661 1.55314 -0.538207 -0.0230183
109 H 12.3118 11.1949 14.3307 0.282389 -0.561105 0.490916 -0.0749535
110 H 10.6235 16.7117 11.3546 -0.910577 -0.360851 -1.26165 1.12406
111 H 18.5957 4.41061 2.74682 0.961507 0.799701 -0.617844 -0.28777
112 H 13.5483 18.4535 6.88252 -0.30523 -0.180208 -1.11443 -0.0320452
113 H 15.7471 17.334 9.42053 0.619363 0.736761 -1.68665 -0.197218
114 H 19.1713 1.33698 9.70588 -0.115023 0.0877266 -0.585258 0.496069
115 H 9.20761 4.44378 10.3021 -0.368439 0.0258836 0.610447 0.098788
116 H 5.35878 16.0364 20.6019 0.615155 0.632029 -0.592096 0.441171
117 H 10.5858 20.7836 1.58679 0.190282 1.41379 0.502555 0.927015
118 H 2.21657 2.84319 0.687636 -0.246642 -0.829961 0.260578 -0.0466597
119 H 6.62915 19.6181 5.42194 -0.204165 -0.173654 -0.208001 0.691451
120 H 12.3497 8.43091 11.5387 0.690661 -0.261619 1.40888 0.4464
121 H 10.3721 11.473 19.8929 -0.158474 0.910424 0.376763 0.251674
122 H 16.3708 3.60835 18.6207 0.657504 0.281581 -1.1888 0.96111
123 H 8.3117 0.248238 18.6479 1.19566 0.52936 -0.833973 0.316357
124 H 6.52918 19.9195 18.6163 -0.604127 -0.182885 -0.266964 -0.0234117
125 H 19.2185 9.37593 9.0164 -0.297533 -0.446679 -0.183558 0.193646
126 H 14.9103 3.52638 5.01643 0.383291 -0.307858 0.283356 0.273174
127 H 16.8466 15.9065 16.3494 -0.438303 0.353415 -0.573008 0.0490285
128 H 8.56376 0.0776059 10.9849 -0.313148 0.536002 -0.473667 1.07768
129 H 19.5041 2.45778 1.05197 0.185565 -0.395266 0.344111 -0.0107784
130 H 10.7855 15.0314 14.5641 -0.628465 -0.150028 1.13801 0.549998
131 H 10.9381 15.6624 7.43845 0.102289 0.322976 0.281317 0.183592
132 H 11.8758 14.2346 17.6627 0.879939 -0.662154 0.277722 0.0925404
133 H 6.3327 18.4989 13.6489 -0.684385 0.204441 -0.691699 -0.0517103
134 H 9.02269 18.621 7.78587 -0.980033 0.269501 0.0830065 0.320526
135 H 18.7044 13.8503 8.61562 0.210573 0.0310259 0.443277 -0.205547
136 H 1.95177 7.6759 3.05901 0.624308 0.00936636 -0.657165 -0.311367
137 H 15.6275 13.2458 17.4501 -0.16037 0.605975 1.25419 -0.00758123
138 H 0.91561 4.93122 7.33409 0.258897 0.302795 -0.139794 0.641024
139 H 7.30496 0.885198 15.4915 0.0799821 -1.66187 1.29698 -0.00428068
140 H 9.43917 13.6178 16.832 0.176776 0.962858 -0.904502 -0.00103185
141 H 1.98938 20.1145 1.02096 0.695937 -0.646628 -0.391246 -0.302174
142 H 20.3917 9.08828 11.7978 -0.459541 -0.430241 -0.246893 -0.490585
143 H 6.82479 8.20499 3.05415 -0.251336 -0.33166 0.00197231 0.855544
144 H 10.6421 3.15314 9.83745 1.63648 -0.200901 -1.17685 -0.287514
145 H 11.5867 6.46426 20.5787 -1.30401 0.345683 -1.39738 0.225243
146 H 16.3323 14.0218 5.74389 -0.319253 0.408463 -0.0411175 -0.591997
147 H 3.50006 15.6686 15.7932 -1.25698 0.56441 0.326842 0.452846
148 H 19.4458 10.8949 13.6614 -4.6624 -2.74488 -2.60238 -0.236654
149 H 18.7008 8.43665 4.95248 0.220544 0.0365736 -0.0833546 -0.569778
150 H 2.82732 10.3338 19.2606 0.725679 0.086597 0.197689 -0.117362
151 H 20.616 17.8007 8.02522 -0.304826 -0.677563 0.0326933 0.484036
152 H 3.15217 20.7351 13.8252 -0.359043 0.91683 0.0895529 0.514945
153 H 1.54249 13.8108 17.251 1.02999 1.3717 1.38305 -0.135325
154 H 17.4935 12.5838 1.96428 -1.71548 0.156435 0.534226 -0.210759
155 H 2.02611 9.91381 0.189535 -0.111934 -1.51245 -0.601316 -0.371009
156 H 10.6476 8.06135 9.4809 0.33918 -0.22538 0.520843 2.38599
157 H 4.02737 0.859672 2.59609 -0.120435 0.253721 0.748083 0.279783
158 H 2.87085 0.409065 16.8358 -0.858249 0.422374 0.92696 0.817978
159 H 13.8017 3.9333 9.69342 0.384926 -0.382106 0.332073 0.524782
160 H 2.0411 8.88399 12.1971 0.136436 -1.25128 -0.84967 -0.495897
161 H 21.1123 7.2125 19.2139 0.688669 0.155763 -0.185652 0.368767
162 H 19.05 12.9532 14.7007 -3.07492 2.03596 -3.70285 0.102422
163 H 14.3576 20.8388 15.5304 0.525728 1.62901 0.113039 1.41774
164 H 6.83833 8.71989 16.199 -0.723616 -0.0279931 -0.95888 -0.556866
165 H 9.65553 3.37684 7.95296 -0.906617 -0.623305 -0.43891 0.168678
166 H 13.9201 6.71362 10.8506 -0.710734 -0.87244 1.04454 0.6842
167 H 17.0749 20.5824 5.60161 -0.444127 0.0784923 0.944639 -0.179231
168 H 6.12784 8.49972 7.12387 -0.21161 0.433871 0.910365 1.58301
169 H 20.5142 3.88641 0.489545 -0.530991 -0.278918 -0.311527 0.262831
170 H 15.4385 2.57544 1.47472 -0.234266 0.300524 0.809233 0.631601
171 H 9.70207 12.2805 4.27893 -0.736015 1.47507 0.499509 0.999518
172 H 1.51747 12.2961 20.9741 1.93359 1.28037 1.47569 -0.0129032
173 H 17.2469 19.7262 19.6576 -1.04304 -0.0593145 0.355187 2.31964
174 H 20.6744 11.5018 20.9974 -0.147963 1.31583 -0.372176 -0.299242
175 H 4.36584 15.045 9.26124 -0.362351 -0.471347 -0.594343 0.184043
176 H 10.938 4.24331 3.1318 -0.0700296 -0.772977 -0.621966 -0.0044316
177 H 4.38745 18.705 7.36516 0.594234 0.414632 -0.485449 0.0738319
178 H 16.5992 1.79125 5.08001 0.734088 -0.925746 -1.38527 0.00411532
179 H 5.63689 15.8112 1.65491 0.00811081 -0.183369 -0.205205 0.852101
180 H 21.1038 18.627 16.1995 0.0158641 -0.581878 0.0739954 -0.0943647
181 H 15.1193 17.4909 13.8037 2.18424 -0.828499 0.0511152 2.98717
182 H 14.7135 11.0148 8.08437 -0.0622478 -1.17314 1.83662 0.00952929
183 H 13.3695 12.7568 15.6504 0.383999 -0.00938271 -0.514423 -0.0518413
184 H 16.8245 15.7443 7.17688 0.0667922 -0.462919 0.452241 -0.264843
185 H 5.45278 4.11021 0.784276 -1.23341 -0.389597 -0.374906 0.207978
186 H 16.9935 3.038 13.6639 -0.586627 -0.260182 -0.0792839 0.366138
187 H 5.6519 3.95173 2.61766 -0.207841 -2.19756 0.0806562 0.125277
188 H 14.1694 1.52755 5.56777 -0.18944 -0.690109 0.657057 -0.0700464
189 H 3.78224 5.37782 7.79297 -0.639495 0.892833 0.849241 0.727276
190 H 11.8321 3.03403 17.27 -1.1743 -0.164072 0.940711 1.41758
191 H 15.5592 16.5789 11.4068 0.0413339 0.534721 0.190739 0.21886
192 H 20.603 3.50678 2.48641 0.374688 0.404037 -0.276292 -0.404224
193 H 19.0008 17.1201 18.2322 0.699516 1.02645 0.165556 -0.62925
194 H 3.9453 6.91464 14.4893 0.0757198 -1.0499 -0.662331 -0.197126
195 H 11.711 18.0031 9.32498 0.8342 -0.705969 -0.0618757 0.801231
196 H 14.4525 11.8117 19.3676 -0.842329 -0.524078 -0.462222 1.1369
197 H 0.349706 14.6685 11.8749 -0.967642 1.49559 -0.0499541 0.108296
198 H 6.35227 8.68802 19.5884 0.443195 0.708514 0.0889635 -0.166813
199 H 16.954 7.13873 10.0337 0.520412 0.544902 0.202033 0.630979
200 H 14.6509 12.9162 10.7565 0.391611 -0.129087 0.324101 0.210088
201 H 11.2887 12.9135 12.4311 0.863244 -0.478551 -1.33132 1.0172
202 H 17.2937 3.39864 6.68072 0.0757702 0.802389 1.425 -0.0229756
203 H 19.7346 4.68086 14.1775 -0.391059 0.337643 1.88617 0.592541
204 H 14.4915 5.32276 17.8277 0.622144 0.0604924 0.289631 0.351415
205 H 2.83713 6.0413 4.47442 0.833714 -0.158736 0.0851653 1.01328
206 H 5.14929 0.868932 6.37597 -0.0659019 -0.942757 -0.468972 1.31646
207 H 2.16792 2.04526 12.3315 -0.0151605 -0.332368 0.6998 0.112153
208 H 0.819931 12.6007 9.26485 -0.21333 -0.329858 -0.155204 -0.290061
209 H 8.18449 14.4119 4.25592 0.391334 -1.20461 -0.582579 0.305103
210 H 10.5637 1.75197 15.6208 1.17818 1.47856 0.068845 1.47447
211 H 13.8856 7.55571 18.3361 -0.0861775 -0.321472 0.928862 -0.159301
212 H 15.7943 5.11585 12.861 0.0171258 0.994497 -0.686557 -0.114802
213 H 4.206 15.2452 11.2394 0.0575338 0.525786 0.358038 0.158065
214 H 2.19368 8.62712 14.9171 1.85327 -0.733066 0.109771 -0.187896
215 H 0.829044 3.37664 13.3883 -0.18465 1.3828 0.373957 0.359458
216 H 3.66049 8.89765 16.4613 -0.759679 0.114537 1.22923 -0.258386
217 H 19.9547 14.8009 7.71219 0.890695 -0.442268 0.220849 -0.11371
218 H 7.03811 8.83528 9.44098 -0.416278 -0.262683 1.25957 0.799762
219 H 0.0105333 1.68938 1.65073 0.585245 -1.58573 0.648878 -0.121286
220 H 14.5424 4.60158 11.3082 -0.270628 -0.659329 0.302741 0.603202
221 H 19.6916 4.21692 5.27216 0.82239 -0.378975 0.479575 0.155941
222 H 2.38703 14.7907 20.7696 0.251545 -0.364179 0.145977 0.186511
223 H 18.863 15.6357 20.3024 0.349965 -0.807159 0.647031 -0.356566
224 H 8.74083 12.4285 8.12423 0.111178 -1.13064 0.716411 0.223133
225 H 18.8008 14.9453 6.28312 -0.63842 -0.00708049 -0.412199 -0.102592
226 H 6.56116 4.03597 16.6451 -0.856939 0.12507 -0.0398379 -0.376014
227 H 16.9159 8.89669 15.3384 -0.106929 -0.54676 0.100657 -0.147994
228 H 21.0616 9.94272 5.1158 -0.31125 0.763525 -0.040962 -0.224391
229 H 0.823968 7.41297 15.5957 0.414609 -2.47861 0.894227 -0.0687018
230 H 18.3317 5.71658 11.6567 -0.0769949 -0.0565936 0.583556 0.26558
231 H 4.58992 9.78102 12.6617 1.14102 0.28776 0.0476124 -0.116724
232 H 17.874 15.0283 4.04661 0.642877 -0.679923 0.146761 0.415528
233 H 16.1684 6.49597 8.44805 0.166112 0.785596 -0.195434 0.534261
234 H 17.1489 4.78564 16.2564 -0.248739 0.371927 -0.175612 -0.0491641
235 H 10.6355 2.66643 4.76174 0.101104 -0.414046 -0.0560236 0.492914
236 H 9.13657 7.07241 14.357 -0.537206 0.291379 0.0137424 0.191674
237 H 6.04111 7.27969 1.36246 -0.07698 0.264421 -0.164769 0.198414
238 H 8.3867 16.2736 6.29784 0.612953 -0.231483 0.552068 0.589156
239 H 12.561 4.98484 7.8501 -0.761678 -0.296432 -1.22976 0.086183
240 H 20.6363 2.44141 9.49042 0.395652 0.328722 0.202082 0.811586
241 H 0.0879297 0.10306 12.8247 1.47729 -1.74042 0.277999 0.237027
242 H 7.81769 10.7288 0.520241 -0.497644 1.13395 0.400334 1.00029
243 H 5.55163 9.88273 1.77487 -0.534769 0.133074 -0.693025 1.22965
244 H 17.7206 15.8901 13.0746 -0.11968 0.428964 -0.39413 -0.118374
245 H 1.79415 9.39992 3.71573 -0.131377 -0.00536575 -0.634364 0.147983
246 H 14.0651 19.6208 0.64254 -1.5264 -0.173035 -0.433645 1.15875
247 H 11.2408 21.0634 6.36792 0.115252 0.485031 -0.621231 0.787737
248 H 9.77956 9.4021 17.112 -0.289862 -0.909518 -0.093787 0.0612555
249 H 0.394795 5.29692 18.8802 0.16632 -0.526257 0.169221 0.129969
250 H 8.34444 14.6595 12.2654 0.232805 -0.378934 -0.119691 -0.396001
251 H 19.9575 16.8679 2.47389 -0.673033 -0.0363859 0.0963926 -0.0720022
252 H 19.0038 6.73214 9.53428 -1.26688 -0.898432 -0.224698 -0.0496129
253 H 6.86123 14.189 20.5455 0.155983 0.672497 -0.0523437 0.262044
254 H 20.8111 9.82538 10.1094 0.246174 -0.610196 -0.971217 -0.132432
255 H 12.4406 8.46423 13.6972 0.0460466 0.212682 0.705513 0.22189
256 H 14.9652 16.1866 6.31664 0.0943462 -0.610699 -1.06959 -0.240962
257 H 4.79371 2.50941 7.13767 -0.623291 0.198442 -0.474593 0.210745
258 H 10.2851 13.6591 20.4875 0.225404 -0.393765 0.202572 0.347955
259 H 12.4341 20.3936 18.0529 -0.132792 -0.569434 0.59509 1.49418
260 H 10.6121 12.8372 18.3195 -0.739954 -0.657023 0.696799 0.237947
261 H 15.8021 11.2939 18.0492 -1.17799 0.00934503 -1.43991 0.235064
262 H 7.62527 19.2704 17.0459 0.05172 -0.262284 0.0595118 -0.08506
263 H 8.54579 1.80973 17.1928 -0.364043 0.684823 -0.197718 0.174162
264 H 10.9689 12.9045 1.18842 -0.38933 -0.715882 -0.0150346 0.123428
265 H 3.66991 10.0331 14.4842 0.645834 0.0819112 -0.0570884 -0.207862
266 H 13.8096 19.3485 11.4513 1.44668 1.39737 -1.25186 2.44377
267 H 13.1493 14.9233 12.9823 0.716155 -0.859907 0.461736 0.555206
268 H 19.7154 0.958115 12.0897 -1.40672 1.36418 0.54663 0.323332
269 H 19.2619 12.2277 2.8955 0.253072 -0.509284 0.814111 -0.0943499
270 H 12.9816 14.7754 15.2652 0.00372502 -0.00683947 -0.862862 0.165592
271 H 14.4998 3.01234 13.2735 -0.779984 -0.541761 -1.03956 0.372503
272 H 2.79036 11.8357 8.38076 0.261654 -0.497483 -0.031761 1.24879
273 H 20.7451 11.8765 4.59078 -0.633236 -0.15681 -0.151305 -0.0170681
274 H 5.00401 13.1046 11.5848 1.05237 -0.920228 -0.778495 -0.680428
275 H 5.06262 12.2959 0.000210949 0.281735 0.0630745 1.00954 0.0706281
276 H 14.7764 4.79025 1.68017 -0.112217 0.847633 0.326697 0.0817295
277 H 20.1786 13.0613 11.7305 0.230853 0.0320325 -1.84282 -0.0822873
278 H 15.0828 13.6916 8.18956 0.903781 0.422013 0.493765 -0.452353
279 H 7.58294 19.1619 2.82247 0.786945 0.713422 0.544995 0.796966
280 H 7.1899 17.291 0.0170595 0.0222902 -0.270315 -0.698683 1.34738
281 H 16.1523 9.71176 9.73984 -0.10757 0.266769 -0.89805 1.15386
282 H 7.96434 15.7377 19.1682 0.40248 -0.361204 0.76218 0.417928
283 H 5.20764 15.804 17.2085 -0.063068 -0.115357 -0.573815 0.400807
284 H 13.2112 6.90997 13.0045 -0.139646 -0.21301 0.175107 0.365093
285 H 2.41138 9.43532 7.60803 0.178258 -0.681896 0.1234 1.43821
286 H 10.5193 1.72737 7.77787 0.369615 0.123161 -0.203123 0.779598
287 H 7.03612 4.8837 3.36236 0.692323 0.104657 1.31695 -0.181577
288 H 16.4652 9.87415 1.19107 -0.705604 -0.128199 -0.0859164 0.364429
289 H 20.3289 6.53801 3.5645 -0.579427 -0.907669 -0.501859 -0.06764
290 H 11.3068 18.7213 6.27979 0.4569 0.0946116 -0.125087 0.183388
291 H 9.6003 14.3367 5.85296 -0.196915 0.407639 -0.740204 0.0862936
292 H 15.838 17.9414 5.572 0.481162 -0.0440703 1.04101 -0.190686
293 H 6.97859 5.48242 14.9152 -0.363218 0.126402 -0.980155 -0.0181944
294 H 10.3248 7.67925 17.0602 1.05997 -0.65621 -0.264891 0.621053
295 H 4.01204 20.6814 20.9119 -0.792751 0.396824 -0.0582604 0.524487
296 H 18.7627 11.6036 5.57939 -0.157673 0.28675 -0.792651 -0.417386
297 H 14.6654 0.0948183 4.26745 0.133092 -0.207441 0.411931 -0.0509595
298 H 20.5276 12.2757 7.90291 0.705755 -0.533688 0.0115082 -0.210276
299 H 17.9825 10.5001 6.92964 -0.427165 0.222588 0.717333 -0.975645
300 H 5.50294 14.8011 12.6627 0.134606 0.0977101 -1.0365 0.199904
301 H 17.9034 6.46718 14.5993 -0.682956 -0.847166 0.153121 0.146124
302 H 13.8089 11.6388 2.22709 0.723918 -0.406947 -1.82383 0.512854
303 H 17.3728 2.41094 15.4914 0.741214 -1.07278 -0.81795 0.263142
304 H 10.5106 20.3808 18.7859 -0.814039 -0.247409 0.567956 0.50694
305 H 12.7909 5.24968 5.26674 -2.00429 -0.915522 0.678238 0.239033
306 H 14.9193 10.1266 15.3352 -0.875626 -0.466605 1.13814 -0.212462
307 H 14.3184 5.80182 7.98707 -0.666312 -0.1593 1.81583 0.368883
308 H 14.9832 15.2376 0.557768 -0.452292 0.054629 -0.777608 0.566001
309 H 2.22111 6.01943 20.4056 -1.05986 -0.348735 -0.216687 -0.237766
310 H 2.03577 18.2618 7.61611 0.388522 -0.0474289 0.369353 0.706022
311 H 4.26894 20.9543 4.26459 -0.129691 -1.03246 -0.0184779 0.55793
312 H 5.17427 6.18717 0.191612 0.218129 0.191738 -0.126265 0.146909
313 H 9.88714 10.8006 15.8562 1.29924 0.229186 -0.398281 -0.161668
314 H 20.7874 9.57844 7.59781 0.692146 0.174069 0.613099 -0.360568
315 H 16.7783 3.62878 9.82992 -0.316071 -0.101137 0.91368 0.981063
316 H 20.6605 12.4777 1.43725 -0.447468 0.134791 0.769647 -0.00505403
317 H 2.1004 0.217816 11.2126 1.05131 -0.375034 -0.0970167 0.16035
318 H 20.406 12.535 17.9503 -0.114405 0.236204 1.89696 1.2701
319 H 17.0693 7.56267 18.7489 0.205241 -0.891172 -0.913713 0.147038
320 H 11.7839 8.58774 5.92227 -0.144056 -0.445384 0.128337 0.280069
321 H 4.85855 5.99285 5.83039 -1.67805 3.22458 1.86937 0.463953
322 H 6.86765 19.3034 15.3969 -0.727684 1.15627 0.623822 0.301788
323 H 14.3436 7.88368 3.99308 -1.18878 0.849021 -1.41562 0.00262235
324 H 8.18777 20.8014 1.72931 1.01981 0.152097 -0.320461 0.362621
325 H 17.7208 4.57805 19.8281 0.637997 0.328562 -0.248841 -0.00541554
326 H 12.4301 14.2306 8.3459 1.11292 -0.910126 -0.408762 0.249715
327 H 0.392602 17.0745 3.73239 -1.17749 1.0223 -0.666059 1.38652
328 H 18.537 6.14402 5.68776 -0.129495 0.00555099 -0.47288 -0.183746
329 H 2.8178 6.90775 16.0751 -0.255894 -1.12245 0.0244397 0.137467
330 H 12.2759 12.6349 3.25735 0.347153 0.165462 0.593688 0.140564
331 H 7.2998 13.3157 18.9363 0.13805 -0.318513 0.904231 0.699958
332 H 0.34324 16.8 10.9057 -0.430983 -0.608403 -0.636837 0.12968
333 H 2.02887 11.8997 13.8773 1.32957 -0.1641 -1.72491 -1.02882
334 H 16.1506 19.0312 16.0848 1.34427 0.32221 0.897426 0.516722
335 H 3.3996 4.86742 0.0212018 0.0777961 -1.14019 -1.27387 0.164938
336 H 8.14776 14.5853 8.36276 -1.47858 -0.00468652 0.458979 -0.55633
337 H 7.30888 13.1724 12.042 -0.291489 -0.154272 -0.55456 0.294605
338 H 11.9803 17.3713 14.7909 -1.91814 -0.916918 0.736513 4.81282
339 H 19.7277 3.09286 10.9075 0.100519 0.706118 -0.322857 1.05004
340 H 20.1838 2.82401 6.92584 0.0281495 -1.04227 -0.502375 0.28366
341 H 19.8422 9.90364 20.3383 -0.214587 -0.945456 2.0521 0.527764
342 H 6.50778 19.4451 20.8244 0.0067281 -0.526036 -0.343167 0.909955
343 H 4.44868 5.69525 19.7755 0.268471 0.296523 0.362476 -0.0658474
344 H 8.19888 4.67908 13.5507 -0.514866 0.12159 -0.542747 -0.154937
345 H 19.4821 10.5047 18.3317 0.293174 -1.48486 0.39025 0.932016
346 H 4.11127 5.35284 9.80421 0.204269 -0.0172679 0.213529 0.794484
347 H 2.67043 15.3762 8.67635 -0.0377662 -0.245578 -0.551933 0.112783
348 H 12.4602 5.18622 0.961281 -0.197933 -0.500384 1.42578 0.287532
349 H 14.1857 9.87035 6.5262 -1.15102 -0.441427 0.927772 -0.368115
350 H 13.9965 17.492 3.05006 0.558042 -0.27106 0.757688 0.440762
351 H 20.5205 16.0316 13.829 -0.640674 -0.105164 -1.42842 0.0942635
352 H 18.2317 0.457667 3.49914 -0.249843 0.586927 1.60169 0.035031
353 H 17.3097 16.9509 1.41931 0.779777 0.326044 -0.411866 0.680826
354 H 3.76391 5.25909 12.2178 -0.468503 0.0297004 -1.28382 0.60537
355 H 20.0443 7.69983 20.7528 0.520002 0.597192 0.601189 0.117978
356 H 19.7907 9.39981 16.3788 -1.61948 -5.1699 0.688128 0.163155
357 H 15.0665 7.51812 7.35035 0.788797 1.04249 0.21021 -0.152074
358 H 11.8611 13.0571 10.4374 -0.0049761 0.611208 -0.619741 0.262871
359 H 18.7615 16.9041 10.743 -0.341058 0.384605 0.635579 0.00164936
360 H 19.1751 2.97269 18.3407 -0.397925 0.829949 -0.173901 1.06764
361 H 13.5093 6.28082 21.1059 -1.87668 -1.07819 -1.50458 -0.0321581
362 H 16.7587 4.82001 2.21428 1.21083 -1.53531 -0.81412 -0.253756
363 H 1.49141 14.0327 1.46702 0.249996 0.731634 1.55864 0.0964291
364 H 2.90741 8.40018 9.95874 0.299689 0.542553 -0.468899 0.450753
365 H 15.6473 15.7281 8.54662 -0.522672 -0.0976633 0.638952 -0.0364465
366 H 4.55941 1.3915 11.0386 -0.161558 -0.055949 1.10601 0.0235928
367 H 12.7409 15.6983 16.9975 1.13899 0.0825107 -0.304073 0.11389
368 H 11.5138 15.0595 20.8938 -0.406742 -0.440082 0.158394 0.248042
369 H 19.5171 6.41622 18.3391 -0.446947 -0.69267 0.880454 -0.128801
370 H 5.24203 4.4934 6.92224 2.12716 -0.369877 0.522655 0.547773
371 H 18.2689 7.66857 0.681712 0.100645 -0.2266 0.44681 -0.156101
372 H 9.16798 1.724 3.95434 0.363403 0.0133765 0.0104571 0.572063
373 H 20.5778 3.81015 19.6973 0.0032081 1.16675 -0.545528 0.632037
374 H 18.8587 17.5413 14.2534 -1.48526 -0.200884 0.780172 0.074056
375 H 7.92765 11.8502 10.1238 -0.451855 1.15501 -0.711269 0.298853
376 H 19.1237 5.57374 0.17481 -0.177354 0.417636 -0.422965 -0.0674372
377 H 19.9869 6.80025 15.5952 -0.48897 -0.450136 0.0561574 -0.226811
378 H 9.7998 16.8045 19.9619 0.16191 0.163211 -0.637822 -0.09385
379 H 14.6873 12.7459 21.1297 -0.0409852 0.542773 0.238216 0.22095
380 H 13.3268 1.30274 9.61991 -0.393502 0.736463 0.552143 2.50497
381 H 13.5379 19.7327 8.50541 0.517571 0.328883 0.533011 -0.0268833
382 H 13.1843 15.1951 19.2469 0.641926 0.189533 -0.329581 -0.0980658
383 H 17.7412 1.60457 1.98022 -0.809659 -0.0150852 -2.14413 -0.0789259
384 H 10.0704 6.07303 19.1152 -0.644334 0.971242 -0.299951 -0.247961
385 H 17.2276 19.3306 3.92616 0.158091 -0.41797 -0.653369 -0.385775
386 H 14.314 1.09943 1.89278 -0.666311 -0.961508 -0.00889284 1.40771
387 H 0.0115615 5.86194 0.292525 -0.0244547 -0.988246 0.87948 -0.0521389
388 H 11.3006 12.7161 16.6329 0.126826 -1.18804 -0.0556669 0.139291
389 H 9.41269 18.1899 14.3285 -1.28838 -0.644736 -0.421953 0.323146
390 H 18.2308 6.19969 2.35686 -0.0831349 0.0154367 1.39626 -0.141097
391 H 6.10303 1.20581 13.4329 0.0713385 -0.620581 -1.35495 -0.0191306
392 H 17.6374 14.5153 19.085 -2.02937 0.354388 1.05229 0.223395
393 H 1.71139 3.64176 3.01382 -0.847529 -0.378682 -1.23566 0.158988
394 H 14.3855 5.03701 4.15271 1.56061 0.150093 -0.247325 -0.382869
395 H 0.425103 14.8303 19.865 -0.423844 -1.12757 0.259364 -0.286644
396 H 4.17302 9.51512 21.1543 1.09396 -1.04142 0.0537468 0.200496
397 H 2.64777 21.0678 19.446 -0.615016 0.105677 -0.870804 -0.00410795
398 H 2.65951 2.10835 3.24148 0.15524 0.0717333 -0.167482 0.42316
399 H 18.6234 10.3874 1.50007 -0.975988 -1.00427 -0.325343 -0.816913
400 H 17.5042 15.3692 9.2286 -0.0136148 0.120212 0.526658 -0.189111
401 H 3.29132 3.12226 9.01635 -0.0635716 -0.431426 0.493173 0.589266
402 H 1.99878 19.132 13.3135 -0.233878 0.272994 0.164104 0.582034
403 H 20.8338 14.4419 1.37491 -0.336352 1.83065 0.187156 0.0475785
404 H 16.8278 15.9709 5.2797 0.859281 0.247522 0.0503131 0.0987263
405 H 6.84419 5.52394 0.894181 0.0233105 0.119816 -0.312503 0.00873935
406 H 19.3104 1.52278 13.8513 -1.54547 1.71641 1.17835 -0.0362665
407 H 10.9194 6.98961 1.7061 -0.402089 -0.302202 0.127106 0.153462
408 H 8.79283 2.11108 9.68374 -0.0332408 -0.0794825 1.06815 0.635136
409 H 19.0531 8.9253 14.4231 -1.57009 0.163261 0.819136 0.274859
410 H 12.5741 2.11848 12.0243 0.70055 1.13129 0.584464 0.990977
411 H 4.14814 17.5916 17.324 -0.211083 0.569049 -0.972237 0.118911
412 H 14.3489 13.3571 2.12204 0.259251 0.54598 0.819183 0.310045
413 H 15.0026 7.0249 16.4564 0.162109 -1.52816 -1.74306 -0.0581195
414 H 2.72599 16.9296 6.04129 0.377112 -0.839769 0.938566 1.07611
415 H 8.43097 20.2127 20.5674 -0.536201 -0.117806 0.8205 0.497752
416 H 2.49942 14.606 13.9788 -0.675231 1.41385 -0.158812 0.00453058
417 H 3.20374 7.10893 7.69444 0.531978 0.591 0.464615 1.26416
418 H 15.2202 15.3695 13.701 -0.123369 0.561552 -0.27806 0.0650247
419 H 6.99639 12.4525 15.3119 -0.468181 0.0972747 0.294079 0.0872541
420 H 9.14222 6.53487 12.4909 -0.0381556 -0.490634 -0.439316 0.323942
421 H 7.94999 10.3685 6.64588 -0.182812 0.606678 -0.527973 3.30868
422 H 4.35498 14.238 17.8604 0.66854 0.0640726 1.03191 0.173936
423 H 16.8834 1.6693 7.50768 -0.545226 -0.400553 0.240876 0.411223
424 H 18.5242 4.23762 9.9878 -0.538101 0.299065 -0.453743 1.71186
425 H 2.8321 14.787 4.38222 0.665662 0.27013 -0.19306 1.05247
426 H 16.929 9.41024 19.3535 0.649302 1.30035 -1.83394 0.41784
427 H 11.371 11.1724 10.2446 0.383536 -0.551568 -0.0630114 0.592677
428 H 5.14329 11.2376 15.8148 1.42345 -0.529696 0.386171 -0.829813
429 H 7.22353 17.8665 4.12454 -0.0437622 0.230092 0.302741 1.102
430 H 2.84647 12.092 16.9641 1.67104 1.06069 -0.423768 0.0226526
431 H 12.9585 7.89467 0.648766 0.902453 1.77951 0.130333 -0.0107724
432 H 4.3845 12.574 6.97457 -0.0116482 -0.0298453 0.89376 1.75892
433 H 0.0326608 9.0061 14.3959 -1.83247 2.28637 -0.998704 -0.802474
434 H 2.85062 19.0541 2.94716 0.00710095 -0.208755 0.329836 0.291122
435 H 18.4785 11.9224 0.310318 0.739109 0.728267 -0.543501 -0.0773476
436 H 14.4705 11.4386 4.0239 0.974002 1.00374 -0.194493 -0.459466
437 H 15.4137 9.60608 20.6353 -0.767375 1.36603 -0.148881 -0.0555756
438 H 4.76239 16.6359 18.7649 -0.0275679 -1.49501 -0.496548 0.496943
439 H 19.8748 20.2327 4.20299 0.477395 -0.483592 0.838428 -0.128311
440 H 2.87595 12.7795 3.88108 -0.0585799 0.725652 -0.751982 1.23311
441 H 17.7045 10.6448 9.50147 -0.334041 0.526914 1.04845 0.096296
442 H 12.1211 17.9216 20.9254 -0.213032 0.965222 0.372354 0.222395
443 H 8.7334 17.1 15.6359 -0.176318 -0.412721 0.0226581 0.352463