 vasp.6.5.0 16Dec24 (build Jan 20 2025 08:32:48) complex                         
 executed on        HPECrayEX_GCC date 2025.07.28  23:05:27
 running  128 mpi-ranks, with    1 threads/rank, on    1 nodes
 distrk:  each k-point on  128 cores,    1 groups
 distr:  one band on NCORE=  16 cores,    8 groups


--------------------------------------------------------------------------------------------------------


 INCAR:
   SYSTEM = a-Si SPC
   NCORE = 16
   ISTART = 1
   ICHARG = 1
   ISPIN = 1
   ISYM = 1
   EDIFF = 1E-6
   NELM = 150
   EDIFFG = -0.01
   NSW = 0
   ISIF = 2
   IBRION = -1
   PREC = Accurate
   ENCUT = 1200
   KSPACING = 0.23
   KGAMMA = .TRUE.
   METAGGA = SCAN
   LASPH = .TRUE.
   LDIAG = .FALSE.
   LMIXTAU = .TRUE.
   ADDGRID = .TRUE.
   ALGO = Normal
   ISMEAR = 0
   SIGMA = 0.1
   LORBIT = 11
   NEDOS = 2000
   LWAVE = .FALSE.
   LCHARG = .FALSE.

 POTCAR:    PAW_PBE H 15Jun2001                   
 POTCAR:    PAW_PBE Si 05Jan2001                  
 POTCAR:    PAW_PBE H 15Jun2001                   
   SHA256 =  030f79b5d3ab3cf0e668861823c8fb652ff669f3e15e46930bd03bfd63a607b6 H/POTCAR              
   COPYR  = (c) Copyright 15Jun2001 Georg Kresse                                                    
   COPYR  = This file is part of the software VASP. Any use, copying, and all other rights are regul
   COPYR  = If you do not have a valid VASP license, you may not use, copy or distribute this file. 
   VRHFIN =H: ultrasoft test                                                                        
   LEXCH  = PE                                                                                      
   EATOM  =    12.4884 eV,    0.9179 Ry                                                             
                                                                                                    
   TITEL  = PAW_PBE H 15Jun2001                                                                     
   LULTRA =        F    use ultrasoft PP ?                                                          
   IUNSCR =        0    unscreen: 0-lin 1-nonlin 2-no                                               
   RPACOR =    0.000    partial core radius                                                         
   POMASS =    1.000; ZVAL   =    1.000    mass and valenz                                          
   RCORE  =    1.100    outmost cutoff radius                                                       
   RWIGS  =    0.700; RWIGS  =    0.370    wigner-seitz radius (au A)                               
   ENMAX  =  250.000; ENMIN  =  200.000 eV                                                          
   RCLOC  =    0.701    cutoff for local pot                                                        
   LCOR   =        T    correct aug charges                                                         
   LPAW   =        T    paw PP                                                                      
   EAUG   =  400.000                                                                                
   RMAX   =    1.123    core radius for proj-oper                                                   
   RAUG   =    1.200    factor for augmentation sphere                                              
   RDEP   =    1.112    radius for radial grids                                                     
   RDEPT  =    0.926    core radius for aug-charge                                                  
                                                                                                    
   Atomic configuration                                                                             
    2 entries                                                                                       
     n  l   j            E        occ.                                                              
     1  0  0.50        -6.4927   1.0000                                                             
     2  1  0.50        -3.4015   0.0000                                                             
   Description                                                                                      
     l       E           TYP  RCUT    TYP  RCUT                                                     
     0     -6.4927494     23  1.100                                                                 
     0      6.8029130     23  1.100                                                                 
     1     -4.0817478     23  1.100                                                                 
  local pseudopotential read in
  atomic valenz-charges read in
  non local Contribution for L=           0  read in
    real space projection operators read in
  non local Contribution for L=           0  read in
    real space projection operators read in
  non local Contribution for L=           1  read in
    real space projection operators read in
    PAW grid and wavefunctions read in

   number of l-projection  operators is LMAX  =           3
   number of lm-projection operators is LMMAX =           5

 POTCAR:    PAW_PBE Si 05Jan2001                  
   SHA256 =  79d9987ad8750f624c4d6acb2a16d13abf6a777132adc04dc6c8399be72b42bb Si/POTCAR             
   COPYR  = (c) Copyright 05Jan2001 Georg Kresse                                                    
   COPYR  = This file is part of the software VASP. Any use, copying, and all other rights are regul
   COPYR  = If you do not have a valid VASP license, you may not use, copy or distribute this file. 
   VRHFIN =Si: s2p2                                                                                 
   LEXCH  = PE                                                                                      
   EATOM  =   103.0669 eV,    7.5752 Ry                                                             
                                                                                                    
   TITEL  = PAW_PBE Si 05Jan2001                                                                    
   LULTRA =        F    use ultrasoft PP ?                                                          
   IUNSCR =        1    unscreen: 0-lin 1-nonlin 2-no                                               
   RPACOR =    1.500    partial core radius                                                         
   POMASS =   28.085; ZVAL   =    4.000    mass and valenz                                          
   RCORE  =    1.900    outmost cutoff radius                                                       
   RWIGS  =    2.480; RWIGS  =    1.312    wigner-seitz radius (au A)                               
   ENMAX  =  245.345; ENMIN  =  184.009 eV                                                          
   ICORE  =        2    local potential                                                             
   LCOR   =        T    correct aug charges                                                         
   LPAW   =        T    paw PP                                                                      
   EAUG   =  322.069                                                                                
   DEXC   =    0.000                                                                                
   RMAX   =    1.950    core radius for proj-oper                                                   
   RAUG   =    1.300    factor for augmentation sphere                                              
   RDEP   =    1.993    radius for radial grids                                                     
   RDEPT  =    1.837    core radius for aug-charge                                                  
                                                                                                    
   Atomic configuration                                                                             
    6 entries                                                                                       
     n  l   j            E        occ.                                                              
     1  0  0.50     -1785.8828   2.0000                                                             
     2  0  0.50      -139.4969   2.0000                                                             
     2  1  1.50       -95.5546   6.0000                                                             
     3  0  0.50       -10.8127   2.0000                                                             
     3  1  0.50        -4.0811   2.0000                                                             
     3  2  1.50        -4.0817   0.0000                                                             
   Description                                                                                      
     l       E           TYP  RCUT    TYP  RCUT                                                     
     0    -10.8127223     23  1.900                                                                 
     0     -7.6451159     23  1.900                                                                 
     1     -4.0811372     23  1.900                                                                 
     1      2.4879257     23  1.900                                                                 
     2     -4.0817478      7  1.900                                                                 
  local pseudopotential read in
  partial core-charges read in
  partial kinetic energy density read in
  atomic valenz-charges read in
  non local Contribution for L=           0  read in
    real space projection operators read in
  non local Contribution for L=           0  read in
    real space projection operators read in
  non local Contribution for L=           1  read in
    real space projection operators read in
  non local Contribution for L=           1  read in
    real space projection operators read in
    PAW grid and wavefunctions read in

   number of l-projection  operators is LMAX  =           4
   number of lm-projection operators is LMMAX =           8

 -----------------------------------------------------------------------------
|                                                                             |
|               ----> ADVICE to this user running VASP <----                  |
|                                                                             |
|     You have a (more or less) 'large supercell' and for larger cells it     |
|     might be more efficient to use real-space projection operators.         |
|     Therefore, try LREAL= Auto in the INCAR file.                           |
|     Mind: For very accurate calculation, you might also keep the            |
|     reciprocal projection scheme (i.e. LREAL=.FALSE.).                      |
|                                                                             |
 -----------------------------------------------------------------------------

 -----------------------------------------------------------------------------
|                                                                             |
|               ----> ADVICE to this user running VASP <----                  |
|                                                                             |
|     You enforced a specific xc type in the INCAR file but a different       |
|     type was found in the POTCAR file.                                      |
|     I HOPE YOU KNOW WHAT YOU ARE DOING!                                     |
|                                                                             |
 -----------------------------------------------------------------------------

  PAW_PBE H 15Jun2001                   :
 energy of atom  1       EATOM=  -12.4884
 kinetic energy error for atom=    0.0000 (will be added to EATOM!!)
  PAW_PBE Si 05Jan2001                  :
 energy of atom  2       EATOM= -103.0669
 kinetic energy error for atom=    0.0001 (will be added to EATOM!!)


 POSCAR:  H Si
  positions in cartesian coordinates
  No initial velocities read in


 exchange-correlation table for SCAN
   RHO(1)=    0.500       N(1)  =     2000
   RHO(2)=  100.500       N(2)  =     4000



--------------------------------------------------------------------------------------------------------


 ion  position               nearest neighbor table
   1  0.931  0.639  0.591-  16 0.74
   2  0.029  0.513  0.547-  21 0.75
   3  0.660  0.773  0.507-  30 1.61  22 1.74
   4  0.202  0.737  0.594-  38 1.47
   5  0.069  0.772  0.642-  38 1.48
   6  0.911  0.880  0.598-  10 0.75
   7  0.024  0.329  0.590-  42 1.49
   8  0.924  0.660  0.493-  18 0.75
   9  0.048  0.696  0.560-  38 1.49
  10  0.949  0.853  0.585-   6 0.75
  11  0.935  0.530  0.417-  70 1.49
  12  0.746  0.762  0.593-  30 1.49
  13  0.099  0.860  0.565-  38 1.48
  14  0.662  0.548  0.616-  48 1.48
  15  0.790  0.868  0.505-  49 1.50
  16  0.890  0.609  0.593-   1 0.74
  17  0.963  0.838  0.508-  65 1.49
  18  0.877  0.678  0.498-   8 0.75
  19  0.864  0.475  0.514-  40 1.47
  20  0.811  0.970  0.578-  29 1.48
  21  0.053  0.558  0.549-   2 0.75
  22  0.646  0.793  0.439-   3 1.74  69 2.44  60 2.44  49 2.54
  23  0.435  0.835  0.533-  33 2.32  56 2.33  34 2.35  60 2.38
  24  0.098  0.954  0.442-  58 2.27  32 2.37  65 2.42
  25  0.162  0.390  0.504-  42 2.29  45 2.34  39 2.35  51 2.36
  26  0.371  0.068  0.525-  62 2.34  31 2.35  56 2.35  61 2.56  36 2.57
  27  0.264  0.415  0.386-  43 2.38  45 2.38  51 2.44
  28  0.402  0.398  0.492-  35 2.31  54 2.33  51 2.35  43 2.38
  29  0.755  0.039  0.549-  20 1.48  53 2.36  52 2.36  71 2.36
  30  0.652  0.749  0.570-  12 1.49   3 1.61  33 2.32  48 2.37
  31  0.506  0.130  0.563-  71 2.32  26 2.35  41 2.41  61 2.70
  32  0.240  0.883  0.463-  67 2.32  24 2.37  56 2.38  50 2.39
  33  0.550  0.862  0.596-  30 2.32  23 2.32  71 2.33
  34  0.404  0.680  0.515-  55 2.29  46 2.35  23 2.35  64 2.47
  35  0.556  0.372  0.476-  28 2.31  41 2.37  66 2.38  59 2.43
  36  0.373  0.054  0.423-  50 2.36  62 2.38  61 2.42  26 2.57
  37  0.741  0.298  0.559-  52 2.32  40 2.36  41 2.37  63 2.63
  38  0.106  0.766  0.587-   4 1.47  13 1.48   5 1.48   9 1.49  67 3.05
  39  0.232  0.500  0.560-  54 2.34  25 2.35  64 2.38
  40  0.778  0.425  0.504-  19 1.47  63 2.31  59 2.34  37 2.36
  41  0.607  0.237  0.519-  35 2.37  37 2.37  31 2.41  57 2.42  66 2.78  63 2.99
  42  0.024  0.329  0.531-   7 1.49  68 2.29  25 2.29
  43  0.363  0.518  0.432-  46 2.30  27 2.38  28 2.38  64 2.44  45 3.09
  44  0.041  0.724  0.424-  70 2.29  67 2.29  65 2.32
  45  0.152  0.499  0.435-  70 2.31  25 2.34  27 2.38  64 2.58  43 3.09
  46  0.469  0.635  0.433-  69 2.30  43 2.30  34 2.35
  47  0.875  0.170  0.438-  68 2.33  63 2.33  53 2.38  52 2.56
  48  0.612  0.591  0.571-  14 1.48  55 2.27  30 2.37  59 2.38
  49  0.793  0.885  0.446-  15 1.50  53 2.40  65 2.53  22 2.54
  50  0.361  0.897  0.399-  36 2.36  32 2.39  60 2.42
  51  0.280  0.307  0.460-  28 2.35  62 2.36  25 2.36  27 2.44
  52  0.838  0.177  0.538-  37 2.32  29 2.36  68 2.41  47 2.56  63 2.81  53 2.95
  53  0.771  0.048  0.455-  29 2.36  57 2.36  47 2.38  49 2.40  52 2.95
  54  0.378  0.444  0.581-  55 2.27  28 2.33  39 2.34
  55  0.457  0.578  0.578-  54 2.27  48 2.27  34 2.29
  56  0.305  0.925  0.547-  23 2.33  26 2.35  32 2.38
  57  0.633  0.130  0.446-  61 2.31  66 2.34  53 2.36  41 2.42  63 3.11
  58  0.117  0.087  0.488-  24 2.27  68 2.34  62 2.38
  59  0.644  0.512  0.490-  40 2.34  48 2.38  69 2.42  35 2.43
  60  0.501  0.876  0.449-  61 2.35  23 2.38  50 2.42  22 2.44
  61  0.516  0.032  0.471-  57 2.31  60 2.35  36 2.42  71 2.53  26 2.56  31 2.70
  62  0.266  0.147  0.470-  26 2.34  51 2.36  58 2.38  36 2.38
  63  0.773  0.290  0.455-  40 2.31  47 2.33  66 2.38  37 2.63  52 2.81  41 2.99  57 3.11
  64  0.258  0.606  0.489-  67 2.33  39 2.38  43 2.44  34 2.47  45 2.58
  65  0.964  0.856  0.449-  17 1.49  44 2.32  24 2.42  49 2.53
  66  0.629  0.279  0.410-  57 2.34  35 2.38  63 2.38  41 2.78
  67  0.174  0.739  0.472-  44 2.29  32 2.32  64 2.33  38 3.05
  68  0.991  0.184  0.501-  42 2.29  47 2.33  58 2.34  52 2.41
  69  0.625  0.629  0.422-  46 2.30  59 2.42  22 2.44
  70  0.024  0.573  0.401-  11 1.49  44 2.29  45 2.31
  71  0.598  0.001  0.558-  31 2.32  33 2.33  29 2.36  61 2.53

  LATTYP: Found a simple tetragonal cell.
 ALAT       =    14.5595896387
 C/A-ratio  =     1.7134696869
  
  Lattice vectors:
  
 A1 = (  14.5595896387,   0.0000000000,   0.0000000000)
 A2 = (   0.0000000000,  14.5595896387,   0.0000000000)
 A3 = (   0.0000000000,   0.0000000000,  24.9474155000)


Analysis of symmetry for initial positions (statically):
=====================================================================
 Subroutine PRICEL returns:
 Original cell was already a primitive cell.
 

 Routine SETGRP: Setting up the symmetry group for a 
 simple tetragonal supercell.


 Subroutine GETGRP returns: Found  1 space group operations
 (whereof  1 operations were pure point group operations)
 out of a pool of 16 trial point group operations.


The static configuration has the point symmetry C_1 .


Analysis of symmetry for dynamics (positions and initial velocities):
=====================================================================
 Subroutine PRICEL returns:
 Original cell was already a primitive cell.
 

 Routine SETGRP: Setting up the symmetry group for a 
 simple tetragonal supercell.


 Subroutine GETGRP returns: Found  1 space group operations
 (whereof  1 operations were pure point group operations)
 out of a pool of 16 trial point group operations.


The dynamic configuration has the point symmetry C_1 .


 Subroutine INISYM returns: Found  1 space group operations
 (whereof  1 operations are pure point group operations),
 and found     1 'primitive' translations


----------------------------------------------------------------------------------------

                                     Primitive cell                                     

  volume of cell :    5288.3943

  direct lattice vectors                    reciprocal lattice vectors
    14.559589639  0.000000000  0.000000000     0.068683254  0.000000000  0.000000000
     0.000000000 14.559589639  0.000000000     0.000000000  0.068683254  0.000000000
     0.000000000  0.000000000 24.947415500     0.000000000  0.000000000  0.040084313

  length of vectors
    14.559589639 14.559589639 24.947415500     0.068683254  0.068683254  0.040084313

  position of ions in fractional coordinates (direct lattice)
     0.930782967  0.638866566  0.590616211
     0.029023130  0.513266436  0.547450021
     0.659764937  0.772891750  0.507362803
     0.202310747  0.737418560  0.594110312
     0.068925013  0.771681684  0.642232319
     0.911178973  0.880136833  0.598096301
     0.024105441  0.328614854  0.590250237
     0.924074166  0.659760752  0.492900322
     0.047894433  0.695780282  0.560011061
     0.948798799  0.853267181  0.585249601
     0.935280357  0.530065298  0.417157060
     0.745610325  0.761829181  0.592872923
     0.098566214  0.859846290  0.564821721
     0.662198835  0.547571149  0.615654817
     0.790305364  0.868098221  0.504685134
     0.889750263  0.609131454  0.592586423
     0.963195397  0.837806123  0.508089349
     0.877172879  0.678025896  0.498493110
     0.863744816  0.475026015  0.514474501
     0.811174668  0.970452577  0.577833410
     0.053369171  0.558378090  0.548647120
     0.645523085  0.792647491  0.438964212
     0.435454359  0.835112470  0.533201370
     0.097730203  0.954214807  0.442224963
     0.162373179  0.390163667  0.503843309
     0.370881290  0.068332135  0.525288524
     0.263698067  0.415268559  0.386105894
     0.401772720  0.397635813  0.492464565
     0.754750214  0.039297167  0.548933254
     0.651923514  0.748932895  0.570346025
     0.505680098  0.129810390  0.562630661
     0.239617080  0.883317123  0.462909802
     0.549540795  0.862458921  0.596201262
     0.403511319  0.679879509  0.515416326
     0.555747045  0.372363456  0.475791739
     0.372803340  0.053860021  0.422679951
     0.741208522  0.298299790  0.558655926
     0.105931512  0.765966214  0.586875349
     0.231594974  0.499565564  0.559885206
     0.777694139  0.425227764  0.503573819
     0.607060621  0.236773070  0.518669936
     0.024486349  0.329310746  0.530637718
     0.362621959  0.518104124  0.432274680
     0.041067890  0.724022049  0.423588239
     0.151565462  0.499015641  0.435091882
     0.468668785  0.635020037  0.433480592
     0.875244535  0.170148394  0.437563823
     0.612124730  0.591416885  0.570557533
     0.792714743  0.885290994  0.445509594
     0.360976078  0.897184295  0.398665728
     0.279819715  0.307310696  0.460248557
     0.838265539  0.176659412  0.537859666
     0.771370567  0.047956401  0.455107985
     0.378285577  0.443919348  0.580909384
     0.457134405  0.578262960  0.578225438
     0.305293315  0.925210819  0.546750948
     0.632583639  0.130064649  0.445820110
     0.117286881  0.087090439  0.488119257
     0.644435142  0.511500069  0.489519135
     0.501011671  0.875660030  0.449247073
     0.515631247  0.031941928  0.470803750
     0.266295111  0.146924085  0.470473187
     0.773044209  0.289915113  0.455162911
     0.257937226  0.605930088  0.489060651
     0.964240864  0.856445750  0.449232887
     0.628687378  0.278638726  0.410490790
     0.173797119  0.739089243  0.472267672
     0.991364067  0.183995373  0.501122428
     0.624951309  0.629075527  0.421726916
     0.024024588  0.572746469  0.401214961
     0.598142476  0.000662479  0.558143941

  ion indices of the primitive-cell ions
   primitive index   ion index
                 1           1
                 2           2
                 3           3
                 4           4
                 5           5
                 6           6
                 7           7
                 8           8
                 9           9
                10          10
                11          11
                12          12
                13          13
                14          14
                15          15
                16          16
                17          17
                18          18
                19          19
                20          20
                21          21
                22          22
                23          23
                24          24
                25          25
                26          26
                27          27
                28          28
                29          29
                30          30
                31          31
                32          32
                33          33
                34          34
                35          35
                36          36
                37          37
                38          38
                39          39
                40          40
                41          41
                42          42
                43          43
                44          44
                45          45
                46          46
                47          47
                48          48
                49          49
                50          50
                51          51
                52          52
                53          53
                54          54
                55          55
                56          56
                57          57
                58          58
                59          59
                60          60
                61          61
                62          62
                63          63
                64          64
                65          65
                66          66
                67          67
                68          68
                69          69
                70          70
                71          71

----------------------------------------------------------------------------------------


 -----------------------------------------------------------------------------
|                                                                             |
|           W    W    AA    RRRRR   N    N  II  N    N   GGGG   !!!           |
|           W    W   A  A   R    R  NN   N  II  NN   N  G    G  !!!           |
|           W    W  A    A  R    R  N N  N  II  N N  N  G       !!!           |
|           W WW W  AAAAAA  RRRRR   N  N N  II  N  N N  G  GGG   !            |
|           WW  WW  A    A  R   R   N   NN  II  N   NN  G    G                |
|           W    W  A    A  R    R  N    N  II  N    N   GGGG   !!!           |
|                                                                             |
|     The requested file  could not be found or opened for reading            |
|     k-point information. Automatic k-point generation is used as a          |
|     fallback, which may lead to unwanted results.                           |
|                                                                             |
 -----------------------------------------------------------------------------



Automatic generation of k-mesh.
 Grid dimensions derived from KSPACING:
 generate k-points for:    2    2    2

 Generating k-lattice:

  Cartesian coordinates                     Fractional coordinates (reciprocal lattice)
     0.034341627  0.000000000  0.000000000     0.500000000  0.000000000  0.000000000
     0.000000000  0.034341627  0.000000000     0.000000000  0.500000000  0.000000000
     0.000000000  0.000000000  0.020042156     0.000000000  0.000000000  0.500000000

  Length of vectors
     0.034341627  0.034341627  0.020042156

  Shift w.r.t. Gamma in fractional coordinates (k-lattice)
     0.000000000  0.000000000  0.000000000

 
 Subroutine IBZKPT returns following result:
 ===========================================
 
 Found      8 irreducible k-points:
 
 Following reciprocal coordinates:
            Coordinates               Weight
  0.000000  0.000000  0.000000      1.000000
  0.500000  0.000000  0.000000      1.000000
  0.000000  0.500000  0.000000      1.000000
  0.500000  0.500000  0.000000      1.000000
  0.000000  0.000000  0.500000      1.000000
  0.500000  0.000000  0.500000      1.000000
  0.000000  0.500000  0.500000      1.000000
  0.500000  0.500000  0.500000      1.000000
 
 Following cartesian coordinates:
            Coordinates               Weight
  0.000000  0.000000  0.000000      1.000000
  0.034342  0.000000  0.000000      1.000000
  0.000000  0.034342  0.000000      1.000000
  0.034342  0.034342  0.000000      1.000000
  0.000000  0.000000  0.020042      1.000000
  0.034342  0.000000  0.020042      1.000000
  0.000000  0.034342  0.020042      1.000000
  0.034342  0.034342  0.020042      1.000000
 


--------------------------------------------------------------------------------------------------------




 Dimension of arrays:
   k-points           NKPTS =      8   k-points in BZ     NKDIM =      8   number of bands    NBANDS=    152
   number of dos      NEDOS =   2000   number of ions     NIONS =     71
   non local maximal  LDIM  =      4   non local SUM 2l+1 LMDIM =      8
   total plane-waves  NPLWV = ******
   max r-space proj   IRMAX =      1   max aug-charges    IRDMAX= 411280
   dimension x,y,z NGX =   168 NGY =  168 NGZ =  288
   dimension x,y,z NGXF=   336 NGYF=  336 NGZF=  576
   support grid    NGXF=   672 NGYF=  672 NGZF= 1152
   ions per type =              21  50
   NGX,Y,Z   is equivalent  to a cutoff of  19.18, 19.18, 19.19 a.u.
   NGXF,Y,Z  is equivalent  to a cutoff of  38.37, 38.37, 38.38 a.u.

 SYSTEM =  a-Si SPC                                
 POSCAR =   H Si                                   

 Startparameter for this run:
   NWRITE =      2    write-flag & timer
   PREC   = accura    normal or accurate (medium, high low for compatibility)
   ISTART =      1    job   : 0-new  1-cont  2-samecut
   ICHARG =      1    charge: 1-file 2-atom 10-const
   ISPIN  =      1    spin polarized calculation?
   LNONCOLLINEAR =      F non collinear calculations
   LSORBIT =      F    spin-orbit coupling
   INIWAV =      1    electr: 0-lowe 1-rand  2-diag
   LASPH  =      T    aspherical Exc in radial PAW
 Electronic Relaxation 1
   ENCUT  = 1200.0 eV  88.20 Ry    9.39 a.u.  41.12 41.12 70.46*2*pi/ulx,y,z
   ENINI  = 1200.0     initial cutoff
   ENAUG  =  400.0 eV  augmentation charge cutoff
   NELM   =    150;   NELMIN=  2; NELMDL=  0     # of ELM steps 
   EDIFF  = 0.1E-05   stopping-criterion for ELM
   LREAL  =      F    real-space projection
   NLSPLINE    = F    spline interpolate recip. space projectors
   LCOMPAT=      F    compatible to vasp.4.4
   GGA_COMPAT  = T    GGA compatible to vasp.4.4-vasp.4.6
   LMAXPAW     = -100 max onsite density
   LMAXMIX     =    2 max onsite mixed and CHGCAR
   VOSKOWN=      0    Vosko Wilk Nusair interpolation
   ROPT   =    0.00000   0.00000
 Ionic relaxation
   EDIFFG = -.1E-01   stopping-criterion for IOM
   NSW    =      0    number of steps for IOM
   NBLOCK =      1;   KBLOCK =      1    inner block; outer block 
   IBRION =     -1    ionic relax: 0-MD 1-quasi-New 2-CG
   NFREE  =      0    steps in history (QN), initial steepest desc. (CG)
   ISIF   =      2    stress and relaxation
   IWAVPR =     10    prediction:  0-non 1-charg 2-wave 3-comb
   ISYM   =      1    0-nonsym 1-usesym 2-fastsym
   LCORR  =      T    Harris-Foulkes like correction to forces

   POTIM  = 0.5000    time-step for ionic-motion
   TEIN   =    0.0    initial temperature
   TEBEG  =    0.0;   TEEND  =   0.0 temperature during run
   SMASS  =  -3.00    Nose mass-parameter (am)
   estimated Nose-frequenzy (Omega)   =  0.10E-29 period in steps = 0.13E+47 mass=  -0.484E-26a.u.
   SCALEE = 1.0000    scale energy and forces
   NPACO  =    256;   APACO  = 10.0  distance and # of slots for P.C.
   PSTRESS=    0.0 pullay stress

  Mass of Ions in am
   POMASS =   1.00 28.09
  Ionic Valenz
   ZVAL   =   1.00  4.00
  Atomic Wigner-Seitz radii
   RWIGS  =  -1.00 -1.00
  virtual crystal weights 
   VCA    =   1.00  1.00
   NELECT =     221.0000    total number of electrons
   NUPDOWN=      -1.0000    fix difference up-down

 DOS related values:
   EMIN   =  10.00;   EMAX   =-10.00  energy-range for DOS
   EFERMI =   0.00;   METHOD = LEGACY      
   ISMEAR =     0;   SIGMA  =   0.10  broadening in eV -4-tet -1-fermi 0-gaus
   EFERMI_NEDOS =   21; number of points for ismear=-14 and -15

 Electronic relaxation 2 (details)
   IALGO  =     38    algorithm
   LDIAG  =      F    sub-space diagonalisation (order eigenvalues)
   LSUBROT=      F    optimize rotation matrix (better conditioning)
   TURBO    =      0    0=normal 1=particle mesh
   IRESTART =      0    0=no restart 2=restart with 2 vectors
   NREBOOT  =      0    no. of reboots
   NMIN     =      0    reboot dimension
   EREF     =   0.00    reference energy to select bands
   IMIX   =      4    mixing-type and parameters
     AMIX     =   0.40;   BMIX     =  1.00
     AMIX_MAG =   1.60;   BMIX_MAG =  1.00
     AMIN     =   0.10
     WC   =   100.;   INIMIX=   1;  MIXPRE=   1;  MAXMIX= -45

 Intra band minimization:
   WEIMIN = 0.0000     energy-eigenvalue tresh-hold
   EBREAK =  0.16E-08  absolut break condition
   DEPER  =   0.30     relativ break condition  

   TIME   =   0.40     timestep for ELM

  volume/ion in A,a.u.               =      74.48       502.65
  Fermi-wavevector in a.u.,A,eV,Ry     =   0.568108  1.073569  4.391237  0.322747
  Thomas-Fermi vector in A             =   1.607198

 Write flags
   LWAVE        =      F    write WAVECAR
   LDOWNSAMPLE  =      F    k-point downsampling of WAVECAR
   LCHARG       =      F    write CHGCAR
   LVTOT        =      F    write LOCPOT, total local potential
   LVHAR        =      F    write LOCPOT, Hartree potential only
   WRT_POTENTIAL= false  ! write potential to hdf5 file
   LELF         =      F    write electronic localiz. function (ELF)
   LORBIT       =     11    0 simple, 1 ext, 2 COOP (PROOUT), +10 PAW based schemes


 Python interface
   PLUGINS active      =      F    recompile with -DPLUGINS to activate

 Dipole corrections
   LMONO      =      F    monopole corrections only (constant potential shift)
   LDIPOL     =      F    correct potential (dipole corrections)
   IDIPOL     =      0    1-x, 2-y, 3-z, 4-all directions 
   EPSILON    =  1.0000000 bulk dielectric constant
   LVACPOTAV  =      F  vacuum potentials using an averaging scheme for the charge density
   VACPOTFLAT =  0.1000000 required flatness to determine vacuum potential

Coulomb truncation method
  LTRUNCATE          =      F  Coulomb kernel truncation to be used
  IDIMENSIONALITY    =      3  Dimensionality of cutoff (0 molecules / 2 surfaces)
  ISURFACE           =     -1  Direction of surface normal
  LCOARSEN           =      F  Coarsen the charge grid before padding, preferred


 Exchange correlation treatment:
   METAGGA = SCAN    functional components
   XC_C    = 1    coefficients multiplying the functional components
   LIBXC   =     F    Libxc                    
   VOSKOWN =     0    Vosko Wilk Nusair interpolation
   LHFCALC =     F    Hartree Fock is set to
   LHFONE  =     F    Hartree Fock one center treatment
   AEXX    =    0.0000 exact exchange contribution

 Parameters of functionals:
   SCAN:
     P1 =  0.000000E+00
     P2 =  0.000000E+00
     P3 =  0.000000E+00

 Accuracy and mixing parameters for tau-dependent meta-GGA functionals:
   LMAXTAU = 6
   LMIXTAU = T

 Van der Waals corrections
   IVDW    =     0    specifies the selected vdW correction

 Linear response parameters
   LEPSILON=     F    determine dielectric tensor
   LRPA    =     F    only Hartree local field effects (RPA)
   LNABLA  =     F    use nabla operator in PAW spheres
   LVEL    =     F    velocity operator in full k-point grid
   CSHIFT  =0.1000    complex shift for real part using Kramers Kronig
   OMEGAMAX=  -1.0    maximum frequency
   DEG_THRESHOLD= 0.2000000E-02 threshold for treating states as degnerate
   RTIME   =   -0.100 relaxation time in fs
  (WPLASMAI=    0.000 imaginary part of plasma frequency in eV, 0.658/RTIME)
   DFIELD  = 0.0000000 0.0000000 0.0000000 field for delta impulse in time

  Optional k-point grid parameters
   LKPOINTS_OPT  =     F    use optional k-point grid
   KPOINTS_OPT_MODE=     1    mode for optional k-point grid

 Orbital magnetization related:
   ORBITALMAG=     F  switch on orbital magnetization
   LCHIMAG   =     F  perturbation theory with respect to B field
   DQ        =  0.001000  dq finite difference perturbation B field
   LLRAUG    =     F  two centre corrections for induced B field
   LBONE     =     F  B-component reconstruction in AE one-centre
   LVGVCALC  =     T  calculate vGv susceptibility
   LVGVAPPL  =     F  apply vGv susceptibility instead of pGv for G=0

 Random number generation:
   RANDOM_GENERATOR = DEFAULT
   PCG_SEED         = not used


--------------------------------------------------------------------------------------------------------


 Static calculation
 charge density and potential will be updated during run
 non-spin polarized calculation
 Variant of blocked Davidson
 perform Loewdin sub-space diagonalisation
    ordering is kept fixed
    before iterative eigenvector-optimisation
 modified Broyden-mixing scheme, WC =      100.0
 initial mixing is a Kerker type mixing with AMIX =  0.4000 and BMIX =      1.0000
 Hartree-type preconditioning will be used
 using additional bands           41
 reciprocal scheme for non local part
 use partial core corrections
 calculate Harris-corrections to forces   (improved forces if not selfconsistent)
 use gradient corrections 
 use of overlap-Matrix (Vanderbilt PP)
 Gauss-broadening in eV      SIGMA  =   0.10


--------------------------------------------------------------------------------------------------------


  energy-cutoff  :     1200.00
  volume of cell :     5288.39
      direct lattice vectors                 reciprocal lattice vectors
    14.559589639  0.000000000  0.000000000     0.068683254  0.000000000  0.000000000
     0.000000000 14.559589639  0.000000000     0.000000000  0.068683254  0.000000000
     0.000000000  0.000000000 24.947415500     0.000000000  0.000000000  0.040084313

  length of vectors
    14.559589639 14.559589639 24.947415500     0.068683254  0.068683254  0.040084313



 old parameters found on file WAVECAR:
  energy-cutoff  :     1200.00
  volume of cell :     5288.39
      direct lattice vectors                 reciprocal lattice vectors
    14.559589639  0.000000000  0.000000000     0.068683254  0.000000000  0.000000000
     0.000000000 14.559589639  0.000000000     0.000000000  0.068683254  0.000000000
     0.000000000  0.000000000 24.947415500     0.000000000  0.000000000  0.040084313

  length of vectors


 k-points in units of 2pi/SCALE and weight: read from INCAR                         
   0.00000000  0.00000000  0.00000000       0.125
   0.03434163  0.00000000  0.00000000       0.125
   0.00000000  0.03434163  0.00000000       0.125
   0.03434163  0.03434163  0.00000000       0.125
   0.00000000  0.00000000  0.02004216       0.125
   0.03434163  0.00000000  0.02004216       0.125
   0.00000000  0.03434163  0.02004216       0.125
   0.03434163  0.03434163  0.02004216       0.125

 k-points in reciprocal lattice and weights: read from INCAR                         
   0.00000000  0.00000000  0.00000000       0.125
   0.50000000  0.00000000  0.00000000       0.125
   0.00000000  0.50000000  0.00000000       0.125
   0.50000000  0.50000000  0.00000000       0.125
   0.00000000  0.00000000  0.50000000       0.125
   0.50000000  0.00000000  0.50000000       0.125
   0.00000000  0.50000000  0.50000000       0.125
   0.50000000  0.50000000  0.50000000       0.125

 position of ions in fractional coordinates (direct lattice) 
   0.93078297  0.63886657  0.59061621
   0.02902313  0.51326644  0.54745002
   0.65976494  0.77289175  0.50736280
   0.20231075  0.73741856  0.59411031
   0.06892501  0.77168168  0.64223232
   0.91117897  0.88013683  0.59809630
   0.02410544  0.32861485  0.59025024
   0.92407417  0.65976075  0.49290032
   0.04789443  0.69578028  0.56001106
   0.94879880  0.85326718  0.58524960
   0.93528036  0.53006530  0.41715706
   0.74561032  0.76182918  0.59287292
   0.09856621  0.85984629  0.56482172
   0.66219884  0.54757115  0.61565482
   0.79030536  0.86809822  0.50468513
   0.88975026  0.60913145  0.59258642
   0.96319540  0.83780612  0.50808935
   0.87717288  0.67802590  0.49849311
   0.86374482  0.47502601  0.51447450
   0.81117467  0.97045258  0.57783341
   0.05336917  0.55837809  0.54864712
   0.64552309  0.79264749  0.43896421
   0.43545436  0.83511247  0.53320137
   0.09773020  0.95421481  0.44222496
   0.16237318  0.39016367  0.50384331
   0.37088129  0.06833213  0.52528852
   0.26369807  0.41526856  0.38610589
   0.40177272  0.39763581  0.49246456
   0.75475021  0.03929717  0.54893325
   0.65192351  0.74893290  0.57034603
   0.50568010  0.12981039  0.56263066
   0.23961708  0.88331712  0.46290980
   0.54954080  0.86245892  0.59620126
   0.40351132  0.67987951  0.51541633
   0.55574705  0.37236346  0.47579174
   0.37280334  0.05386002  0.42267995
   0.74120852  0.29829979  0.55865593
   0.10593151  0.76596621  0.58687535
   0.23159497  0.49956556  0.55988521
   0.77769414  0.42522776  0.50357382
   0.60706062  0.23677307  0.51866994
   0.02448635  0.32931075  0.53063772
   0.36262196  0.51810412  0.43227468
   0.04106789  0.72402205  0.42358824
   0.15156546  0.49901564  0.43509188
   0.46866879  0.63502004  0.43348059
   0.87524453  0.17014839  0.43756382
   0.61212473  0.59141688  0.57055753
   0.79271474  0.88529099  0.44550959
   0.36097608  0.89718430  0.39866573
   0.27981972  0.30731070  0.46024856
   0.83826554  0.17665941  0.53785967
   0.77137057  0.04795640  0.45510799
   0.37828558  0.44391935  0.58090938
   0.45713441  0.57826296  0.57822544
   0.30529331  0.92521082  0.54675095
   0.63258364  0.13006465  0.44582011
   0.11728688  0.08709044  0.48811926
   0.64443514  0.51150007  0.48951914
   0.50101167  0.87566003  0.44924707
   0.51563125  0.03194193  0.47080375
   0.26629511  0.14692408  0.47047319
   0.77304421  0.28991511  0.45516291
   0.25793723  0.60593009  0.48906065
   0.96424086  0.85644575  0.44923289
   0.62868738  0.27863873  0.41049079
   0.17379712  0.73908924  0.47226767
   0.99136407  0.18399537  0.50112243
   0.62495131  0.62907553  0.42172692
   0.02402459  0.57274647  0.40121496
   0.59814248  0.00066248  0.55814394

 position of ions in cartesian coordinates  (Angst):
  13.55181804  9.30163503 14.73434802
   0.42256486  7.47294869 13.65746315
   9.60590674 11.25298672 12.65739065
   2.94556146 10.73651162 14.82151680
   1.00351990 11.23536865 16.02203650
  13.26639194 12.81443112 14.92095692
   0.35096533  4.78449742 14.72521790
  13.45414065  9.60584581 12.29658914
   0.69732329 10.13027539 13.97082863
  13.81412116 12.42322001 14.60046496
  13.61729819  7.71753322 10.40699050
  10.85578036 11.09192025 14.79064715
   1.43508363 12.51900913 14.09084216
   9.64134330  7.97241123 15.35899652
  11.50652179 12.63915387 12.59058973
  12.95439871  8.86870401 14.78349971
  14.02372972 12.19811335 12.67551609
  12.77127716  9.87177881 12.43611475
  12.57577007  6.91618384 12.83480915
  11.81037029 14.12939128 14.41545018
   0.77703323  8.12975586 13.68732766
   9.39855122 11.54062219 10.95102259
   6.34003677 12.15889486 13.30199612
   1.42291165 13.89297601 11.03236989
   2.36408686  5.68062288 12.56958838
   5.39987939  0.99488784 13.10459106
   3.83933564  6.04613981  9.63234416
   5.84964593  5.78941426 12.28571812
  10.98885340  0.57215062 13.69446597
   9.49173884 10.90415562 14.22865927
   7.36249471  1.88998601 14.03618087
   3.48872635 12.86073483 11.54840318
   8.00108847 12.55704797 14.87368061
   5.87495922  9.89876665 12.85830524
   8.09144892  5.42145912 11.86977420
   5.42786365  0.78417981 10.54477235
  10.79169191  4.34312253 13.93702150
   1.54231935 11.15215375 14.64102319
   3.37192778  7.27346961 13.96768887
  11.32290753  6.19114174 12.56286530
   8.83855353  3.44731873 12.93947440
   0.35651119  4.79462933 13.23803963
   5.27962691  7.54338344 10.78413606
   0.59793162 10.54146393 10.56743179
   2.20673093  7.26546296 10.85441795
   6.82362519  9.24563115 10.81422045
  12.74320126  2.47729079 10.91608650
   8.91228487  8.61078715 14.23393585
  11.54160136 12.88947358 11.11431295
   5.25566356 13.06263517  9.94567957
   4.07406023  4.47431762 11.48201198
  12.20480226  2.57208855 13.41820858
  11.23083891  0.69822552 11.35376800
   5.50768277  6.46328354 14.49218776
   6.65568935  8.41927140 14.42523026
   4.44494538 13.47068986 13.64002307
   9.21015820  1.89368791 11.12205953
   1.70764886  1.26800105 12.17731393
   9.38271121  7.44723110 12.21223726
   7.29452434 12.74925070 11.20755338
   7.50737936  0.46506137 11.74533676
   3.87714754  2.13915438 11.73709008
  11.25520646  4.22104508 11.35513825
   3.75546017  8.82209343 12.20079926
  14.03895130 12.46949867 11.20719948
   9.15343023  4.05686551 10.24068430
   2.53041473 10.76083609 11.78185783
  14.43385400  2.67889713 12.50170943
   9.09903461  9.15908152 10.52099660
   0.34978814  8.33895355 10.00927633
   8.70870899  0.00964542 13.92424881



--------------------------------------------------------------------------------------------------------


 k-point     1 :   0.0000 0.0000 0.0000  plane waves:  499109
 k-point     2 :   0.5000 0.0000 0.0000  plane waves:  499254
 k-point     3 :   0.0000 0.5000 0.0000  plane waves:  499254
 k-point     4 :   0.5000 0.5000 0.0000  plane waves:  499108
 k-point     5 :   0.0000 0.0000 0.5000  plane waves:  499204
 k-point     6 :   0.5000 0.0000 0.5000  plane waves:  499184
 k-point     7 :   0.0000 0.5000 0.5000  plane waves:  499184
 k-point     8 :   0.5000 0.5000 0.5000  plane waves:  499184

 maximum and minimum number of plane-waves per node :     31319    31126

 maximum number of plane-waves:    499254
 maximum index in each direction: 
   IXMAX=   41   IYMAX=   41   IZMAX=   70
   IXMIN=  -41   IYMIN=  -41   IZMIN=  -70


 parallel 3D FFT for wavefunctions:
    minimum data exchange during FFTs selected (reduces bandwidth)
 parallel 3D FFT for charge:
    minimum data exchange during FFTs selected (reduces bandwidth)


 total amount of memory used by VASP MPI-rank0   347047. kBytes
=======================================================================

   base                                    :      30000. kBytes
   nonl-proj                               :      67426. kBytes
   fftplans                                :      97987. kBytes
   grid                                    :      75605. kBytes
   one-center                              :         15. kBytes
   wavefun                                 :      76014. kBytes

     INWAV:  cpu time     22.5254: real time     22.5396
 Broyden mixing: mesh for mixing (old mesh)
   NGX = 83   NGY = 83   NGZ =141
  (NGX  =336   NGY  =336   NGZ  =576)
  gives a total of 971349 points

 initial charge density was supplied:
 number of electron     220.9999999 magnetization 
 keeping initial charge density in first step


--------------------------------------------------------------------------------------------------------


 Maximum index for augmentation-charges        11099 (set IRDMAX)


--------------------------------------------------------------------------------------------------------


 First call to EWALD:  gamma=   0.102
 Maximum number of real-space cells   3x   3x   2
 Maximum number of reciprocal cells   2x   2x   4

    FEWALD:  cpu time      0.0128: real time      0.0131


--------------------------------------- Ionic step        1  -------------------------------------------




--------------------------------------- Iteration      1(   1)  ---------------------------------------


    POTLOK:  cpu time      1.8910: real time      1.8916
    SETDIJ:  cpu time      1.3455: real time      1.3469
    EDDIAG:  cpu time     43.5944: real time     43.6172
     EDDAV:  cpu time    194.5724: real time    194.6769
       DOS:  cpu time      0.0072: real time      0.0076
    CHARGE:  cpu time     24.5876: real time     24.6105
    MIXING:  cpu time      0.0453: real time      0.0459
    --------------------------------------------
      LOOP:  cpu time    266.0435: real time    266.1967

 eigenvalue-minimisations  :  2496
 total energy-change (2. order) :-0.5734643E+03  (-0.6549657E+00)
 number of electron     220.9999999 magnetization 
 augmentation part      -10.9628021 magnetization 

 Broyden mixing:
  rms(total) = 0.85528E+00    rms(broyden)= 0.22861E+02
  rms(prec ) = 0.88773E+00
  weight for this iteration     100.00
  WARNING: grid for Broyden might be to small

 Free energy of the ion-electron system (eV)
  ---------------------------------------------------
  alpha Z        PSCENC =        19.72255585
  Ewald energy   TEWEN  =     22382.23777030
  -Hartree energ DENC   =    -26924.81761370
  -exchange      EXHF   =         0.00000000
  -V(xc)+E(xc)   XCENC  =      -183.90991175
  PAW double counting   =     18726.50366797   -18228.18118782
  entropy T*S    EENTRO =        -0.11925474
  eigenvalues    EBANDS =     -1780.49768316
  atomic energy  EATOM  =      5415.59739267
  Solvation  Ediel_sol  =         0.00000000
  ---------------------------------------------------
  free energy    TOTEN  =      -573.46426438 eV

  energy without entropy =     -573.34500963  energy(sigma->0) =     -573.40463700


--------------------------------------------------------------------------------------------------------




--------------------------------------- Iteration      1(   2)  ---------------------------------------


    POTLOK:  cpu time      1.8575: real time      1.8790
    SETDIJ:  cpu time      1.3380: real time      1.3389
    EDDIAG:  cpu time     43.6170: real time     43.6376
     EDDAV:  cpu time    192.4023: real time    192.5108
       DOS:  cpu time      0.0036: real time      0.0036
    CHARGE:  cpu time     24.5419: real time     24.5651
    MIXING:  cpu time      0.0385: real time      0.0385
    --------------------------------------------
      LOOP:  cpu time    263.7988: real time    263.9735

 eigenvalue-minimisations  :  2464
 total energy-change (2. order) : 0.3890936E+02  (-0.6322365E+00)
 number of electron     220.9999999 magnetization 
 augmentation part      -10.9260696 magnetization 

 Broyden mixing:
  rms(total) = 0.58793E+00    rms(broyden)= 0.13158E+02
  rms(prec ) = 0.60445E+00
  weight for this iteration     100.00
  WARNING: grid for Broyden might be to small

 eigenvalues of (default mixing * dielectric matrix)
  average eigenvalue GAMMA=   0.6348
  0.6348

 Free energy of the ion-electron system (eV)
  ---------------------------------------------------
  alpha Z        PSCENC =        19.72255585
  Ewald energy   TEWEN  =     22382.23777030
  -Hartree energ DENC   =    -26915.50674079
  -exchange      EXHF   =         0.00000000
  -V(xc)+E(xc)   XCENC  =      -179.76813540
  PAW double counting   =     22252.34332245   -21753.87932036
  entropy T*S    EENTRO =        -0.11265879
  eigenvalues    EBANDS =     -1755.18908632
  atomic energy  EATOM  =      5415.59739267
  Solvation  Ediel_sol  =         0.00000000
  ---------------------------------------------------
  free energy    TOTEN  =      -534.55490038 eV

  energy without entropy =     -534.44224159  energy(sigma->0) =     -534.49857099


--------------------------------------------------------------------------------------------------------




--------------------------------------- Iteration      1(   3)  ---------------------------------------


    POTLOK:  cpu time      1.8587: real time      1.8803
    SETDIJ:  cpu time      1.3375: real time      1.3385
    EDDIAG:  cpu time     43.8008: real time     43.8244
     EDDAV:  cpu time    192.2774: real time    192.3864
       DOS:  cpu time      0.0026: real time      0.0026
    CHARGE:  cpu time     24.5146: real time     24.5360
    MIXING:  cpu time      0.0363: real time      0.0363
    --------------------------------------------
      LOOP:  cpu time    263.8279: real time    264.0045

 eigenvalue-minimisations  :  2448
 total energy-change (2. order) :-0.1412589E+01  (-0.4752804E+00)
 number of electron     220.9999999 magnetization 
 augmentation part      -10.8941032 magnetization 

 Broyden mixing:
  rms(total) = 0.28571E+00    rms(broyden)= 0.16561E+02
  rms(prec ) = 0.34279E+00
  weight for this iteration     100.00
  WARNING: grid for Broyden might be to small

 eigenvalues of (default mixing * dielectric matrix)
  average eigenvalue GAMMA=   0.7157
  0.8091  0.6223

 Free energy of the ion-electron system (eV)
  ---------------------------------------------------
  alpha Z        PSCENC =        19.72255585
  Ewald energy   TEWEN  =     22382.23777030
  -Hartree energ DENC   =    -26915.82643817
  -exchange      EXHF   =         0.00000000
  -V(xc)+E(xc)   XCENC  =      -180.92751253
  PAW double counting   =     26094.15647776   -25595.77133370
  entropy T*S    EENTRO =        -0.12476144
  eigenvalues    EBANDS =     -1755.03163977
  atomic energy  EATOM  =      5415.59739267
  Solvation  Ediel_sol  =         0.00000000
  ---------------------------------------------------
  free energy    TOTEN  =      -535.96748902 eV

  energy without entropy =     -535.84272758  energy(sigma->0) =     -535.90510830


--------------------------------------------------------------------------------------------------------




--------------------------------------- Iteration      1(   4)  ---------------------------------------


    POTLOK:  cpu time      1.8667: real time      1.8817
    SETDIJ:  cpu time      1.3430: real time      1.3438
    EDDIAG:  cpu time     43.7316: real time     43.7549
     EDDAV:  cpu time    206.0895: real time    206.2008
       DOS:  cpu time      0.0033: real time      0.0033
    CHARGE:  cpu time     24.5217: real time     24.5430
    MIXING:  cpu time      0.0359: real time      0.0359
    --------------------------------------------
      LOOP:  cpu time    277.5917: real time    277.7633

 eigenvalue-minimisations  :  2768
 total energy-change (2. order) : 0.1065140E+00  (-0.1119781E+00)
 number of electron     220.9999999 magnetization 
 augmentation part      -10.8891111 magnetization 

 Broyden mixing:
  rms(total) = 0.12263E+00    rms(broyden)= 0.75030E+00
  rms(prec ) = 0.17424E+00
  weight for this iteration     100.00
  WARNING: grid for Broyden might be to small

 eigenvalues of (default mixing * dielectric matrix)
  average eigenvalue GAMMA=   0.8767
  1.4858  0.6334  0.5109

 Free energy of the ion-electron system (eV)
  ---------------------------------------------------
  alpha Z        PSCENC =        19.72255585
  Ewald energy   TEWEN  =     22382.23777030
  -Hartree energ DENC   =    -26917.65927696
  -exchange      EXHF   =         0.00000000
  -V(xc)+E(xc)   XCENC  =      -181.09770241
  PAW double counting   =     29581.35218788   -29083.00862146
  entropy T*S    EENTRO =        -0.08524177
  eigenvalues    EBANDS =     -1752.92003912
  atomic energy  EATOM  =      5415.59739267
  Solvation  Ediel_sol  =         0.00000000
  ---------------------------------------------------
  free energy    TOTEN  =      -535.86097501 eV

  energy without entropy =     -535.77573324  energy(sigma->0) =     -535.81835413


--------------------------------------------------------------------------------------------------------




--------------------------------------- Iteration      1(   5)  ---------------------------------------


    POTLOK:  cpu time      1.8665: real time      1.8830
    SETDIJ:  cpu time      1.3421: real time      1.3428
    EDDIAG:  cpu time     43.7509: real time     43.7746
     EDDAV:  cpu time    201.6855: real time    201.7997
       DOS:  cpu time      0.0036: real time      0.0036
    CHARGE:  cpu time     24.5178: real time     24.5408
    MIXING:  cpu time      0.0363: real time      0.0363
    --------------------------------------------
      LOOP:  cpu time    273.2028: real time    273.3809

 eigenvalue-minimisations  :  2664
 total energy-change (2. order) : 0.4383116E-01  (-0.2741258E-01)
 number of electron     220.9999999 magnetization 
 augmentation part      -10.8919265 magnetization 

 Broyden mixing:
  rms(total) = 0.42067E-01    rms(broyden)= 0.13635E+01
  rms(prec ) = 0.52786E-01
  weight for this iteration     100.00
  WARNING: grid for Broyden might be to small

 eigenvalues of (default mixing * dielectric matrix)
  average eigenvalue GAMMA=   1.0401
  2.4211  0.7425  0.6180  0.3789

 Free energy of the ion-electron system (eV)
  ---------------------------------------------------
  alpha Z        PSCENC =        19.72255585
  Ewald energy   TEWEN  =     22382.23777030
  -Hartree energ DENC   =    -26917.57100201
  -exchange      EXHF   =         0.00000000
  -V(xc)+E(xc)   XCENC  =      -181.63041128
  PAW double counting   =     29647.35382106   -29149.00320824
  entropy T*S    EENTRO =        -0.12130640
  eigenvalues    EBANDS =     -1752.40275581
  atomic energy  EATOM  =      5415.59739267
  Solvation  Ediel_sol  =         0.00000000
  ---------------------------------------------------
  free energy    TOTEN  =      -535.81714385 eV

  energy without entropy =     -535.69583744  energy(sigma->0) =     -535.75649065


--------------------------------------------------------------------------------------------------------




--------------------------------------- Iteration      1(   6)  ---------------------------------------


    POTLOK:  cpu time      1.8555: real time      1.8818
    SETDIJ:  cpu time      1.3421: real time      1.3426
    EDDIAG:  cpu time     43.7275: real time     43.7531
     EDDAV:  cpu time    196.3661: real time    196.4789
       DOS:  cpu time      0.0043: real time      0.0043
    CHARGE:  cpu time     24.5231: real time     24.5474
    MIXING:  cpu time      0.0372: real time      0.0372
    --------------------------------------------
      LOOP:  cpu time    267.8557: real time    268.0454

 eigenvalue-minimisations  :  2544
 total energy-change (2. order) :-0.3201130E-02  (-0.6365090E-02)
 number of electron     220.9999999 magnetization 
 augmentation part      -10.8914095 magnetization 

 Broyden mixing:
  rms(total) = 0.20797E-01    rms(broyden)= 0.23494E+00
  rms(prec ) = 0.22579E-01
  weight for this iteration     100.00
  WARNING: grid for Broyden might be to small

 eigenvalues of (default mixing * dielectric matrix)
  average eigenvalue GAMMA=   1.0298
  2.5735  0.9119  0.6328  0.6328  0.3979

 Free energy of the ion-electron system (eV)
  ---------------------------------------------------
  alpha Z        PSCENC =        19.72255585
  Ewald energy   TEWEN  =     22382.23777030
  -Hartree energ DENC   =    -26917.85345920
  -exchange      EXHF   =         0.00000000
  -V(xc)+E(xc)   XCENC  =      -181.80750236
  PAW double counting   =     29395.59976423   -28897.23674700
  entropy T*S    EENTRO =        -0.11718175
  eigenvalues    EBANDS =     -1751.96293773
  atomic energy  EATOM  =      5415.59739267
  Solvation  Ediel_sol  =         0.00000000
  ---------------------------------------------------
  free energy    TOTEN  =      -535.82034498 eV

  energy without entropy =     -535.70316323  energy(sigma->0) =     -535.76175410


--------------------------------------------------------------------------------------------------------




--------------------------------------- Iteration      1(   7)  ---------------------------------------


    POTLOK:  cpu time      1.9343: real time      1.9603
    SETDIJ:  cpu time      1.3347: real time      1.3354
    EDDIAG:  cpu time     43.6905: real time     43.7151
     EDDAV:  cpu time    209.7146: real time    209.8332
       DOS:  cpu time      0.0044: real time      0.0044
    CHARGE:  cpu time     24.5436: real time     24.5659
    MIXING:  cpu time      0.0383: real time      0.0383
    --------------------------------------------
      LOOP:  cpu time    281.2603: real time    281.4526

 eigenvalue-minimisations  :  2848
 total energy-change (2. order) :-0.6483588E-03  (-0.7097677E-03)
 number of electron     220.9999999 magnetization 
 augmentation part      -10.8902780 magnetization 

 Broyden mixing:
  rms(total) = 0.10849E-01    rms(broyden)= 0.87686E-01
  rms(prec ) = 0.11769E-01
  weight for this iteration     100.00
  WARNING: grid for Broyden might be to small

 eigenvalues of (default mixing * dielectric matrix)
  average eigenvalue GAMMA=   1.0331
  2.5602  1.1685  0.8131  0.4016  0.6275  0.6275

 Free energy of the ion-electron system (eV)
  ---------------------------------------------------
  alpha Z        PSCENC =        19.72255585
  Ewald energy   TEWEN  =     22382.23777030
  -Hartree energ DENC   =    -26917.99627109
  -exchange      EXHF   =         0.00000000
  -V(xc)+E(xc)   XCENC  =      -181.74381408
  PAW double counting   =     29378.35422396   -28879.98358793
  entropy T*S    EENTRO =        -0.11833898
  eigenvalues    EBANDS =     -1751.89092404
  atomic energy  EATOM  =      5415.59739267
  Solvation  Ediel_sol  =         0.00000000
  ---------------------------------------------------
  free energy    TOTEN  =      -535.82099334 eV

  energy without entropy =     -535.70265435  energy(sigma->0) =     -535.76182385


--------------------------------------------------------------------------------------------------------




--------------------------------------- Iteration      1(   8)  ---------------------------------------


    POTLOK:  cpu time      1.9178: real time      1.9406
    SETDIJ:  cpu time      1.3405: real time      1.3411
    EDDIAG:  cpu time     43.7799: real time     43.8040
     EDDAV:  cpu time    199.5008: real time    199.6132
       DOS:  cpu time      0.0031: real time      0.0031
    CHARGE:  cpu time     24.5401: real time     24.5618
    MIXING:  cpu time      0.0382: real time      0.0382
    --------------------------------------------
      LOOP:  cpu time    271.1204: real time    271.3020

 eigenvalue-minimisations  :  2616
 total energy-change (2. order) :-0.6636502E-03  (-0.2183520E-03)
 number of electron     220.9999999 magnetization 
 augmentation part      -10.8898015 magnetization 

 Broyden mixing:
  rms(total) = 0.49967E-02    rms(broyden)= 0.54024E-01
  rms(prec ) = 0.59500E-02
  weight for this iteration     100.00
  WARNING: grid for Broyden might be to small

 eigenvalues of (default mixing * dielectric matrix)
  average eigenvalue GAMMA=   1.0840
  2.5370  1.7875  0.8689  0.4003  0.6981  0.6724  0.6237

 Free energy of the ion-electron system (eV)
  ---------------------------------------------------
  alpha Z        PSCENC =        19.72255585
  Ewald energy   TEWEN  =     22382.23777030
  -Hartree energ DENC   =    -26917.93749127
  -exchange      EXHF   =         0.00000000
  -V(xc)+E(xc)   XCENC  =      -181.70890189
  PAW double counting   =     29388.93355796   -28890.55645862
  entropy T*S    EENTRO =        -0.11811605
  eigenvalues    EBANDS =     -1751.99196595
  atomic energy  EATOM  =      5415.59739267
  Solvation  Ediel_sol  =         0.00000000
  ---------------------------------------------------
  free energy    TOTEN  =      -535.82165699 eV

  energy without entropy =     -535.70354094  energy(sigma->0) =     -535.76259896


--------------------------------------------------------------------------------------------------------




--------------------------------------- Iteration      1(   9)  ---------------------------------------


    POTLOK:  cpu time      1.8614: real time      1.8831
    SETDIJ:  cpu time      1.3440: real time      1.3448
    EDDIAG:  cpu time     43.7386: real time     43.7618
     EDDAV:  cpu time    204.2147: real time    204.3326
       DOS:  cpu time      0.0044: real time      0.0044
    CHARGE:  cpu time     24.5555: real time     24.5780
    MIXING:  cpu time      0.0411: real time      0.0411
    --------------------------------------------
      LOOP:  cpu time    275.7600: real time    275.9460

 eigenvalue-minimisations  :  2720
 total energy-change (2. order) :-0.4406016E-04  (-0.6084338E-04)
 number of electron     220.9999999 magnetization 
 augmentation part      -10.8897137 magnetization 

 Broyden mixing:
  rms(total) = 0.24820E-02    rms(broyden)= 0.20907E-01
  rms(prec ) = 0.30163E-02
  weight for this iteration     100.00
  WARNING: grid for Broyden might be to small

 eigenvalues of (default mixing * dielectric matrix)
  average eigenvalue GAMMA=   1.1931
  2.6442  2.6442  0.9832  0.9832  0.4003  0.6557  0.6328  0.6010

 Free energy of the ion-electron system (eV)
  ---------------------------------------------------
  alpha Z        PSCENC =        19.72255585
  Ewald energy   TEWEN  =     22382.23777030
  -Hartree energ DENC   =    -26917.83224059
  -exchange      EXHF   =         0.00000000
  -V(xc)+E(xc)   XCENC  =      -181.70084314
  PAW double counting   =     29397.67556695   -28899.29572801
  entropy T*S    EENTRO =        -0.11789774
  eigenvalues    EBANDS =     -1752.10827735
  atomic energy  EATOM  =      5415.59739267
  Solvation  Ediel_sol  =         0.00000000
  ---------------------------------------------------
  free energy    TOTEN  =      -535.82170105 eV

  energy without entropy =     -535.70380331  energy(sigma->0) =     -535.76275218


--------------------------------------------------------------------------------------------------------




--------------------------------------- Iteration      1(  10)  ---------------------------------------


    POTLOK:  cpu time      1.8497: real time      1.8759
    SETDIJ:  cpu time      1.3474: real time      1.3485
    EDDIAG:  cpu time     43.7498: real time     43.7732
     EDDAV:  cpu time    200.1184: real time    200.2307
       DOS:  cpu time      0.0032: real time      0.0032
    CHARGE:  cpu time     24.5236: real time     24.5470
    MIXING:  cpu time      0.0395: real time      0.0395
    --------------------------------------------
      LOOP:  cpu time    271.6315: real time    271.8178

 eigenvalue-minimisations  :  2624
 total energy-change (2. order) :-0.1205966E-04  (-0.2795416E-04)
 number of electron     220.9999999 magnetization 
 augmentation part      -10.8897829 magnetization 

 Broyden mixing:
  rms(total) = 0.13490E-02    rms(broyden)= 0.16695E-01
  rms(prec ) = 0.16207E-02
  weight for this iteration     100.00
  WARNING: grid for Broyden might be to small

 eigenvalues of (default mixing * dielectric matrix)
  average eigenvalue GAMMA=   1.1657
  3.0672  2.6314  1.0608  0.7856  0.7856  0.4008  0.6486  0.6198  0.4916

 Free energy of the ion-electron system (eV)
  ---------------------------------------------------
  alpha Z        PSCENC =        19.72255585
  Ewald energy   TEWEN  =     22382.23777030
  -Hartree energ DENC   =    -26917.73644382
  -exchange      EXHF   =         0.00000000
  -V(xc)+E(xc)   XCENC  =      -181.70213770
  PAW double counting   =     29396.52230965   -28898.14113464
  entropy T*S    EENTRO =        -0.11800832
  eigenvalues    EBANDS =     -1752.20401712
  atomic energy  EATOM  =      5415.59739267
  Solvation  Ediel_sol  =         0.00000000
  ---------------------------------------------------
  free energy    TOTEN  =      -535.82171311 eV

  energy without entropy =     -535.70370479  energy(sigma->0) =     -535.76270895


--------------------------------------------------------------------------------------------------------




--------------------------------------- Iteration      1(  11)  ---------------------------------------


    POTLOK:  cpu time      1.8762: real time      1.8775
    SETDIJ:  cpu time      1.3334: real time      1.3340
    EDDIAG:  cpu time     43.7738: real time     43.7983
     EDDAV:  cpu time    200.7118: real time    200.8311
       DOS:  cpu time      0.0025: real time      0.0025
    CHARGE:  cpu time     24.5979: real time     24.6201
    MIXING:  cpu time      0.0412: real time      0.0412
    --------------------------------------------
      LOOP:  cpu time    272.3368: real time    272.5046

 eigenvalue-minimisations  :  2640
 total energy-change (2. order) :-0.1428961E-04  (-0.2199675E-04)
 number of electron     220.9999999 magnetization 
 augmentation part      -10.8898544 magnetization 

 Broyden mixing:
  rms(total) = 0.71234E-03    rms(broyden)= 0.14389E-01
  rms(prec ) = 0.94308E-03
  weight for this iteration     100.00
  WARNING: grid for Broyden might be to small

 eigenvalues of (default mixing * dielectric matrix)
  average eigenvalue GAMMA=   1.3446
  4.3752  2.5817  1.7662  0.9983  0.8774  0.4005  0.7028  0.6355  0.6031  0.5056

 Free energy of the ion-electron system (eV)
  ---------------------------------------------------
  alpha Z        PSCENC =        19.72255585
  Ewald energy   TEWEN  =     22382.23777030
  -Hartree energ DENC   =    -26917.59273009
  -exchange      EXHF   =         0.00000000
  -V(xc)+E(xc)   XCENC  =      -181.70748403
  PAW double counting   =     29394.19963260   -28895.81748884
  entropy T*S    EENTRO =        -0.11802027
  eigenvalues    EBANDS =     -1752.34335560
  atomic energy  EATOM  =      5415.59739267
  Solvation  Ediel_sol  =         0.00000000
  ---------------------------------------------------
  free energy    TOTEN  =      -535.82172740 eV

  energy without entropy =     -535.70370713  energy(sigma->0) =     -535.76271726


--------------------------------------------------------------------------------------------------------




--------------------------------------- Iteration      1(  12)  ---------------------------------------


    POTLOK:  cpu time      1.8563: real time      1.8761
    SETDIJ:  cpu time      1.3377: real time      1.3384
    EDDIAG:  cpu time     43.7776: real time     43.8012
     EDDAV:  cpu time    197.2704: real time    197.3760
       DOS:  cpu time      0.0027: real time      0.0027
    CHARGE:  cpu time     24.5611: real time     24.5833
    MIXING:  cpu time      0.0415: real time      0.0415
    --------------------------------------------
      LOOP:  cpu time    268.8473: real time    269.0192

 eigenvalue-minimisations  :  2560
 total energy-change (2. order) :-0.6262468E-04  (-0.1482482E-04)
 number of electron     220.9999999 magnetization 
 augmentation part      -10.8899065 magnetization 

 Broyden mixing:
  rms(total) = 0.35319E-03    rms(broyden)= 0.11464E-01
  rms(prec ) = 0.58398E-03
  weight for this iteration     100.00
  WARNING: grid for Broyden might be to small

 eigenvalues of (default mixing * dielectric matrix)
  average eigenvalue GAMMA=   1.5381
  6.2804  2.4738  2.4738  0.9865  0.9865  0.8447  0.4003  0.7066  0.6312  0.6065
  0.5293

 Free energy of the ion-electron system (eV)
  ---------------------------------------------------
  alpha Z        PSCENC =        19.72255585
  Ewald energy   TEWEN  =     22382.23777030
  -Hartree energ DENC   =    -26917.47602836
  -exchange      EXHF   =         0.00000000
  -V(xc)+E(xc)   XCENC  =      -181.71228730
  PAW double counting   =     29393.15758642   -28894.77515931
  entropy T*S    EENTRO =        -0.11797055
  eigenvalues    EBANDS =     -1752.45564975
  atomic energy  EATOM  =      5415.59739267
  Solvation  Ediel_sol  =         0.00000000
  ---------------------------------------------------
  free energy    TOTEN  =      -535.82179002 eV

  energy without entropy =     -535.70381947  energy(sigma->0) =     -535.76280475


--------------------------------------------------------------------------------------------------------




--------------------------------------- Iteration      1(  13)  ---------------------------------------


    POTLOK:  cpu time      1.8558: real time      1.8834
    SETDIJ:  cpu time      1.3385: real time      1.3391
    EDDIAG:  cpu time     43.7825: real time     43.8049
     EDDAV:  cpu time    197.4241: real time    197.5344
       DOS:  cpu time      0.0051: real time      0.0051
    CHARGE:  cpu time     24.5419: real time     24.5648
    MIXING:  cpu time      0.0416: real time      0.0416
    --------------------------------------------
      LOOP:  cpu time    268.9895: real time    269.1733

 eigenvalue-minimisations  :  2560
 total energy-change (2. order) :-0.8200945E-04  (-0.1769641E-04)
 number of electron     220.9999999 magnetization 
 augmentation part      -10.8899373 magnetization 

 Broyden mixing:
  rms(total) = 0.22164E-03    rms(broyden)= 0.92302E-02
  rms(prec ) = 0.39958E-03
  weight for this iteration     100.00
  WARNING: grid for Broyden might be to small

 eigenvalues of (default mixing * dielectric matrix)
  average eigenvalue GAMMA=   1.7167
  8.4656  2.6602  2.6602  1.2764  1.0815  0.4003  0.8083  0.8083  0.5339  0.6688
  0.6187  0.6187

 Free energy of the ion-electron system (eV)
  ---------------------------------------------------
  alpha Z        PSCENC =        19.72255585
  Ewald energy   TEWEN  =     22382.23777030
  -Hartree energ DENC   =    -26917.36968179
  -exchange      EXHF   =         0.00000000
  -V(xc)+E(xc)   XCENC  =      -181.71558410
  PAW double counting   =     29393.36154796   -28894.97915925
  entropy T*S    EENTRO =        -0.11799030
  eigenvalues    EBANDS =     -1752.55872338
  atomic energy  EATOM  =      5415.59739267
  Solvation  Ediel_sol  =         0.00000000
  ---------------------------------------------------
  free energy    TOTEN  =      -535.82187203 eV

  energy without entropy =     -535.70388173  energy(sigma->0) =     -535.76287688


--------------------------------------------------------------------------------------------------------




--------------------------------------- Iteration      1(  14)  ---------------------------------------


    POTLOK:  cpu time      1.8806: real time      1.8820
    SETDIJ:  cpu time      1.3424: real time      1.3432
    EDDIAG:  cpu time     43.7440: real time     43.7702
     EDDAV:  cpu time    197.2514: real time    197.3607
       DOS:  cpu time      0.0147: real time      0.0149
    CHARGE:  cpu time     24.5707: real time     24.5934
    MIXING:  cpu time      0.0582: real time      0.0589
    --------------------------------------------
      LOOP:  cpu time    268.8627: real time    269.0240

 eigenvalue-minimisations  :  2560
 total energy-change (2. order) :-0.1129469E-03  (-0.2411590E-04)
 number of electron     220.9999999 magnetization 
 augmentation part      -10.8899632 magnetization 

 Broyden mixing:
  rms(total) = 0.14994E-03    rms(broyden)= 0.81876E-02
  rms(prec ) = 0.27288E-03
  weight for this iteration     100.00
  WARNING: grid for Broyden might be to small

 eigenvalues of (default mixing * dielectric matrix)
  average eigenvalue GAMMA=   1.7444
  9.3695  2.7368  2.7368  1.5065  1.0743  0.8391  0.8391  0.4002  0.7725  0.5316
  0.6368  0.6368  0.5967

 Free energy of the ion-electron system (eV)
  ---------------------------------------------------
  alpha Z        PSCENC =        19.72255585
  Ewald energy   TEWEN  =     22382.23777030
  -Hartree energ DENC   =    -26917.25966321
  -exchange      EXHF   =         0.00000000
  -V(xc)+E(xc)   XCENC  =      -181.71862422
  PAW double counting   =     29393.32469212   -28894.94254505
  entropy T*S    EENTRO =        -0.11799341
  eigenvalues    EBANDS =     -1752.66557005
  atomic energy  EATOM  =      5415.59739267
  Solvation  Ediel_sol  =         0.00000000
  ---------------------------------------------------
  free energy    TOTEN  =      -535.82198498 eV

  energy without entropy =     -535.70399157  energy(sigma->0) =     -535.76298827


--------------------------------------------------------------------------------------------------------




--------------------------------------- Iteration      1(  15)  ---------------------------------------


    POTLOK:  cpu time      1.8599: real time      1.8859
    SETDIJ:  cpu time      1.3510: real time      1.3521
    EDDIAG:  cpu time     43.7630: real time     43.7859
     EDDAV:  cpu time    198.7562: real time    198.8691
       DOS:  cpu time      0.0031: real time      0.0031
    CHARGE:  cpu time     24.5058: real time     24.5293
    MIXING:  cpu time      0.0434: real time      0.0434
    --------------------------------------------
      LOOP:  cpu time    270.2816: real time    270.4682

 eigenvalue-minimisations  :  2592
 total energy-change (2. order) :-0.1101102E-03  (-0.1869383E-04)
 number of electron     220.9999999 magnetization 
 augmentation part      -10.8899846 magnetization 

 Broyden mixing:
  rms(total) = 0.11358E-03    rms(broyden)= 0.57791E-02
  rms(prec ) = 0.19121E-03
  weight for this iteration     100.00
  WARNING: grid for Broyden might be to small

 eigenvalues of (default mixing * dielectric matrix)
  average eigenvalue GAMMA=   1.7571
  9.7807  2.8146  2.8146  1.8779  1.1549  1.0408  0.4003  0.8215  0.8215  0.6882
  0.5306  0.6413  0.6166  0.5961

 Free energy of the ion-electron system (eV)
  ---------------------------------------------------
  alpha Z        PSCENC =        19.72255585
  Ewald energy   TEWEN  =     22382.23777030
  -Hartree energ DENC   =    -26917.17761105
  -exchange      EXHF   =         0.00000000
  -V(xc)+E(xc)   XCENC  =      -181.72051569
  PAW double counting   =     29393.31759170   -28894.93558785
  entropy T*S    EENTRO =        -0.11800297
  eigenvalues    EBANDS =     -1752.74568807
  atomic energy  EATOM  =      5415.59739267
  Solvation  Ediel_sol  =         0.00000000
  ---------------------------------------------------
  free energy    TOTEN  =      -535.82209509 eV

  energy without entropy =     -535.70409212  energy(sigma->0) =     -535.76309361


--------------------------------------------------------------------------------------------------------




--------------------------------------- Iteration      1(  16)  ---------------------------------------


    POTLOK:  cpu time      1.8655: real time      1.8849
    SETDIJ:  cpu time      1.3393: real time      1.3402
    EDDIAG:  cpu time     43.7990: real time     43.8252
     EDDAV:  cpu time    197.3506: real time    197.4618
       DOS:  cpu time      0.0024: real time      0.0024
    CHARGE:  cpu time     24.6095: real time     24.6309
    MIXING:  cpu time      0.0439: real time      0.0439
    --------------------------------------------
      LOOP:  cpu time    269.0102: real time    269.1894

 eigenvalue-minimisations  :  2560
 total energy-change (2. order) :-0.6651187E-04  (-0.1535666E-04)
 number of electron     220.9999999 magnetization 
 augmentation part      -10.8899957 magnetization 

 Broyden mixing:
  rms(total) = 0.72511E-04    rms(broyden)= 0.30752E-02
  rms(prec ) = 0.11720E-03
  weight for this iteration     100.00
  WARNING: grid for Broyden might be to small

 eigenvalues of (default mixing * dielectric matrix)
  average eigenvalue GAMMA=   1.7586
  9.9292  3.1072  2.7041  2.2005  1.3840  1.0586  0.8892  0.8892  0.4003  0.7730
  0.6803  0.5285  0.6350  0.6088  0.5909

 Free energy of the ion-electron system (eV)
  ---------------------------------------------------
  alpha Z        PSCENC =        19.72255585
  Ewald energy   TEWEN  =     22382.23777030
  -Hartree energ DENC   =    -26917.11295937
  -exchange      EXHF   =         0.00000000
  -V(xc)+E(xc)   XCENC  =      -181.72106345
  PAW double counting   =     29393.35736557   -28894.97541400
  entropy T*S    EENTRO =        -0.11799002
  eigenvalues    EBANDS =     -1752.80981916
  atomic energy  EATOM  =      5415.59739267
  Solvation  Ediel_sol  =         0.00000000
  ---------------------------------------------------
  free energy    TOTEN  =      -535.82216160 eV

  energy without entropy =     -535.70417158  energy(sigma->0) =     -535.76316659


--------------------------------------------------------------------------------------------------------




--------------------------------------- Iteration      1(  17)  ---------------------------------------


    POTLOK:  cpu time      1.8543: real time      1.8814
    SETDIJ:  cpu time      1.3418: real time      1.3430
    EDDIAG:  cpu time     43.7359: real time     43.7596
     EDDAV:  cpu time    197.9215: real time    198.0285
       DOS:  cpu time      0.0029: real time      0.0029
    CHARGE:  cpu time     24.5135: real time     24.5345
    MIXING:  cpu time      0.0448: real time      0.0449
    --------------------------------------------
      LOOP:  cpu time    269.4147: real time    269.5947

 eigenvalue-minimisations  :  2576
 total energy-change (2. order) :-0.3854082E-04  (-0.8216674E-05)
 number of electron     220.9999999 magnetization 
 augmentation part      -10.8900101 magnetization 

 Broyden mixing:
  rms(total) = 0.46422E-04    rms(broyden)= 0.21758E-02
  rms(prec ) = 0.72690E-04
  weight for this iteration     100.00
  WARNING: grid for Broyden might be to small

 eigenvalues of (default mixing * dielectric matrix)
  average eigenvalue GAMMA=   1.7408
  9.9683  3.2510  2.6866  2.3891  1.5259  1.0747  1.0747  0.4003  0.8430  0.8430
  0.7712  0.5280  0.6663  0.6223  0.6223  0.5864

 Free energy of the ion-electron system (eV)
  ---------------------------------------------------
  alpha Z        PSCENC =        19.72255585
  Ewald energy   TEWEN  =     22382.23777030
  -Hartree energ DENC   =    -26917.06915914
  -exchange      EXHF   =         0.00000000
  -V(xc)+E(xc)   XCENC  =      -181.72175819
  PAW double counting   =     29393.35576311   -28894.97381731
  entropy T*S    EENTRO =        -0.11800019
  eigenvalues    EBANDS =     -1752.85294725
  atomic energy  EATOM  =      5415.59739267
  Solvation  Ediel_sol  =         0.00000000
  ---------------------------------------------------
  free energy    TOTEN  =      -535.82220014 eV

  energy without entropy =     -535.70419995  energy(sigma->0) =     -535.76320005


[...]
   0.170E+02 0.145E+02 -.282E+02   -.187E+02 -.165E+02 0.267E+02   0.181E+01 0.217E+01 0.142E+01   0.262E-05 0.172E-04 0.199E-05
   -.987E+01 0.494E+01 -.387E+02   0.135E+02 -.754E+01 0.366E+02   -.382E+01 0.270E+01 0.224E+01   0.991E-05 0.222E-05 0.516E-06
   0.235E+02 0.114E+02 0.350E+02   -.263E+02 -.127E+02 -.342E+02   0.267E+01 0.129E+01 -.837E+00   -.491E-05 0.965E-05 -.163E-04
   -.282E+02 0.294E+00 -.555E+02   0.312E+02 0.777E-01 0.566E+02   -.290E+01 -.426E+00 -.124E+01   0.115E-05 0.790E-05 0.158E-05
   0.553E+01 -.267E+02 -.345E+02   -.577E+01 0.297E+02 0.332E+02   0.207E+00 -.306E+01 0.115E+01   0.305E-04 0.131E-04 -.306E-05
   -.182E+02 0.130E+02 -.719E+02   0.198E+02 -.144E+02 0.743E+02   -.152E+01 0.137E+01 -.239E+01   0.508E-05 0.438E-05 0.124E-04
   -.917E+01 0.961E+01 -.228E+02   0.919E+01 -.101E+02 0.257E+02   0.251E-01 0.517E+00 -.301E+01   -.692E-06 -.270E-06 -.181E-05
   0.167E+02 0.151E+02 -.478E+02   -.211E+02 -.183E+02 0.483E+02   0.428E+01 0.312E+01 -.347E+00   0.161E-05 0.102E-04 -.101E-05
   0.435E+01 0.818E+00 -.261E+02   -.443E+01 -.135E+01 0.289E+02   0.135E-01 0.554E+00 -.301E+01   0.122E-04 0.482E-05 -.165E-05
   0.213E+02 -.152E+01 -.506E+01   -.262E+02 0.334E+01 0.616E+01   0.472E+01 -.183E+01 -.998E+00   -.787E-06 0.832E-05 -.344E-05
   -.199E+02 -.136E+02 -.137E+02   0.229E+02 0.152E+02 0.144E+02   -.278E+01 -.161E+01 -.570E+00   -.517E-06 0.170E-04 -.892E-06
   -.197E+02 0.124E+02 -.567E+02   0.214E+02 -.145E+02 0.581E+02   -.174E+01 0.213E+01 -.155E+01   0.886E-06 -.623E-05 0.194E-05
   0.202E+01 -.128E+02 -.333E+02   0.347E+00 0.174E+02 0.335E+02   -.243E+01 -.457E+01 -.228E+00   -.664E-05 0.186E-04 0.227E-05
   -.426E+02 0.543E+01 0.162E+03   0.413E+02 -.735E+01 -.161E+03   0.119E+01 0.122E+01 -.450E+00   -.751E-04 0.329E-04 -.514E-04
   0.191E+02 0.904E+01 -.107E+03   -.188E+02 -.814E+01 0.107E+03   -.293E+00 -.942E+00 0.113E+00   -.143E-03 0.170E-03 -.750E-04
   0.328E+02 -.229E+02 0.138E+03   -.304E+02 0.259E+02 -.137E+03   -.228E+01 -.223E+01 -.942E+00   0.136E-03 -.371E-04 -.215E-04
   0.431E+02 0.437E+02 -.427E+02   -.422E+02 -.429E+02 0.438E+02   -.779E+00 -.960E+00 -.493E+00   0.113E-04 -.267E-04 -.407E-04
   0.439E+02 -.419E+02 -.118E+03   -.455E+02 0.401E+02 0.118E+03   0.133E+01 0.176E+01 0.757E-01   -.824E-04 -.236E-03 -.390E-04
   0.130E+02 0.357E+02 0.263E+03   -.136E+02 -.355E+02 -.265E+03   0.828E+00 -.342E+00 0.135E+01   -.101E-04 -.389E-05 -.656E-04
   -.109E+02 0.441E+02 -.345E+01   0.106E+02 -.429E+02 0.417E+01   0.308E+00 -.119E+01 -.344E+00   -.191E-04 -.237E-04 -.295E-04
   -.351E+02 0.754E+01 -.155E+03   0.363E+02 -.914E+01 0.155E+03   -.141E+01 0.157E+01 0.512E+00   -.756E-05 -.473E-04 0.693E-05
   -.439E+02 0.145E+02 -.163E+03   0.443E+02 -.128E+02 0.165E+03   -.430E+00 -.135E+01 -.120E+01   -.196E-04 0.563E-04 -.568E-05
   0.328E+02 -.491E+02 -.202E+03   -.317E+02 0.488E+02 0.204E+03   -.104E+01 0.512E+00 -.188E+01   -.704E-04 -.120E-03 -.617E-05
   0.296E+02 -.980E+01 0.786E+02   -.287E+02 0.822E+01 -.780E+02   -.792E+00 0.144E+01 -.656E+00   0.209E-03 0.857E-04 -.378E-04
   -.121E+01 -.363E+01 -.251E+03   0.736E-01 0.327E+01 0.252E+03   0.113E+01 0.384E+00 -.135E-01   -.847E-04 0.445E-04 -.261E-04
   0.169E+02 -.159E+02 -.566E+02   -.146E+02 0.144E+02 0.567E+02   -.242E+01 0.155E+01 -.260E+00   -.359E-04 0.175E-03 -.562E-04
   0.620E+01 -.112E+02 0.545E+02   -.815E+01 0.106E+02 -.538E+02   0.162E+01 0.793E+00 -.742E+00   -.185E-04 0.179E-04 -.143E-04
   0.200E+02 -.432E+02 0.205E+03   -.188E+02 0.423E+02 -.207E+03   -.121E+01 0.969E+00 0.149E+01   -.616E-04 -.308E-03 -.519E-04
   -.198E+02 -.296E+02 -.206E+03   0.201E+02 0.294E+02 0.209E+03   -.223E+00 0.400E+00 -.169E+01   0.910E-05 -.122E-04 0.405E-04
   0.145E+02 -.637E+01 -.187E+03   -.149E+02 0.694E+01 0.190E+03   0.321E+00 -.521E+00 -.191E+01   0.595E-04 0.857E-04 -.518E-06
   0.464E+02 0.763E+01 -.197E+03   -.468E+02 -.760E+01 0.197E+03   0.150E+00 0.358E-02 -.265E+00   -.667E-05 0.305E-04 0.447E-05
   -.482E+02 -.438E+02 -.167E+02   0.479E+02 0.445E+02 0.165E+02   0.359E+00 -.916E+00 0.340E-01   0.136E-04 0.383E-04 -.500E-05
   0.229E+02 -.160E+02 -.931E+02   -.216E+02 0.168E+02 0.930E+02   -.820E+00 -.377E+00 0.179E+00   -.157E-04 -.419E-04 0.282E-04
   0.172E+02 -.931E+01 -.803E+02   -.165E+02 0.879E+01 0.814E+02   -.945E+00 0.525E+00 -.131E+01   0.253E-04 -.439E-04 -.764E-05
   -.146E+02 0.759E+00 0.179E+03   0.152E+02 -.238E+01 -.179E+03   -.888E+00 0.114E+01 -.575E+00   -.152E-04 0.572E-04 -.864E-04
   0.358E+02 -.219E+01 0.174E+03   -.334E+02 0.762E+00 -.170E+03   -.154E+01 0.690E+00 -.307E+01   0.489E-04 0.669E-04 -.466E-04
   0.528E+02 0.627E+01 0.144E+03   -.537E+02 -.903E+01 -.143E+03   0.108E+01 0.301E+01 -.105E+01   0.647E-05 0.333E-04 -.770E-04
   -.111E+02 -.810E+01 0.182E+03   0.115E+02 0.932E+01 -.180E+03   -.111E+00 -.690E+00 -.148E+01   -.181E-04 0.130E-03 -.794E-04
   -.553E+02 -.742E+00 0.184E+03   0.563E+02 0.158E+01 -.186E+03   -.735E+00 -.791E+00 0.930E+00   0.413E-04 -.494E-04 -.344E-04
   -.423E+02 0.131E+02 -.164E+03   0.414E+02 -.146E+02 0.165E+03   0.105E+01 0.150E+01 -.162E+01   0.195E-04 0.529E-04 0.552E-05
   -.263E+02 0.226E+02 0.152E+03   0.260E+02 -.214E+02 -.146E+03   0.419E+00 -.115E+01 -.541E+01   -.457E-05 -.292E-05 -.249E-04
   0.150E+02 0.195E+02 0.247E+03   -.166E+02 -.195E+02 -.250E+03   0.116E+01 -.192E+00 0.281E+01   -.132E-04 0.252E-04 -.100E-03
   0.141E+02 0.541E+02 0.800E+02   -.146E+02 -.508E+02 -.794E+02   0.307E+00 -.313E+01 -.679E+00   -.164E-04 -.692E-04 -.546E-04
   -.533E+02 0.105E+01 -.144E+03   0.522E+02 -.861E+00 0.146E+03   0.134E+01 -.244E+00 -.168E+01   0.948E-05 -.564E-04 0.123E-04
   -.370E+02 0.265E+02 0.133E+03   0.365E+02 -.258E+02 -.130E+03   0.504E+00 -.749E+00 -.304E+01   0.394E-05 -.623E-04 -.201E-04
   0.210E+01 0.562E+02 -.230E+03   -.249E+01 -.573E+02 0.230E+03   0.594E+00 0.228E+00 0.594E+00   -.389E-05 -.194E-04 0.376E-04
   0.714E+00 0.416E+01 -.216E+03   -.137E+01 -.445E+01 0.214E+03   0.398E+00 0.343E+00 0.167E+01   0.929E-05 0.655E-04 0.490E-05
   0.544E+02 -.182E+02 -.173E+03   -.554E+02 0.170E+02 0.174E+03   0.838E+00 0.127E+01 -.632E+00   0.761E-05 -.152E-04 -.422E-04
   -.134E+01 0.101E+02 0.161E+03   0.803E-02 -.974E+01 -.160E+03   0.115E+01 -.337E+00 -.101E+01   -.454E-04 -.118E-03 -.390E-04
   0.180E+02 -.190E+02 -.144E+02   -.188E+02 0.146E+02 0.137E+02   0.641E+00 0.341E+01 0.433E+00   0.910E-04 -.979E-04 -.205E-04
   -.398E+02 -.704E+01 0.301E+02   0.409E+02 0.798E+01 -.288E+02   -.116E+01 -.583E+00 -.148E+01   0.126E-04 0.676E-04 -.403E-04
   -.254E+02 0.174E+02 0.145E+03   0.225E+02 -.159E+02 -.142E+03   0.282E+01 -.173E+01 -.287E+01   -.248E-03 0.609E-04 -.921E-04
   -.757E+01 -.135E+02 0.823E+02   0.841E+01 0.119E+02 -.851E+02   -.133E+01 0.169E+01 0.224E+01   -.159E-03 -.169E-03 -.535E-04
   0.417E+02 -.280E+02 0.514E+02   -.405E+02 0.281E+02 -.511E+02   -.109E+01 0.495E-02 -.330E+00   0.723E-05 -.168E-03 -.342E-04
   -.495E+02 -.364E+02 0.131E+03   0.497E+02 0.383E+02 -.133E+03   0.209E-01 -.150E+01 0.166E+01   0.443E-04 -.989E-05 -.222E-04
   0.295E+02 -.186E+02 0.859E+01   -.295E+02 0.177E+02 -.753E+01   -.262E+00 0.116E+01 -.678E+00   0.952E-06 0.129E-03 -.536E-04
   0.257E+02 -.179E+02 0.120E+03   -.236E+02 0.154E+02 -.115E+03   -.224E+01 0.242E+01 -.478E+01   0.581E-04 0.116E-04 -.298E-04
   0.865E+01 -.231E+02 0.245E+03   -.806E+01 0.231E+02 -.246E+03   -.535E+00 -.132E+00 0.735E+00   -.277E-04 -.315E-04 -.298E-04
   0.169E+02 -.109E+01 0.490E+02   -.184E+02 0.195E+01 -.490E+02   0.113E+01 -.105E+01 -.628E+00   0.825E-04 0.147E-03 -.548E-04
   -.357E+02 0.104E+02 -.233E+02   0.366E+02 -.770E+01 0.231E+02   -.103E+01 -.247E+01 0.590E+00   0.428E-04 -.785E-04 -.323E-04
   -.615E+02 0.136E+02 0.193E+03   0.601E+02 -.151E+02 -.196E+03   0.144E+01 0.133E+01 0.222E+01   0.316E-05 0.536E-04 -.799E-04
   0.417E+02 0.175E+02 0.204E+03   -.411E+02 -.177E+02 -.203E+03   -.441E+00 0.804E+00 -.953E+00   0.334E-05 0.506E-04 -.551E-04
   -.235E+02 0.202E+00 -.168E+03   0.228E+02 -.150E+01 0.168E+03   0.128E+01 0.899E+00 0.549E+00   -.736E-04 -.784E-04 -.148E-04
 -----------------------------------------------------------------------------------------------
   0.708E+01 -.109E+02 0.420E+02   0.604E-13 0.315E-13 0.000E+00   -.708E+01 0.109E+02 -.420E+02   -.256E-03 -.392E-04 -.160E-02


 POSITION                                       TOTAL-FORCE (eV/Angst)
 -----------------------------------------------------------------------------------
     13.55182      9.30164     14.73435        -0.051843      0.017767      0.116386
      0.42256      7.47295     13.65746        -0.169571     -0.004564     -0.045654
      9.60591     11.25299     12.65739         0.083497     -0.013810     -0.201821
      2.94556     10.73651     14.82152         0.121144     -0.130373     -0.174968
      1.00352     11.23537     16.02204        -0.050098      0.027124      0.117029
     13.26639     12.81443     14.92096         0.022666     -0.077653      0.063430
      0.35097      4.78450     14.72522        -0.090600      0.055869      0.038775
     13.45414      9.60585     12.29659        -0.151768     -0.028246     -0.001220
      0.69732     10.13028     13.97083         0.164781      0.209153     -0.049609
     13.81412     12.42322     14.60046        -0.188853      0.104123      0.130680
     13.61730      7.71753     10.40699        -0.107894     -0.023931     -0.025511
     10.85578     11.09192     14.79065         0.097976     -0.054372     -0.165292
      1.43508     12.51901     14.09084        -0.024019     -0.091297     -0.156436
      9.64134      7.97241     15.35900         0.100987      0.005060      0.062791
     11.50652     12.63915     12.59059         0.047800     -0.017678     -0.147067
     12.95440      8.86870     14.78350        -0.122344     -0.058432      0.121382
     14.02373     12.19811     12.67552        -0.065763      0.017421     -0.147585
     12.77128      9.87178     12.43611        -0.167294     -0.002257      0.102234
     12.57577      6.91618     12.83481         0.173809     -0.039571      0.105825
     11.81037     14.12939     14.41545         0.019473      0.010326     -0.101315
      0.77703      8.12976     13.68733        -0.058204      0.039550     -0.014114
      9.39855     11.54062     10.95102        -0.046246     -0.675164      0.292739
      6.34004     12.15889     13.30200        -0.023235     -0.101282     -0.049110
      1.42291     13.89298     11.03237         0.046267      0.622363      0.284026
      2.36409      5.68062     12.56959         0.103714     -0.168627      0.512482
      5.39988      0.99489     13.10459        -0.202947      0.046981      0.171890
      3.83934      6.04614      9.63234         0.308132     -0.045639     -0.018517
      5.84965      5.78941     12.28572         0.012950      0.035739      0.328301
     10.98885      0.57215     13.69447        -0.227185      0.017029      0.078076
      9.49174     10.90416     14.22866        -0.058789      0.293120      0.154881
      7.36249      1.88999     14.03618         0.040761      0.058880      0.041025
      3.48873     12.86073     11.54840         0.071119     -0.062220     -0.082891
      8.00109     12.55705     14.87368         0.122958      0.036887      0.262971
      5.87496      9.89877     12.85831        -0.234178      0.151642     -0.283917
      8.09145      5.42146     11.86977        -0.214115      0.182939     -0.073622
      5.42786      0.78418     10.54477        -0.073097      0.034895     -0.327935
     10.79169      4.34312     13.93702         0.046458      0.165906      0.628020
      1.54232     11.15215     14.64102        -0.070905      0.024815      0.705124
      3.37193      7.27347     13.96769        -0.071962     -0.052684     -0.350782
     11.32291      6.19114     12.56287         0.161237     -0.283770     -0.204978
      8.83855      3.44732     12.93947         0.440665      0.447748      0.084577
      0.35651      4.79463     13.23804        -0.160020     -0.071101     -0.148527
      5.27963      7.54338     10.78414        -0.359921     -0.403460     -0.347629
      0.59793     10.54146     10.56743         0.852890     -0.723350      0.141607
      2.20673      7.26546     10.85442         0.325052      0.432950     -0.218127
      6.82363      9.24563     10.81422         0.220114      0.348673      0.327016
     12.74320      2.47729     10.91609         0.059615      0.014835     -0.795581
      8.91228      8.61079     14.23394         0.209622      0.046631      0.133951
     11.54160     12.88947     11.11431         0.131619      0.030669      0.202295
      5.25566     13.06264      9.94568        -0.284339     -0.048341     -0.464482
      4.07406      4.47432     11.48201        -0.155966      0.076324     -0.024719
     12.20480      2.57209     13.41821         0.253973     -0.054536      0.095523
     11.23084      0.69823     11.35377         0.058242      0.006419      0.094074
      5.50768      6.46328     14.49219         0.219617     -0.591044      0.186784
      6.65569      8.41927     14.42523        -0.190172      0.027135     -0.249401
      4.44495     13.47069     13.64002         0.060934      0.096364      0.036527
      9.21016      1.89369     11.12206        -0.122086      0.060773      0.072800
      1.70765      1.26800     12.17731        -0.172093     -0.789495     -0.431319
      9.38271      7.44723     12.21224        -0.116095      0.293461     -0.305709
      7.29452     12.74925     11.20755         0.006345     -0.297123     -0.015074
      7.50738      0.46506     11.74534        -0.597147      0.201397     -0.336191
      3.87715      2.13915     11.73709         0.114056      0.050154     -0.030318
     11.25521      4.22105     11.35514         0.083079      0.237725     -0.037123
      3.75546      8.82209     12.20080        -0.305295      0.311761      0.338820
     14.03895     12.46950     11.20720        -0.196246      0.028251      0.009720
      9.15343      4.05687     10.24068         0.113637     -0.172991     -0.072446
      2.53041     10.76084     11.78186        -0.253091     -0.258794     -0.791071
     14.43385      2.67890     12.50171        -0.201937      0.148447      0.432949
      9.09903      9.15908     10.52100        -0.020267     -0.001382     -0.392052
      0.34979      8.33895     10.00928         0.083673      0.610013      0.141200
      8.70871      0.00965     13.92425         0.626725     -0.284132      0.666204
 -----------------------------------------------------------------------------------
    total drift:                               -0.002296      0.007691     -0.002011


--------------------------------------------------------------------------------------------------------



  FREE ENERGIE OF THE ION-ELECTRON SYSTEM (eV)
  ---------------------------------------------------
  free  energy   TOTEN  =      -535.82222089 eV

  energy  without entropy=     -535.70422056  energy(sigma->0) =     -535.76322072



--------------------------------------------------------------------------------------------------------


    POTLOK:  cpu time      3.1690: real time      3.2137


--------------------------------------------------------------------------------------------------------


     LOOP+:  cpu time   6067.3846: real time   6071.5733
    4ORBIT:  cpu time      0.0000: real time      0.0000



 total charge

# of ion       s       p       d       tot
------------------------------------------
    1        0.615   0.034   0.000   0.648
    2        0.611   0.033   0.000   0.644
    3        0.571   0.017   0.000   0.588
    4        0.581   0.015   0.000   0.596
    5        0.584   0.014   0.000   0.598
    6        0.612   0.032   0.000   0.644
    7        0.559   0.016   0.000   0.575
    8        0.606   0.034   0.000   0.640
    9        0.576   0.016   0.000   0.592
   10        0.613   0.033   0.000   0.646
   11        0.560   0.016   0.000   0.576
   12        0.568   0.015   0.000   0.583
   13        0.578   0.016   0.000   0.594
   14        0.566   0.015   0.000   0.582
   15        0.571   0.017   0.000   0.587
   16        0.621   0.032   0.000   0.653
   17        0.565   0.016   0.000   0.581
   18        0.617   0.031   0.000   0.648
   19        0.563   0.017   0.000   0.580
   20        0.568   0.016   0.000   0.584
   21        0.608   0.033   0.000   0.641
   22        0.792   0.787   0.000   1.579
   23        0.759   0.937   0.000   1.695
   24        0.781   0.867   0.000   1.648
   25        0.761   0.942   0.000   1.704
   26        0.771   0.898   0.000   1.669
   27        0.831   0.796   0.000   1.627
   28        0.766   0.907   0.000   1.673
   29        0.741   0.965   0.000   1.706
   30        0.758   0.940   0.000   1.698
   31        0.821   0.824   0.000   1.645
   32        0.760   0.905   0.000   1.665
   33        0.792   0.887   0.000   1.679
   34        0.771   0.907   0.000   1.677
   35        0.758   0.914   0.000   1.672
   36        0.817   0.825   0.000   1.642
   37        0.806   0.867   0.000   1.673
   38        0.730   1.045   0.000   1.775
   39        0.825   0.826   0.000   1.651
   40        0.748   0.965   0.000   1.713
   41        0.766   0.878   0.000   1.644
   42        0.767   0.931   0.000   1.697
   43        0.779   0.895   0.000   1.674
   44        0.769   0.911   0.000   1.680
   45        0.785   0.861   0.000   1.646
   46        0.793   0.868   0.000   1.661
   47        0.800   0.882   0.000   1.682
   48        0.741   0.982   0.000   1.723
   49        0.761   0.878   0.000   1.639
   50        0.835   0.796   0.000   1.632
   51        0.761   0.910   0.000   1.672
   52        0.775   0.861   0.000   1.636
   53        0.754   0.916   0.000   1.670
   54        0.806   0.880   0.000   1.686
   55        0.791   0.909   0.000   1.701
   56        0.820   0.838   0.000   1.658
   57        0.774   0.905   0.000   1.678
   58        0.778   0.874   0.000   1.653
   59        0.756   0.890   0.000   1.646
   60        0.772   0.888   0.000   1.660
   61        0.755   0.905   0.000   1.660
   62        0.742   0.915   0.000   1.657
   63        0.767   0.878   0.000   1.645
   64        0.753   0.924   0.000   1.676
   65        0.743   0.922   0.000   1.665
   66        0.826   0.818   0.000   1.644
   67        0.791   0.880   0.000   1.671
   68        0.745   0.932   0.000   1.677
   69        0.788   0.848   0.000   1.636
   70        0.768   0.925   0.000   1.693
   71        0.772   0.894   0.000   1.666
--------------------------------------------------
tot         51.132  45.068   0.000  96.201


 total amount of memory used by VASP MPI-rank0   347047. kBytes
=======================================================================

   base                                    :      30000. kBytes
   nonl-proj                               :      67426. kBytes
   fftplans                                :      97987. kBytes
   grid                                    :      75605. kBytes
   one-center                              :         15. kBytes
   wavefun                                 :      76014. kBytes

  
  
 General timing and accounting informations for this job:
 ========================================================
  
                  Total CPU time used (sec):     6204.604
                            User time (sec):     5472.498
                          System time (sec):      732.106
                         Elapsed time (sec):     6208.855
  
                   Maximum memory used (kb):      601700.
                   Average memory used (kb):          N/A
  
                          Minor page faults:     10757496
                          Major page faults:         1142
                 Voluntary context switches:         2752
