 vasp.6.5.0 16Dec24 (build Jan 20 2025 08:32:48) complex                         
 executed on        HPECrayEX_GCC date 2025.07.28  22:46:28
 running  128 mpi-ranks, with    1 threads/rank, on    1 nodes
 distrk:  each k-point on  128 cores,    1 groups
 distr:  one band on NCORE=  16 cores,    8 groups


--------------------------------------------------------------------------------------------------------


 INCAR:
   SYSTEM = a-Si SPC
   NCORE = 16
   ISTART = 1
   ICHARG = 1
   ISPIN = 1
   ISYM = 1
   EDIFF = 1E-6
   NELM = 150
   EDIFFG = -0.01
   NSW = 0
   ISIF = 2
   IBRION = -1
   PREC = Accurate
   ENCUT = 1200
   KSPACING = 0.23
   KGAMMA = .TRUE.
   METAGGA = SCAN
   LASPH = .TRUE.
   LDIAG = .FALSE.
   LMIXTAU = .TRUE.
   ADDGRID = .TRUE.
   ALGO = Normal
   ISMEAR = 0
   SIGMA = 0.1
   LORBIT = 11
   NEDOS = 2000
   LWAVE = .FALSE.
   LCHARG = .FALSE.

 POTCAR:    PAW_PBE H 15Jun2001                   
 POTCAR:    PAW_PBE Si 05Jan2001                  
 POTCAR:    PAW_PBE H 15Jun2001                   
   SHA256 =  030f79b5d3ab3cf0e668861823c8fb652ff669f3e15e46930bd03bfd63a607b6 H/POTCAR              
   COPYR  = (c) Copyright 15Jun2001 Georg Kresse                                                    
   COPYR  = This file is part of the software VASP. Any use, copying, and all other rights are regul
   COPYR  = If you do not have a valid VASP license, you may not use, copy or distribute this file. 
   VRHFIN =H: ultrasoft test                                                                        
   LEXCH  = PE                                                                                      
   EATOM  =    12.4884 eV,    0.9179 Ry                                                             
                                                                                                    
   TITEL  = PAW_PBE H 15Jun2001                                                                     
   LULTRA =        F    use ultrasoft PP ?                                                          
   IUNSCR =        0    unscreen: 0-lin 1-nonlin 2-no                                               
   RPACOR =    0.000    partial core radius                                                         
   POMASS =    1.000; ZVAL   =    1.000    mass and valenz                                          
   RCORE  =    1.100    outmost cutoff radius                                                       
   RWIGS  =    0.700; RWIGS  =    0.370    wigner-seitz radius (au A)                               
   ENMAX  =  250.000; ENMIN  =  200.000 eV                                                          
   RCLOC  =    0.701    cutoff for local pot                                                        
   LCOR   =        T    correct aug charges                                                         
   LPAW   =        T    paw PP                                                                      
   EAUG   =  400.000                                                                                
   RMAX   =    1.123    core radius for proj-oper                                                   
   RAUG   =    1.200    factor for augmentation sphere                                              
   RDEP   =    1.112    radius for radial grids                                                     
   RDEPT  =    0.926    core radius for aug-charge                                                  
                                                                                                    
   Atomic configuration                                                                             
    2 entries                                                                                       
     n  l   j            E        occ.                                                              
     1  0  0.50        -6.4927   1.0000                                                             
     2  1  0.50        -3.4015   0.0000                                                             
   Description                                                                                      
     l       E           TYP  RCUT    TYP  RCUT                                                     
     0     -6.4927494     23  1.100                                                                 
     0      6.8029130     23  1.100                                                                 
     1     -4.0817478     23  1.100                                                                 
  local pseudopotential read in
  atomic valenz-charges read in
  non local Contribution for L=           0  read in
    real space projection operators read in
  non local Contribution for L=           0  read in
    real space projection operators read in
  non local Contribution for L=           1  read in
    real space projection operators read in
    PAW grid and wavefunctions read in

   number of l-projection  operators is LMAX  =           3
   number of lm-projection operators is LMMAX =           5

 POTCAR:    PAW_PBE Si 05Jan2001                  
   SHA256 =  79d9987ad8750f624c4d6acb2a16d13abf6a777132adc04dc6c8399be72b42bb Si/POTCAR             
   COPYR  = (c) Copyright 05Jan2001 Georg Kresse                                                    
   COPYR  = This file is part of the software VASP. Any use, copying, and all other rights are regul
   COPYR  = If you do not have a valid VASP license, you may not use, copy or distribute this file. 
   VRHFIN =Si: s2p2                                                                                 
   LEXCH  = PE                                                                                      
   EATOM  =   103.0669 eV,    7.5752 Ry                                                             
                                                                                                    
   TITEL  = PAW_PBE Si 05Jan2001                                                                    
   LULTRA =        F    use ultrasoft PP ?                                                          
   IUNSCR =        1    unscreen: 0-lin 1-nonlin 2-no                                               
   RPACOR =    1.500    partial core radius                                                         
   POMASS =   28.085; ZVAL   =    4.000    mass and valenz                                          
   RCORE  =    1.900    outmost cutoff radius                                                       
   RWIGS  =    2.480; RWIGS  =    1.312    wigner-seitz radius (au A)                               
   ENMAX  =  245.345; ENMIN  =  184.009 eV                                                          
   ICORE  =        2    local potential                                                             
   LCOR   =        T    correct aug charges                                                         
   LPAW   =        T    paw PP                                                                      
   EAUG   =  322.069                                                                                
   DEXC   =    0.000                                                                                
   RMAX   =    1.950    core radius for proj-oper                                                   
   RAUG   =    1.300    factor for augmentation sphere                                              
   RDEP   =    1.993    radius for radial grids                                                     
   RDEPT  =    1.837    core radius for aug-charge                                                  
                                                                                                    
   Atomic configuration                                                                             
    6 entries                                                                                       
     n  l   j            E        occ.                                                              
     1  0  0.50     -1785.8828   2.0000                                                             
     2  0  0.50      -139.4969   2.0000                                                             
     2  1  1.50       -95.5546   6.0000                                                             
     3  0  0.50       -10.8127   2.0000                                                             
     3  1  0.50        -4.0811   2.0000                                                             
     3  2  1.50        -4.0817   0.0000                                                             
   Description                                                                                      
     l       E           TYP  RCUT    TYP  RCUT                                                     
     0    -10.8127223     23  1.900                                                                 
     0     -7.6451159     23  1.900                                                                 
     1     -4.0811372     23  1.900                                                                 
     1      2.4879257     23  1.900                                                                 
     2     -4.0817478      7  1.900                                                                 
  local pseudopotential read in
  partial core-charges read in
  partial kinetic energy density read in
  atomic valenz-charges read in
  non local Contribution for L=           0  read in
    real space projection operators read in
  non local Contribution for L=           0  read in
    real space projection operators read in
  non local Contribution for L=           1  read in
    real space projection operators read in
  non local Contribution for L=           1  read in
    real space projection operators read in
    PAW grid and wavefunctions read in

   number of l-projection  operators is LMAX  =           4
   number of lm-projection operators is LMMAX =           8

 -----------------------------------------------------------------------------
|                                                                             |
|               ----> ADVICE to this user running VASP <----                  |
|                                                                             |
|     You have a (more or less) 'large supercell' and for larger cells it     |
|     might be more efficient to use real-space projection operators.         |
|     Therefore, try LREAL= Auto in the INCAR file.                           |
|     Mind: For very accurate calculation, you might also keep the            |
|     reciprocal projection scheme (i.e. LREAL=.FALSE.).                      |
|                                                                             |
 -----------------------------------------------------------------------------

 -----------------------------------------------------------------------------
|                                                                             |
|               ----> ADVICE to this user running VASP <----                  |
|                                                                             |
|     You enforced a specific xc type in the INCAR file but a different       |
|     type was found in the POTCAR file.                                      |
|     I HOPE YOU KNOW WHAT YOU ARE DOING!                                     |
|                                                                             |
 -----------------------------------------------------------------------------

  PAW_PBE H 15Jun2001                   :
 energy of atom  1       EATOM=  -12.4884
 kinetic energy error for atom=    0.0000 (will be added to EATOM!!)
  PAW_PBE Si 05Jan2001                  :
 energy of atom  2       EATOM= -103.0669
 kinetic energy error for atom=    0.0001 (will be added to EATOM!!)


 POSCAR:  H Si
  positions in cartesian coordinates
  No initial velocities read in


 exchange-correlation table for SCAN
   RHO(1)=    0.500       N(1)  =     2000
   RHO(2)=  100.500       N(2)  =     4000



--------------------------------------------------------------------------------------------------------


 ion  position               nearest neighbor table
   1  0.348  0.983  0.584-  50 1.49
   2  0.124  0.325  0.570-  16 1.65  32 1.79
   3  0.493  0.841  0.599-  33 1.48
   4  0.903  0.470  0.634-   5 0.80
   5  0.937  0.488  0.611-   4 0.80  12 1.97
   6  0.867  0.344  0.558-  26 1.50
   7  0.633  0.206  0.454-  45 2.29   8 2.29  34 2.33  44 2.41
   8  0.538  0.324  0.428-   7 2.29  31 2.50  51 2.59  44 2.74  56 3.06
   9  0.589  0.674  0.541-  55 2.34  39 2.38  63 2.39  33 2.39
  10  0.187  0.410  0.463-  16 2.35  17 2.37  13 2.39  28 2.45
  11  0.984  0.001  0.496-  48 2.32  27 2.33  38 2.34  35 2.43  15 2.80
  12  0.008  0.511  0.547-   5 1.97  18 2.32  16 2.34  24 2.36  28 2.89
  13  0.224  0.280  0.410-  47 2.37  51 2.38  10 2.39
  14  0.195  0.866  0.549-  36 2.30  53 2.32  43 2.36  15 2.41
  15  0.057  0.929  0.588-  38 2.37  14 2.41  35 2.48  11 2.80  53 3.05
  16  0.069  0.370  0.521-   2 1.65  54 2.33  12 2.34  10 2.35
  17  0.307  0.407  0.525-  21 2.27  56 2.32  10 2.37  32 2.39
  18  0.922  0.547  0.474-  12 2.32  62 2.38  57 2.40  28 2.58
  19  0.391  0.831  0.403-  37 2.32  41 2.34  67 2.35
  20  0.153  0.697  0.430-  28 2.38  25 2.40  67 2.43  53 2.57  24 2.91
  21  0.390  0.538  0.535-  17 2.27  46 2.33  42 2.39  63 2.42
  22  0.523  0.104  0.549-  50 2.31  49 2.31  44 2.36  45 2.41
  23  0.876  0.135  0.594-  58 2.38  38 2.45  26 2.46
  24  0.129  0.615  0.532-  12 2.36  53 2.37  42 2.37  28 2.42  20 2.91
  25  0.047  0.823  0.424-  20 2.40  65 2.42  53 2.48  48 2.53  35 3.07
  26  0.795  0.270  0.559-   6 1.50  34 2.37  23 2.46  61 2.64
  27  0.832  0.045  0.479-  11 2.33  29 2.33  58 2.38  34 2.41
  28  0.094  0.548  0.448-  20 2.38  24 2.42  10 2.45  18 2.58  12 2.89
  29  0.774  0.931  0.424-  27 2.33  30 2.36  65 2.38
  30  0.632  0.933  0.468-  41 2.32  49 2.34  45 2.34  29 2.36
  31  0.639  0.435  0.477-  61 2.38  39 2.43  57 2.49   8 2.50  63 2.84  60 2.90
  32  0.237  0.334  0.598-   2 1.79  52 2.37  17 2.39
  33  0.471  0.788  0.552-   3 1.48  43 2.34  41 2.34   9 2.39
  34  0.788  0.204  0.475-  40 2.33   7 2.33  26 2.37  27 2.41
  35  0.948  0.849  0.529-  66 2.32  53 2.36  65 2.40  11 2.43  15 2.48  25 3.07
  36  0.215  0.981  0.489-  14 2.30  37 2.33  48 2.33  59 2.36
  37  0.355  0.967  0.446-  64 2.29  19 2.32  36 2.33  41 2.48
  38  0.030  0.086  0.568-  11 2.34  15 2.37  59 2.39  23 2.45
  39  0.571  0.586  0.464-   9 2.38  46 2.40  60 2.42  31 2.43  63 2.71
  40  0.862  0.307  0.419-  54 2.31  34 2.33  57 2.37
  41  0.486  0.868  0.473-  30 2.32  19 2.34  33 2.34  37 2.48  45 3.12
  42  0.270  0.618  0.579-  43 2.30  24 2.37  21 2.39
  43  0.314  0.756  0.544-  42 2.30  33 2.34  14 2.36  67 2.40
  44  0.548  0.260  0.528-  56 2.34  61 2.34  22 2.36   7 2.41   8 2.74
  45  0.552  0.071  0.458-  64 2.28   7 2.29  30 2.34  22 2.41  49 2.96  41 3.12
  46  0.408  0.585  0.449-  21 2.33  67 2.40  39 2.40
  47  0.115  0.170  0.439-  54 2.35  59 2.36  13 2.37  48 2.64
  48  0.093  0.991  0.430-  11 2.32  36 2.33  25 2.53  47 2.64
  49  0.635  0.991  0.553-  58 2.29  22 2.31  30 2.34  45 2.96
  50  0.387  0.077  0.593-   1 1.49  52 2.31  22 2.31
  51  0.381  0.242  0.422-  56 2.28  64 2.33  13 2.38   8 2.59
  52  0.291  0.192  0.564-  50 2.31  59 2.31  56 2.36  32 2.37
  53  0.086  0.768  0.513-  14 2.32  35 2.36  24 2.37  25 2.48  20 2.57  15 3.05
  54  0.996  0.270  0.464-  40 2.31  16 2.33  47 2.35
  55  0.734  0.741  0.535-   9 2.34  66 2.34  62 2.35
  56  0.391  0.275  0.509-  51 2.28  17 2.32  44 2.34  52 2.36   8 3.06
  57  0.799  0.450  0.444-  40 2.37  18 2.40  60 2.42  31 2.49
  58  0.790  0.005  0.565-  49 2.29  27 2.38  66 2.38  23 2.38
  59  0.168  0.125  0.522-  52 2.31  36 2.36  47 2.36  38 2.39
  60  0.714  0.586  0.417-  62 2.40  39 2.42  57 2.42  31 2.90
  61  0.646  0.373  0.562-  44 2.34  31 2.38  63 2.56  26 2.64
  62  0.821  0.675  0.467-  65 2.34  55 2.35  18 2.38  60 2.40
  63  0.548  0.519  0.562-   9 2.39  21 2.42  61 2.56  39 2.71  31 2.84
  64  0.424  0.090  0.408-  45 2.28  37 2.29  51 2.33
  65  0.885  0.816  0.445-  62 2.34  29 2.38  35 2.40  25 2.42
  66  0.820  0.847  0.583-  35 2.32  55 2.34  58 2.38
  67  0.313  0.720  0.453-  19 2.35  43 2.40  46 2.40  20 2.43

  LATTYP: Found a simple tetragonal cell.
 ALAT       =    14.5538280032
 C/A-ratio  =     1.7663288308
  
  Lattice vectors:
  
 A1 = (  14.5538280032,   0.0000000000,   0.0000000000)
 A2 = (   0.0000000000,  14.5538280032,   0.0000000000)
 A3 = (   0.0000000000,   0.0000000000,  25.7068460000)


Analysis of symmetry for initial positions (statically):
=====================================================================
 Subroutine PRICEL returns:
 Original cell was already a primitive cell.
 

 Routine SETGRP: Setting up the symmetry group for a 
 simple tetragonal supercell.


 Subroutine GETGRP returns: Found  1 space group operations
 (whereof  1 operations were pure point group operations)
 out of a pool of 16 trial point group operations.


The static configuration has the point symmetry C_1 .


Analysis of symmetry for dynamics (positions and initial velocities):
=====================================================================
 Subroutine PRICEL returns:
 Original cell was already a primitive cell.
 

 Routine SETGRP: Setting up the symmetry group for a 
 simple tetragonal supercell.


 Subroutine GETGRP returns: Found  1 space group operations
 (whereof  1 operations were pure point group operations)
 out of a pool of 16 trial point group operations.


The dynamic configuration has the point symmetry C_1 .


 Subroutine INISYM returns: Found  1 space group operations
 (whereof  1 operations are pure point group operations),
 and found     1 'primitive' translations


----------------------------------------------------------------------------------------

                                     Primitive cell                                     

  volume of cell :    5445.0676

  direct lattice vectors                    reciprocal lattice vectors
    14.553828003  0.000000000  0.000000000     0.068710445  0.000000000  0.000000000
     0.000000000 14.553828003  0.000000000     0.000000000  0.068710445  0.000000000
     0.000000000  0.000000000 25.706846000     0.000000000  0.000000000  0.038900144

  length of vectors
    14.553828003 14.553828003 25.706846000     0.068710445  0.068710445  0.038900144

  position of ions in fractional coordinates (direct lattice)
     0.348426524  0.982922820  0.584301243
     0.123734762  0.324664810  0.570456816
     0.493384219  0.841094754  0.599208776
     0.903122760  0.470050816  0.633805714
     0.937110768  0.487586969  0.611480234
     0.867474424  0.343840787  0.557745684
     0.632538173  0.206075273  0.454184281
     0.538479067  0.324135781  0.428379879
     0.588771083  0.674099126  0.541494085
     0.187497098  0.410176733  0.462526432
     0.983880630  0.001368466  0.495643292
     0.007986536  0.511010322  0.547359156
     0.223503867  0.280368165  0.409571182
     0.194540341  0.865807275  0.549424674
     0.057076568  0.928735490  0.587609712
     0.069446808  0.370062628  0.520534152
     0.306959320  0.406985909  0.525214332
     0.922385674  0.546811927  0.473877981
     0.390727430  0.830920625  0.403419325
     0.152938845  0.697009458  0.429925932
     0.389997175  0.538261686  0.535011888
     0.523010072  0.103566980  0.548587738
     0.875715706  0.134910138  0.594229349
     0.129350112  0.615061993  0.532459667
     0.047352151  0.823437041  0.424487405
     0.795362588  0.269995364  0.559139187
     0.832354516  0.044673867  0.479083993
     0.094126331  0.548225641  0.448480262
     0.773946862  0.930989908  0.424255266
     0.631787698  0.932557197  0.468300115
     0.639001108  0.434765416  0.476655967
     0.236500833  0.333576923  0.598012591
     0.471147558  0.787630425  0.551734307
     0.788480289  0.204428513  0.474778568
     0.947741674  0.849161362  0.528853493
     0.214594380  0.981001720  0.489054686
     0.355080540  0.966626076  0.446355541
     0.030260802  0.085775597  0.568309012
     0.571094041  0.586104012  0.464330393
     0.862414806  0.306708855  0.419217906
     0.485859811  0.868370454  0.473430573
     0.269780763  0.617800221  0.579453511
     0.314067675  0.756354672  0.544156846
     0.547545913  0.260190550  0.528410393
     0.551512177  0.071010057  0.458274898
     0.408228556  0.585363723  0.449127972
     0.115480270  0.170028562  0.439279590
     0.093269402  0.990663770  0.430163230
     0.634867565  0.991062683  0.552930963
     0.387332952  0.076645529  0.592736490
     0.380894461  0.242351039  0.422003245
     0.291407981  0.192470715  0.563897360
     0.085644501  0.768219527  0.513242788
     0.995760896  0.270028948  0.463628994
     0.734177694  0.741073699  0.534759172
     0.391125993  0.275095836  0.508727551
     0.799311455  0.450405188  0.443847183
     0.789823200  0.005191472  0.565435056
     0.167864715  0.124594603  0.522275778
     0.714462237  0.585527203  0.416724947
     0.645678401  0.372917907  0.562255658
     0.820701834  0.674616007  0.467459323
     0.548181041  0.519128956  0.562034263
     0.423878821  0.090339081  0.407711091
     0.885036104  0.816170910  0.444567865
     0.819765994  0.847402155  0.582942368
     0.313190296  0.720104237  0.453134384

  ion indices of the primitive-cell ions
   primitive index   ion index
                 1           1
                 2           2
                 3           3
                 4           4
                 5           5
                 6           6
                 7           7
                 8           8
                 9           9
                10          10
                11          11
                12          12
                13          13
                14          14
                15          15
                16          16
                17          17
                18          18
                19          19
                20          20
                21          21
                22          22
                23          23
                24          24
                25          25
                26          26
                27          27
                28          28
                29          29
                30          30
                31          31
                32          32
                33          33
                34          34
                35          35
                36          36
                37          37
                38          38
                39          39
                40          40
                41          41
                42          42
                43          43
                44          44
                45          45
                46          46
                47          47
                48          48
                49          49
                50          50
                51          51
                52          52
                53          53
                54          54
                55          55
                56          56
                57          57
                58          58
                59          59
                60          60
                61          61
                62          62
                63          63
                64          64
                65          65
                66          66
                67          67

----------------------------------------------------------------------------------------


 -----------------------------------------------------------------------------
|                                                                             |
|           W    W    AA    RRRRR   N    N  II  N    N   GGGG   !!!           |
|           W    W   A  A   R    R  NN   N  II  NN   N  G    G  !!!           |
|           W    W  A    A  R    R  N N  N  II  N N  N  G       !!!           |
|           W WW W  AAAAAA  RRRRR   N  N N  II  N  N N  G  GGG   !            |
|           WW  WW  A    A  R   R   N   NN  II  N   NN  G    G                |
|           W    W  A    A  R    R  N    N  II  N    N   GGGG   !!!           |
|                                                                             |
|     The requested file  could not be found or opened for reading            |
|     k-point information. Automatic k-point generation is used as a          |
|     fallback, which may lead to unwanted results.                           |
|                                                                             |
 -----------------------------------------------------------------------------



Automatic generation of k-mesh.
 Grid dimensions derived from KSPACING:
 generate k-points for:    2    2    2

 Generating k-lattice:

  Cartesian coordinates                     Fractional coordinates (reciprocal lattice)
     0.034355223  0.000000000  0.000000000     0.500000000  0.000000000  0.000000000
     0.000000000  0.034355223  0.000000000     0.000000000  0.500000000  0.000000000
     0.000000000  0.000000000  0.019450072     0.000000000  0.000000000  0.500000000

  Length of vectors
     0.034355223  0.034355223  0.019450072

  Shift w.r.t. Gamma in fractional coordinates (k-lattice)
     0.000000000  0.000000000  0.000000000

 
 Subroutine IBZKPT returns following result:
 ===========================================
 
 Found      8 irreducible k-points:
 
 Following reciprocal coordinates:
            Coordinates               Weight
  0.000000  0.000000  0.000000      1.000000
  0.500000  0.000000  0.000000      1.000000
  0.000000  0.500000  0.000000      1.000000
  0.500000  0.500000  0.000000      1.000000
  0.000000  0.000000  0.500000      1.000000
  0.500000  0.000000  0.500000      1.000000
  0.000000  0.500000  0.500000      1.000000
  0.500000  0.500000  0.500000      1.000000
 
 Following cartesian coordinates:
            Coordinates               Weight
  0.000000  0.000000  0.000000      1.000000
  0.034355  0.000000  0.000000      1.000000
  0.000000  0.034355  0.000000      1.000000
  0.034355  0.034355  0.000000      1.000000
  0.000000  0.000000  0.019450      1.000000
  0.034355  0.000000  0.019450      1.000000
  0.000000  0.034355  0.019450      1.000000
  0.034355  0.034355  0.019450      1.000000
 


--------------------------------------------------------------------------------------------------------




 Dimension of arrays:
   k-points           NKPTS =      8   k-points in BZ     NKDIM =      8   number of bands    NBANDS=    160
   number of dos      NEDOS =   2000   number of ions     NIONS =     67
   non local maximal  LDIM  =      4   non local SUM 2l+1 LMDIM =      8
   total plane-waves  NPLWV = ******
   max r-space proj   IRMAX =      1   max aug-charges    IRDMAX= 407770
   dimension x,y,z NGX =   168 NGY =  168 NGZ =  294
   dimension x,y,z NGXF=   336 NGYF=  336 NGZF=  588
   support grid    NGXF=   672 NGYF=  672 NGZF= 1176
   ions per type =               6  61
   NGX,Y,Z   is equivalent  to a cutoff of  19.19, 19.19, 19.01 a.u.
   NGXF,Y,Z  is equivalent  to a cutoff of  38.38, 38.38, 38.03 a.u.

 SYSTEM =  a-Si SPC                                
 POSCAR =   H Si                                   

 Startparameter for this run:
   NWRITE =      2    write-flag & timer
   PREC   = accura    normal or accurate (medium, high low for compatibility)
   ISTART =      1    job   : 0-new  1-cont  2-samecut
   ICHARG =      1    charge: 1-file 2-atom 10-const
   ISPIN  =      1    spin polarized calculation?
   LNONCOLLINEAR =      F non collinear calculations
   LSORBIT =      F    spin-orbit coupling
   INIWAV =      1    electr: 0-lowe 1-rand  2-diag
   LASPH  =      T    aspherical Exc in radial PAW
 Electronic Relaxation 1
   ENCUT  = 1200.0 eV  88.20 Ry    9.39 a.u.  41.11 41.11 72.61*2*pi/ulx,y,z
   ENINI  = 1200.0     initial cutoff
   ENAUG  =  400.0 eV  augmentation charge cutoff
   NELM   =    150;   NELMIN=  2; NELMDL=  0     # of ELM steps 
   EDIFF  = 0.1E-05   stopping-criterion for ELM
   LREAL  =      F    real-space projection
   NLSPLINE    = F    spline interpolate recip. space projectors
   LCOMPAT=      F    compatible to vasp.4.4
   GGA_COMPAT  = T    GGA compatible to vasp.4.4-vasp.4.6
   LMAXPAW     = -100 max onsite density
   LMAXMIX     =    2 max onsite mixed and CHGCAR
   VOSKOWN=      0    Vosko Wilk Nusair interpolation
   ROPT   =    0.00000   0.00000
 Ionic relaxation
   EDIFFG = -.1E-01   stopping-criterion for IOM
   NSW    =      0    number of steps for IOM
   NBLOCK =      1;   KBLOCK =      1    inner block; outer block 
   IBRION =     -1    ionic relax: 0-MD 1-quasi-New 2-CG
   NFREE  =      0    steps in history (QN), initial steepest desc. (CG)
   ISIF   =      2    stress and relaxation
   IWAVPR =     10    prediction:  0-non 1-charg 2-wave 3-comb
   ISYM   =      1    0-nonsym 1-usesym 2-fastsym
   LCORR  =      T    Harris-Foulkes like correction to forces

   POTIM  = 0.5000    time-step for ionic-motion
   TEIN   =    0.0    initial temperature
   TEBEG  =    0.0;   TEEND  =   0.0 temperature during run
   SMASS  =  -3.00    Nose mass-parameter (am)
   estimated Nose-frequenzy (Omega)   =  0.10E-29 period in steps = 0.13E+47 mass=  -0.484E-26a.u.
   SCALEE = 1.0000    scale energy and forces
   NPACO  =    256;   APACO  = 10.0  distance and # of slots for P.C.
   PSTRESS=    0.0 pullay stress

  Mass of Ions in am
   POMASS =   1.00 28.09
  Ionic Valenz
   ZVAL   =   1.00  4.00
  Atomic Wigner-Seitz radii
   RWIGS  =  -1.00 -1.00
  virtual crystal weights 
   VCA    =   1.00  1.00
   NELECT =     250.0000    total number of electrons
   NUPDOWN=      -1.0000    fix difference up-down

 DOS related values:
   EMIN   =  10.00;   EMAX   =-10.00  energy-range for DOS
   EFERMI =   0.00;   METHOD = LEGACY      
   ISMEAR =     0;   SIGMA  =   0.10  broadening in eV -4-tet -1-fermi 0-gaus
   EFERMI_NEDOS =   21; number of points for ismear=-14 and -15

 Electronic relaxation 2 (details)
   IALGO  =     38    algorithm
   LDIAG  =      F    sub-space diagonalisation (order eigenvalues)
   LSUBROT=      F    optimize rotation matrix (better conditioning)
   TURBO    =      0    0=normal 1=particle mesh
   IRESTART =      0    0=no restart 2=restart with 2 vectors
   NREBOOT  =      0    no. of reboots
   NMIN     =      0    reboot dimension
   EREF     =   0.00    reference energy to select bands
   IMIX   =      4    mixing-type and parameters
     AMIX     =   0.40;   BMIX     =  1.00
     AMIX_MAG =   1.60;   BMIX_MAG =  1.00
     AMIN     =   0.10
     WC   =   100.;   INIMIX=   1;  MIXPRE=   1;  MAXMIX= -45

 Intra band minimization:
   WEIMIN = 0.0000     energy-eigenvalue tresh-hold
   EBREAK =  0.16E-08  absolut break condition
   DEPER  =   0.30     relativ break condition  

   TIME   =   0.40     timestep for ELM

  volume/ion in A,a.u.               =      81.27       548.43
  Fermi-wavevector in a.u.,A,eV,Ry     =   0.586211  1.107778  4.675547  0.343643
  Thomas-Fermi vector in A             =   1.632604

 Write flags
   LWAVE        =      F    write WAVECAR
   LDOWNSAMPLE  =      F    k-point downsampling of WAVECAR
   LCHARG       =      F    write CHGCAR
   LVTOT        =      F    write LOCPOT, total local potential
   LVHAR        =      F    write LOCPOT, Hartree potential only
   WRT_POTENTIAL= false  ! write potential to hdf5 file
   LELF         =      F    write electronic localiz. function (ELF)
   LORBIT       =     11    0 simple, 1 ext, 2 COOP (PROOUT), +10 PAW based schemes


 Python interface
   PLUGINS active      =      F    recompile with -DPLUGINS to activate

 Dipole corrections
   LMONO      =      F    monopole corrections only (constant potential shift)
   LDIPOL     =      F    correct potential (dipole corrections)
   IDIPOL     =      0    1-x, 2-y, 3-z, 4-all directions 
   EPSILON    =  1.0000000 bulk dielectric constant
   LVACPOTAV  =      F  vacuum potentials using an averaging scheme for the charge density
   VACPOTFLAT =  0.1000000 required flatness to determine vacuum potential

Coulomb truncation method
  LTRUNCATE          =      F  Coulomb kernel truncation to be used
  IDIMENSIONALITY    =      3  Dimensionality of cutoff (0 molecules / 2 surfaces)
  ISURFACE           =     -1  Direction of surface normal
  LCOARSEN           =      F  Coarsen the charge grid before padding, preferred


 Exchange correlation treatment:
   METAGGA = SCAN    functional components
   XC_C    = 1    coefficients multiplying the functional components
   LIBXC   =     F    Libxc                    
   VOSKOWN =     0    Vosko Wilk Nusair interpolation
   LHFCALC =     F    Hartree Fock is set to
   LHFONE  =     F    Hartree Fock one center treatment
   AEXX    =    0.0000 exact exchange contribution

 Parameters of functionals:
   SCAN:
     P1 =  0.000000E+00
     P2 =  0.000000E+00
     P3 =  0.000000E+00

 Accuracy and mixing parameters for tau-dependent meta-GGA functionals:
   LMAXTAU = 6
   LMIXTAU = T

 Van der Waals corrections
   IVDW    =     0    specifies the selected vdW correction

 Linear response parameters
   LEPSILON=     F    determine dielectric tensor
   LRPA    =     F    only Hartree local field effects (RPA)
   LNABLA  =     F    use nabla operator in PAW spheres
   LVEL    =     F    velocity operator in full k-point grid
   CSHIFT  =0.1000    complex shift for real part using Kramers Kronig
   OMEGAMAX=  -1.0    maximum frequency
   DEG_THRESHOLD= 0.2000000E-02 threshold for treating states as degnerate
   RTIME   =   -0.100 relaxation time in fs
  (WPLASMAI=    0.000 imaginary part of plasma frequency in eV, 0.658/RTIME)
   DFIELD  = 0.0000000 0.0000000 0.0000000 field for delta impulse in time

  Optional k-point grid parameters
   LKPOINTS_OPT  =     F    use optional k-point grid
   KPOINTS_OPT_MODE=     1    mode for optional k-point grid

 Orbital magnetization related:
   ORBITALMAG=     F  switch on orbital magnetization
   LCHIMAG   =     F  perturbation theory with respect to B field
   DQ        =  0.001000  dq finite difference perturbation B field
   LLRAUG    =     F  two centre corrections for induced B field
   LBONE     =     F  B-component reconstruction in AE one-centre
   LVGVCALC  =     T  calculate vGv susceptibility
   LVGVAPPL  =     F  apply vGv susceptibility instead of pGv for G=0

 Random number generation:
   RANDOM_GENERATOR = DEFAULT
   PCG_SEED         = not used


--------------------------------------------------------------------------------------------------------


 Static calculation
 charge density and potential will be updated during run
 non-spin polarized calculation
 Variant of blocked Davidson
 perform Loewdin sub-space diagonalisation
    ordering is kept fixed
    before iterative eigenvector-optimisation
 modified Broyden-mixing scheme, WC =      100.0
 initial mixing is a Kerker type mixing with AMIX =  0.4000 and BMIX =      1.0000
 Hartree-type preconditioning will be used
 using additional bands           35
 reciprocal scheme for non local part
 use partial core corrections
 calculate Harris-corrections to forces   (improved forces if not selfconsistent)
 use gradient corrections 
 use of overlap-Matrix (Vanderbilt PP)
 Gauss-broadening in eV      SIGMA  =   0.10


--------------------------------------------------------------------------------------------------------


  energy-cutoff  :     1200.00
  volume of cell :     5445.07
      direct lattice vectors                 reciprocal lattice vectors
    14.553828003  0.000000000  0.000000000     0.068710445  0.000000000  0.000000000
     0.000000000 14.553828003  0.000000000     0.000000000  0.068710445  0.000000000
     0.000000000  0.000000000 25.706846000     0.000000000  0.000000000  0.038900144

  length of vectors
    14.553828003 14.553828003 25.706846000     0.068710445  0.068710445  0.038900144



 old parameters found on file WAVECAR:
  energy-cutoff  :     1200.00
  volume of cell :     5445.07
      direct lattice vectors                 reciprocal lattice vectors
    14.553828003  0.000000000  0.000000000     0.068710445  0.000000000  0.000000000
     0.000000000 14.553828003  0.000000000     0.000000000  0.068710445  0.000000000
     0.000000000  0.000000000 25.706846000     0.000000000  0.000000000  0.038900144

  length of vectors


 k-points in units of 2pi/SCALE and weight: read from INCAR                         
   0.00000000  0.00000000  0.00000000       0.125
   0.03435522  0.00000000  0.00000000       0.125
   0.00000000  0.03435522  0.00000000       0.125
   0.03435522  0.03435522  0.00000000       0.125
   0.00000000  0.00000000  0.01945007       0.125
   0.03435522  0.00000000  0.01945007       0.125
   0.00000000  0.03435522  0.01945007       0.125
   0.03435522  0.03435522  0.01945007       0.125

 k-points in reciprocal lattice and weights: read from INCAR                         
   0.00000000  0.00000000  0.00000000       0.125
   0.50000000  0.00000000  0.00000000       0.125
   0.00000000  0.50000000  0.00000000       0.125
   0.50000000  0.50000000  0.00000000       0.125
   0.00000000  0.00000000  0.50000000       0.125
   0.50000000  0.00000000  0.50000000       0.125
   0.00000000  0.50000000  0.50000000       0.125
   0.50000000  0.50000000  0.50000000       0.125

 position of ions in fractional coordinates (direct lattice) 
   0.34842652  0.98292282  0.58430124
   0.12373476  0.32466481  0.57045682
   0.49338422  0.84109475  0.59920878
   0.90312276  0.47005082  0.63380571
   0.93711077  0.48758697  0.61148023
   0.86747442  0.34384079  0.55774568
   0.63253817  0.20607527  0.45418428
   0.53847907  0.32413578  0.42837988
   0.58877108  0.67409913  0.54149408
   0.18749710  0.41017673  0.46252643
   0.98388063  0.00136847  0.49564329
   0.00798654  0.51101032  0.54735916
   0.22350387  0.28036816  0.40957118
   0.19454034  0.86580728  0.54942467
   0.05707657  0.92873549  0.58760971
   0.06944681  0.37006263  0.52053415
   0.30695932  0.40698591  0.52521433
   0.92238567  0.54681193  0.47387798
   0.39072743  0.83092062  0.40341933
   0.15293884  0.69700946  0.42992593
   0.38999718  0.53826169  0.53501189
   0.52301007  0.10356698  0.54858774
   0.87571571  0.13491014  0.59422935
   0.12935011  0.61506199  0.53245967
   0.04735215  0.82343704  0.42448740
   0.79536259  0.26999536  0.55913919
   0.83235452  0.04467387  0.47908399
   0.09412633  0.54822564  0.44848026
   0.77394686  0.93098991  0.42425527
   0.63178770  0.93255720  0.46830011
   0.63900111  0.43476542  0.47665597
   0.23650083  0.33357692  0.59801259
   0.47114756  0.78763042  0.55173431
   0.78848029  0.20442851  0.47477857
   0.94774167  0.84916136  0.52885349
   0.21459438  0.98100172  0.48905469
   0.35508054  0.96662608  0.44635554
   0.03026080  0.08577560  0.56830901
   0.57109404  0.58610401  0.46433039
   0.86241481  0.30670885  0.41921791
   0.48585981  0.86837045  0.47343057
   0.26978076  0.61780022  0.57945351
   0.31406767  0.75635467  0.54415685
   0.54754591  0.26019055  0.52841039
   0.55151218  0.07101006  0.45827490
   0.40822856  0.58536372  0.44912797
   0.11548027  0.17002856  0.43927959
   0.09326940  0.99066377  0.43016323
   0.63486757  0.99106268  0.55293096
   0.38733295  0.07664553  0.59273649
   0.38089446  0.24235104  0.42200325
   0.29140798  0.19247071  0.56389736
   0.08564450  0.76821953  0.51324279
   0.99576090  0.27002895  0.46362899
   0.73417769  0.74107370  0.53475917
   0.39112599  0.27509584  0.50872755
   0.79931145  0.45040519  0.44384718
   0.78982320  0.00519147  0.56543506
   0.16786472  0.12459460  0.52227578
   0.71446224  0.58552720  0.41672495
   0.64567840  0.37291791  0.56225566
   0.82070183  0.67461601  0.46745932
   0.54818104  0.51912896  0.56203426
   0.42387882  0.09033908  0.40771109
   0.88503610  0.81617091  0.44456786
   0.81976599  0.84740216  0.58294237
   0.31319030  0.72010424  0.45313438

 position of ions in cartesian coordinates  (Angst):
   5.07093970 14.30528966 15.02054208
   1.80081445  4.72511580 14.66464552
   7.18062906 12.24114839 15.40376773
  13.14389332  6.84103873 16.29314588
  13.63854894  7.09625689 15.71922822
  12.62507356  5.00419968 14.33788241
   9.20585177  2.99918408 11.67564537
   7.83693172  4.71741641 11.01229557
   8.56887308  9.81072273 13.92010505
   2.72880052  5.96964162 11.89009576
  14.31922946  0.01991642 12.74142578
   0.11623467  7.43715634 14.07087752
   3.25283684  4.08043005 10.52878330
   2.83130666 12.60081017 14.12397549
   0.83068255 13.51665658 15.10559237
   1.01071690  5.38582784 13.38129129
   4.46743315  5.92320292 13.50160395
  13.42424245  7.95820674 12.18190827
   5.68657981 12.09307586 10.37063847
   2.22584564 10.14415577 11.05203973
   5.67595181  7.83376800 13.75346821
   7.61179863  1.50729601 14.10246049
  12.74501576  1.96345895 15.27576237
   1.88253928  8.95150646 13.68785866
   0.68915506 11.98416106 10.91223234
  11.57557031  3.92946609 14.37370496
  12.11394447  0.65017578 12.31573842
   1.36989843  7.97878168 11.52901303
  11.26388951 13.54946699 10.90626478
   9.19492949 13.57227705 12.03851893
   9.29991222  6.32750108 12.25332153
   3.44199244  4.85482116 15.37301758
   6.85700053 11.46303773 14.18334886
  11.47540651  2.97521741 12.20505953
  13.79326932 12.35854841 13.59515530
   3.12316969 14.27733030 12.57205350
   5.16778111 14.06810965 11.47439316
   0.44041051  1.24836329 14.60943225
   8.31160445  8.53005698 11.93646991
  12.55143676  4.46378792 10.77677016
   7.07112013 12.63811423 12.17040684
   3.92634282  8.99135816 14.89592216
   4.57088692 11.00785580 13.98855623
   7.96888904  3.78676851 13.58376459
   8.02661336  1.03346815 11.78080222
   5.94128819  8.51928294 11.54566361
   1.68067999  2.47456645 11.29249278
   1.35742683 14.41795012 11.05813991
   9.23975335 14.42375583 14.21411111
   5.63717716  1.11548585 15.23738567
   5.54347248  3.52713534 10.84837244
   4.24110164  2.80118568 14.49602259
   1.24645534 11.18053486 13.19385330
  14.49213281  3.92995487 11.91843916
  10.68509588 10.78545915 13.74697168
   5.69238043  4.00369748 13.07778080
  11.63304143  6.55511964 11.40991117
  11.49495101  0.07555579 14.53555191
   2.44307419  1.81332842 13.42606300
  10.39816051  8.52166221 10.71268403
   9.39709239  5.42738308 14.45381960
  11.94435333  9.81824534 12.01690483
   7.97813258  7.55531353 14.44812824
   6.16905946  1.31477945 10.48096624
  12.88066324 11.87841104 11.42843764
  11.93073328 12.33294522 14.98560969
   4.55811770 10.48027321 11.64865583



--------------------------------------------------------------------------------------------------------


 k-point     1 :   0.0000 0.0000 0.0000  plane waves:  513673
 k-point     2 :   0.5000 0.0000 0.0000  plane waves:  514010
 k-point     3 :   0.0000 0.5000 0.0000  plane waves:  514010
 k-point     4 :   0.5000 0.5000 0.0000  plane waves:  513868
 k-point     5 :   0.0000 0.0000 0.5000  plane waves:  513778
 k-point     6 :   0.5000 0.0000 0.5000  plane waves:  513976
 k-point     7 :   0.0000 0.5000 0.5000  plane waves:  513976
 k-point     8 :   0.5000 0.5000 0.5000  plane waves:  514000

 maximum and minimum number of plane-waves per node :     32198    31987

 maximum number of plane-waves:    514010
 maximum index in each direction: 
   IXMAX=   41   IYMAX=   41   IZMAX=   72
   IXMIN=  -41   IYMIN=  -41   IZMIN=  -73


 parallel 3D FFT for wavefunctions:
    minimum data exchange during FFTs selected (reduces bandwidth)
 parallel 3D FFT for charge:
    minimum data exchange during FFTs selected (reduces bandwidth)


 total amount of memory used by VASP MPI-rank0   356944. kBytes
=======================================================================

   base                                    :      30000. kBytes
   nonl-proj                               :      67357. kBytes
   fftplans                                :     100025. kBytes
   grid                                    :      77177. kBytes
   one-center                              :         15. kBytes
   wavefun                                 :      82370. kBytes

     INWAV:  cpu time     24.6800: real time     25.7127
 Broyden mixing: mesh for mixing (old mesh)
   NGX = 83   NGY = 83   NGZ =145
  (NGX  =336   NGY  =336   NGZ  =588)
  gives a total of 998905 points

 initial charge density was supplied:
 number of electron     249.9999999 magnetization 
 keeping initial charge density in first step


--------------------------------------------------------------------------------------------------------


 Maximum index for augmentation-charges        11232 (set IRDMAX)


--------------------------------------------------------------------------------------------------------


 First call to EWALD:  gamma=   0.101
 Maximum number of real-space cells   3x   3x   2
 Maximum number of reciprocal cells   2x   2x   4

    FEWALD:  cpu time      0.0119: real time      0.0121


--------------------------------------- Ionic step        1  -------------------------------------------




--------------------------------------- Iteration      1(   1)  ---------------------------------------


    POTLOK:  cpu time      1.9408: real time      1.9424
    SETDIJ:  cpu time      1.3157: real time      1.3167
    EDDIAG:  cpu time     46.7341: real time     46.7587
     EDDAV:  cpu time    204.6769: real time    204.7849
       DOS:  cpu time      0.0088: real time      0.0088
    CHARGE:  cpu time     26.5076: real time     26.5329
    MIXING:  cpu time      0.0459: real time      0.0468
    --------------------------------------------
      LOOP:  cpu time    281.2299: real time    281.3913

 eigenvalue-minimisations  :  2560
 total energy-change (2. order) :-0.6298929E+03  (-0.7128722E+00)
 number of electron     249.9999999 magnetization 
 augmentation part      -13.8498724 magnetization 

 Broyden mixing:
  rms(total) = 0.92937E+00    rms(broyden)= 0.23052E+02
  rms(prec ) = 0.95926E+00
  weight for this iteration     100.00
  WARNING: grid for Broyden might be to small

 Free energy of the ion-electron system (eV)
  ---------------------------------------------------
  alpha Z        PSCENC =        24.24119373
  Ewald energy   TEWEN  =     29560.90258707
  -Hartree energ DENC   =    -35000.22641553
  -exchange      EXHF   =         0.00000000
  -V(xc)+E(xc)   XCENC  =      -286.30802258
  PAW double counting   =     21743.81171260   -21135.23522128
  entropy T*S    EENTRO =        -0.12404236
  eigenvalues    EBANDS =     -1898.96185977
  atomic energy  EATOM  =      6362.00715488
  Solvation  Ediel_sol  =         0.00000000
  ---------------------------------------------------
  free energy    TOTEN  =      -629.89291324 eV

  energy without entropy =     -629.76887088  energy(sigma->0) =     -629.83089206


--------------------------------------------------------------------------------------------------------




--------------------------------------- Iteration      1(   2)  ---------------------------------------


    POTLOK:  cpu time      1.9275: real time      1.9473
    SETDIJ:  cpu time      1.3084: real time      1.3090
    EDDIAG:  cpu time     46.6782: real time     46.7013
     EDDAV:  cpu time    207.3009: real time    207.4169
       DOS:  cpu time      0.0026: real time      0.0026
    CHARGE:  cpu time     26.4071: real time     26.4320
    MIXING:  cpu time      0.0387: real time      0.0392
    --------------------------------------------
      LOOP:  cpu time    283.6633: real time    283.8482

 eigenvalue-minimisations  :  2624
 total energy-change (2. order) : 0.4391432E+02  (-0.6843421E+00)
 number of electron     249.9999999 magnetization 
 augmentation part      -13.7953998 magnetization 

 Broyden mixing:
  rms(total) = 0.63662E+00    rms(broyden)= 0.13266E+02
  rms(prec ) = 0.65159E+00
  weight for this iteration     100.00
  WARNING: grid for Broyden might be to small

 eigenvalues of (default mixing * dielectric matrix)
  average eigenvalue GAMMA=   0.6348
  0.6348

 Free energy of the ion-electron system (eV)
  ---------------------------------------------------
  alpha Z        PSCENC =        24.24119373
  Ewald energy   TEWEN  =     29560.90258707
  -Hartree energ DENC   =    -34989.94892196
  -exchange      EXHF   =         0.00000000
  -V(xc)+E(xc)   XCENC  =      -280.10738699
  PAW double counting   =     25929.04637792   -25320.32839818
  entropy T*S    EENTRO =        -0.12606778
  eigenvalues    EBANDS =     -1871.66513545
  atomic energy  EATOM  =      6362.00715488
  Solvation  Ediel_sol  =         0.00000000
  ---------------------------------------------------
  free energy    TOTEN  =      -585.97859677 eV

  energy without entropy =     -585.85252899  energy(sigma->0) =     -585.91556288


--------------------------------------------------------------------------------------------------------




--------------------------------------- Iteration      1(   3)  ---------------------------------------


    POTLOK:  cpu time      1.9015: real time      1.9274
    SETDIJ:  cpu time      1.3148: real time      1.3158
    EDDIAG:  cpu time     46.7046: real time     46.7318
     EDDAV:  cpu time    204.5991: real time    204.7100
       DOS:  cpu time      0.0039: real time      0.0039
    CHARGE:  cpu time     26.4261: real time     26.4497
    MIXING:  cpu time      0.0368: real time      0.0368
    --------------------------------------------
      LOOP:  cpu time    280.9868: real time    281.1754

 eigenvalue-minimisations  :  2560
 total energy-change (2. order) :-0.2159274E+01  (-0.5460747E+00)
 number of electron     249.9999999 magnetization 
 augmentation part      -13.7545008 magnetization 

 Broyden mixing:
  rms(total) = 0.26704E+00    rms(broyden)= 0.19004E+02
  rms(prec ) = 0.32967E+00
  weight for this iteration     100.00
  WARNING: grid for Broyden might be to small

 eigenvalues of (default mixing * dielectric matrix)
  average eigenvalue GAMMA=   0.7891
  0.9510  0.6271

 Free energy of the ion-electron system (eV)
  ---------------------------------------------------
  alpha Z        PSCENC =        24.24119373
  Ewald energy   TEWEN  =     29560.90258707
  -Hartree energ DENC   =    -34990.21732267
  -exchange      EXHF   =         0.00000000
  -V(xc)+E(xc)   XCENC  =      -282.04827671
  PAW double counting   =     30832.49481685   -30223.87529743
  entropy T*S    EENTRO =        -0.13276915
  eigenvalues    EBANDS =     -1871.50995716
  atomic energy  EATOM  =      6362.00715488
  Solvation  Ediel_sol  =         0.00000000
  ---------------------------------------------------
  free energy    TOTEN  =      -588.13787058 eV

  energy without entropy =     -588.00510144  energy(sigma->0) =     -588.07148601


--------------------------------------------------------------------------------------------------------




--------------------------------------- Iteration      1(   4)  ---------------------------------------


    POTLOK:  cpu time      1.9144: real time      1.9341
    SETDIJ:  cpu time      1.3107: real time      1.3114
    EDDIAG:  cpu time     46.6925: real time     46.7185
     EDDAV:  cpu time    208.0456: real time    208.1572
       DOS:  cpu time      0.0041: real time      0.0041
    CHARGE:  cpu time     26.3967: real time     26.4203
    MIXING:  cpu time      0.0366: real time      0.0366
    --------------------------------------------
      LOOP:  cpu time    284.4007: real time    284.5823

 eigenvalue-minimisations  :  2640
 total energy-change (2. order) : 0.2921357E+00  (-0.5814086E-01)
 number of electron     249.9999999 magnetization 
 augmentation part      -13.7479451 magnetization 

 Broyden mixing:
  rms(total) = 0.47173E-01    rms(broyden)= 0.19684E+01
  rms(prec ) = 0.56966E-01
  weight for this iteration     100.00
  WARNING: grid for Broyden might be to small

 eigenvalues of (default mixing * dielectric matrix)
  average eigenvalue GAMMA=   1.0549
  1.7751  0.7675  0.6222

 Free energy of the ion-electron system (eV)
  ---------------------------------------------------
  alpha Z        PSCENC =        24.24119373
  Ewald energy   TEWEN  =     29560.90258707
  -Hartree energ DENC   =    -34990.89748180
  -exchange      EXHF   =         0.00000000
  -V(xc)+E(xc)   XCENC  =      -282.58163634
  PAW double counting   =     34802.54781569   -34193.96517251
  entropy T*S    EENTRO =        -0.12993114
  eigenvalues    EBANDS =     -1869.97026448
  atomic energy  EATOM  =      6362.00715488
  Solvation  Ediel_sol  =         0.00000000
  ---------------------------------------------------
  free energy    TOTEN  =      -587.84573490 eV

  energy without entropy =     -587.71580377  energy(sigma->0) =     -587.78076933


--------------------------------------------------------------------------------------------------------




--------------------------------------- Iteration      1(   5)  ---------------------------------------


    POTLOK:  cpu time      1.9251: real time      1.9547
    SETDIJ:  cpu time      1.3108: real time      1.3115
    EDDIAG:  cpu time     46.7014: real time     46.7269
     EDDAV:  cpu time    233.4201: real time    233.5534
       DOS:  cpu time      0.0034: real time      0.0034
    CHARGE:  cpu time     26.3922: real time     26.4154
    MIXING:  cpu time      0.0370: real time      0.0370
    --------------------------------------------
      LOOP:  cpu time    309.7900: real time    310.0023

 eigenvalue-minimisations  :  3216
 total energy-change (2. order) :-0.2427563E-01  (-0.6121719E-02)
 number of electron     249.9999999 magnetization 
 augmentation part      -13.7486743 magnetization 

 Broyden mixing:
  rms(total) = 0.29284E-01    rms(broyden)= 0.32394E+00
  rms(prec ) = 0.32656E-01
  weight for this iteration     100.00
  WARNING: grid for Broyden might be to small

 eigenvalues of (default mixing * dielectric matrix)
  average eigenvalue GAMMA=   1.1194
  2.3351  0.8906  0.6436  0.6083

 Free energy of the ion-electron system (eV)
  ---------------------------------------------------
  alpha Z        PSCENC =        24.24119373
  Ewald energy   TEWEN  =     29560.90258707
  -Hartree energ DENC   =    -34991.19112220
  -exchange      EXHF   =         0.00000000
  -V(xc)+E(xc)   XCENC  =      -283.36412620
  PAW double counting   =     34370.06090421   -33761.45447411
  entropy T*S    EENTRO =        -0.12918253
  eigenvalues    EBANDS =     -1868.94294537
  atomic energy  EATOM  =      6362.00715488
  Solvation  Ediel_sol  =         0.00000000
  ---------------------------------------------------
  free energy    TOTEN  =      -587.87001053 eV

  energy without entropy =     -587.74082800  energy(sigma->0) =     -587.80541926


--------------------------------------------------------------------------------------------------------




--------------------------------------- Iteration      1(   6)  ---------------------------------------


    POTLOK:  cpu time      1.9030: real time      1.9304
    SETDIJ:  cpu time      1.3114: real time      1.3120
    EDDIAG:  cpu time     46.7419: real time     46.7683
     EDDAV:  cpu time    218.6315: real time    218.7572
       DOS:  cpu time      0.0038: real time      0.0038
    CHARGE:  cpu time     26.4411: real time     26.4665
    MIXING:  cpu time      0.0379: real time      0.0379
    --------------------------------------------
      LOOP:  cpu time    295.0706: real time    295.2762

 eigenvalue-minimisations  :  2880
 total energy-change (2. order) :-0.2910010E-02  (-0.1269725E-02)
 number of electron     249.9999999 magnetization 
 augmentation part      -13.7481955 magnetization 

 Broyden mixing:
  rms(total) = 0.19310E-01    rms(broyden)= 0.22584E+00
  rms(prec ) = 0.20714E-01
  weight for this iteration     100.00
  WARNING: grid for Broyden might be to small

 eigenvalues of (default mixing * dielectric matrix)
  average eigenvalue GAMMA=   1.1131
  2.5987  1.0851  0.7116  0.6229  0.5475

 Free energy of the ion-electron system (eV)
  ---------------------------------------------------
  alpha Z        PSCENC =        24.24119373
  Ewald energy   TEWEN  =     29560.90258707
  -Hartree energ DENC   =    -34991.11571302
  -exchange      EXHF   =         0.00000000
  -V(xc)+E(xc)   XCENC  =      -283.48686830
  PAW double counting   =     34293.46166384   -33684.84456646
  entropy T*S    EENTRO =        -0.13003124
  eigenvalues    EBANDS =     -1868.90834105
  atomic energy  EATOM  =      6362.00715488
  Solvation  Ediel_sol  =         0.00000000
  ---------------------------------------------------
  free energy    TOTEN  =      -587.87292054 eV

  energy without entropy =     -587.74288930  energy(sigma->0) =     -587.80790492


--------------------------------------------------------------------------------------------------------




--------------------------------------- Iteration      1(   7)  ---------------------------------------


    POTLOK:  cpu time      1.9042: real time      1.9326
    SETDIJ:  cpu time      1.3107: real time      1.3115
    EDDIAG:  cpu time     46.7230: real time     46.7493
     EDDAV:  cpu time    209.5311: real time    209.6402
       DOS:  cpu time      0.0027: real time      0.0027
    CHARGE:  cpu time     26.4242: real time     26.4467
    MIXING:  cpu time      0.0397: real time      0.0397
    --------------------------------------------
      LOOP:  cpu time    285.9357: real time    286.1228

 eigenvalue-minimisations  :  2672
 total energy-change (2. order) :-0.1367011E-02  (-0.6131512E-03)
 number of electron     249.9999999 magnetization 
 augmentation part      -13.7469531 magnetization 

 Broyden mixing:
  rms(total) = 0.79862E-02    rms(broyden)= 0.16448E+00
  rms(prec ) = 0.91341E-02
  weight for this iteration     100.00
  WARNING: grid for Broyden might be to small

 eigenvalues of (default mixing * dielectric matrix)
  average eigenvalue GAMMA=   1.1459
  2.7572  1.4569  0.8677  0.6228  0.6228  0.5480

 Free energy of the ion-electron system (eV)
  ---------------------------------------------------
  alpha Z        PSCENC =        24.24119373
  Ewald energy   TEWEN  =     29560.90258707
  -Hartree energ DENC   =    -34991.00661293
  -exchange      EXHF   =         0.00000000
  -V(xc)+E(xc)   XCENC  =      -283.40818833
  PAW double counting   =     34288.26637091   -33679.63780126
  entropy T*S    EENTRO =        -0.12943479
  eigenvalues    EBANDS =     -1869.10955683
  atomic energy  EATOM  =      6362.00715488
  Solvation  Ediel_sol  =         0.00000000
  ---------------------------------------------------
  free energy    TOTEN  =      -587.87428755 eV

  energy without entropy =     -587.74485276  energy(sigma->0) =     -587.80957015


--------------------------------------------------------------------------------------------------------




--------------------------------------- Iteration      1(   8)  ---------------------------------------


    POTLOK:  cpu time      1.9079: real time      1.9358
    SETDIJ:  cpu time      1.3115: real time      1.3122
    EDDIAG:  cpu time     46.7247: real time     46.7496
     EDDAV:  cpu time    214.4501: real time    214.5724
       DOS:  cpu time      0.0052: real time      0.0052
    CHARGE:  cpu time     26.4598: real time     26.4832
    MIXING:  cpu time      0.0396: real time      0.0396
    --------------------------------------------
      LOOP:  cpu time    290.8988: real time    291.0979

 eigenvalue-minimisations  :  2784
 total energy-change (2. order) :-0.3853361E-03  (-0.1793258E-03)
 number of electron     249.9999999 magnetization 
 augmentation part      -13.7469353 magnetization 

 Broyden mixing:
  rms(total) = 0.24548E-02    rms(broyden)= 0.12552E+00
  rms(prec ) = 0.31512E-02
  weight for this iteration     100.00
  WARNING: grid for Broyden might be to small

 eigenvalues of (default mixing * dielectric matrix)
  average eigenvalue GAMMA=   1.3790
  3.6239  2.3324  1.1390  0.7774  0.6233  0.6233  0.5335

 Free energy of the ion-electron system (eV)
  ---------------------------------------------------
  alpha Z        PSCENC =        24.24119373
  Ewald energy   TEWEN  =     29560.90258707
  -Hartree energ DENC   =    -34990.75639562
  -exchange      EXHF   =         0.00000000
  -V(xc)+E(xc)   XCENC  =      -283.37793237
  PAW double counting   =     34319.92469662   -33711.29097654
  entropy T*S    EENTRO =        -0.12987596
  eigenvalues    EBANDS =     -1869.39512469
  atomic energy  EATOM  =      6362.00715488
  Solvation  Ediel_sol  =         0.00000000
  ---------------------------------------------------
  free energy    TOTEN  =      -587.87467289 eV

  energy without entropy =     -587.74479692  energy(sigma->0) =     -587.80973490


--------------------------------------------------------------------------------------------------------




--------------------------------------- Iteration      1(   9)  ---------------------------------------


    POTLOK:  cpu time      1.9019: real time      1.9309
    SETDIJ:  cpu time      1.3214: real time      1.3222
    EDDIAG:  cpu time     46.7074: real time     46.7319
     EDDAV:  cpu time    212.6238: real time    212.7453
       DOS:  cpu time      0.0028: real time      0.0028
    CHARGE:  cpu time     26.4531: real time     26.4771
    MIXING:  cpu time      0.0387: real time      0.0394
    --------------------------------------------
      LOOP:  cpu time    289.0492: real time    289.2498

 eigenvalue-minimisations  :  2744
 total energy-change (2. order) :-0.1266137E-05  (-0.7084229E-04)
 number of electron     249.9999999 magnetization 
 augmentation part      -13.7470200 magnetization 

 Broyden mixing:
  rms(total) = 0.15972E-02    rms(broyden)= 0.96281E-01
  rms(prec ) = 0.21579E-02
  weight for this iteration     100.00
  WARNING: grid for Broyden might be to small

 eigenvalues of (default mixing * dielectric matrix)
  average eigenvalue GAMMA=   1.6558
  5.9144  2.5673  1.3095  0.9291  0.7140  0.6542  0.6224  0.5351

 Free energy of the ion-electron system (eV)
  ---------------------------------------------------
  alpha Z        PSCENC =        24.24119373
  Ewald energy   TEWEN  =     29560.90258707
  -Hartree energ DENC   =    -34990.56605630
  -exchange      EXHF   =         0.00000000
  -V(xc)+E(xc)   XCENC  =      -283.40375424
  PAW double counting   =     34319.03254855   -33710.39785632
  entropy T*S    EENTRO =        -0.12971860
  eigenvalues    EBANDS =     -1869.56077292
  atomic energy  EATOM  =      6362.00715488
  Solvation  Ediel_sol  =         0.00000000
  ---------------------------------------------------
  free energy    TOTEN  =      -587.87467415 eV

  energy without entropy =     -587.74495555  energy(sigma->0) =     -587.80981485


--------------------------------------------------------------------------------------------------------




--------------------------------------- Iteration      1(  10)  ---------------------------------------


    POTLOK:  cpu time      1.9057: real time      1.9325
    SETDIJ:  cpu time      1.3109: real time      1.3117
    EDDIAG:  cpu time     46.7182: real time     46.7413
     EDDAV:  cpu time    214.1310: real time    214.2554
       DOS:  cpu time      0.0026: real time      0.0026
    CHARGE:  cpu time     26.4360: real time     26.4597
    MIXING:  cpu time      0.0423: real time      0.0423
    --------------------------------------------
      LOOP:  cpu time    290.5464: real time    290.7453

 eigenvalue-minimisations  :  2776
 total energy-change (2. order) :-0.5074268E-04  (-0.4028760E-04)
 number of electron     249.9999999 magnetization 
 augmentation part      -13.7471121 magnetization 

 Broyden mixing:
  rms(total) = 0.87943E-03    rms(broyden)= 0.79839E-01
  rms(prec ) = 0.14078E-02
  weight for this iteration     100.00
  WARNING: grid for Broyden might be to small

 eigenvalues of (default mixing * dielectric matrix)
  average eigenvalue GAMMA=   1.7973
  7.4864  2.6427  1.6151  1.1184  0.8219  0.6741  0.5531  0.6457  0.6180

 Free energy of the ion-electron system (eV)
  ---------------------------------------------------
  alpha Z        PSCENC =        24.24119373
  Ewald energy   TEWEN  =     29560.90258707
  -Hartree energ DENC   =    -34990.33345164
  -exchange      EXHF   =         0.00000000
  -V(xc)+E(xc)   XCENC  =      -283.40943684
  PAW double counting   =     34317.02613777   -33708.39052385
  entropy T*S    EENTRO =        -0.12979189
  eigenvalues    EBANDS =     -1869.78859413
  atomic energy  EATOM  =      6362.00715488
  Solvation  Ediel_sol  =         0.00000000
  ---------------------------------------------------
  free energy    TOTEN  =      -587.87472489 eV

  energy without entropy =     -587.74493300  energy(sigma->0) =     -587.80982895


--------------------------------------------------------------------------------------------------------




--------------------------------------- Iteration      1(  11)  ---------------------------------------


    POTLOK:  cpu time      1.9657: real time      1.9675
    SETDIJ:  cpu time      1.3082: real time      1.3091
    EDDIAG:  cpu time     46.7059: real time     46.7289
     EDDAV:  cpu time    209.5083: real time    209.6280
       DOS:  cpu time      0.0035: real time      0.0035
    CHARGE:  cpu time     26.4141: real time     26.4394
    MIXING:  cpu time      0.0422: real time      0.0423
    --------------------------------------------
      LOOP:  cpu time    285.9479: real time    286.1186

 eigenvalue-minimisations  :  2672
 total energy-change (2. order) :-0.1117669E-03  (-0.3408633E-04)
 number of electron     249.9999999 magnetization 
 augmentation part      -13.7471742 magnetization 

 Broyden mixing:
  rms(total) = 0.45024E-03    rms(broyden)= 0.63567E-01
  rms(prec ) = 0.93993E-03
  weight for this iteration     100.00
  WARNING: grid for Broyden might be to small

 eigenvalues of (default mixing * dielectric matrix)
  average eigenvalue GAMMA=   1.9261
  8.9025  2.7947  2.2181  1.2331  0.9376  0.7404  0.6722  0.6155  0.5736  0.5736

 Free energy of the ion-electron system (eV)
  ---------------------------------------------------
  alpha Z        PSCENC =        24.24119373
  Ewald energy   TEWEN  =     29560.90258707
  -Hartree energ DENC   =    -34990.09599021
  -exchange      EXHF   =         0.00000000
  -V(xc)+E(xc)   XCENC  =      -283.41815116
  PAW double counting   =     34314.31940154   -33705.68335809
  entropy T*S    EENTRO =        -0.12976704
  eigenvalues    EBANDS =     -1870.01790737
  atomic energy  EATOM  =      6362.00715488
  Solvation  Ediel_sol  =         0.00000000
  ---------------------------------------------------
  free energy    TOTEN  =      -587.87483666 eV

  energy without entropy =     -587.74506962  energy(sigma->0) =     -587.80995314


--------------------------------------------------------------------------------------------------------




--------------------------------------- Iteration      1(  12)  ---------------------------------------


    POTLOK:  cpu time      1.9021: real time      1.9296
    SETDIJ:  cpu time      1.3138: real time      1.3150
    EDDIAG:  cpu time     46.7593: real time     46.7831
     EDDAV:  cpu time    209.6189: real time    209.7435
       DOS:  cpu time      0.0038: real time      0.0038
    CHARGE:  cpu time     26.4429: real time     26.4682
    MIXING:  cpu time      0.0422: real time      0.0422
    --------------------------------------------
      LOOP:  cpu time    286.0827: real time    286.2853

 eigenvalue-minimisations  :  2672
 total energy-change (2. order) :-0.1775334E-03  (-0.4057892E-04)
 number of electron     249.9999999 magnetization 
 augmentation part      -13.7472477 magnetization 

 Broyden mixing:
  rms(total) = 0.28607E-03    rms(broyden)= 0.50385E-01
  rms(prec ) = 0.69510E-03
  weight for this iteration     100.00
  WARNING: grid for Broyden might be to small

 eigenvalues of (default mixing * dielectric matrix)
  average eigenvalue GAMMA=   1.9465
  9.6285  2.9795  2.4964  1.3207  1.0222  0.8526  0.7233  0.5695  0.5695  0.6401
  0.6092

 Free energy of the ion-electron system (eV)
  ---------------------------------------------------
  alpha Z        PSCENC =        24.24119373
  Ewald energy   TEWEN  =     29560.90258707
  -Hartree energ DENC   =    -34989.89184766
  -exchange      EXHF   =         0.00000000
  -V(xc)+E(xc)   XCENC  =      -283.42560151
  PAW double counting   =     34316.16964492   -33707.53391027
  entropy T*S    EENTRO =        -0.12976362
  eigenvalues    EBANDS =     -1870.21447172
  atomic energy  EATOM  =      6362.00715488
  Solvation  Ediel_sol  =         0.00000000
  ---------------------------------------------------
  free energy    TOTEN  =      -587.87501419 eV

  energy without entropy =     -587.74525057  energy(sigma->0) =     -587.81013238


--------------------------------------------------------------------------------------------------------




--------------------------------------- Iteration      1(  13)  ---------------------------------------


    POTLOK:  cpu time      1.9278: real time      1.9290
    SETDIJ:  cpu time      1.3173: real time      1.3180
    EDDIAG:  cpu time     46.7319: real time     46.7546
     EDDAV:  cpu time    209.6117: real time    209.7278
       DOS:  cpu time      0.0024: real time      0.0025
    CHARGE:  cpu time     26.4044: real time     26.4289
    MIXING:  cpu time      0.0435: real time      0.0435
    --------------------------------------------
      LOOP:  cpu time    286.0391: real time    286.2043

 eigenvalue-minimisations  :  2672
 total energy-change (2. order) :-0.1853072E-03  (-0.5046088E-04)
 number of electron     249.9999999 magnetization 
 augmentation part      -13.7472998 magnetization 

 Broyden mixing:
  rms(total) = 0.22446E-03    rms(broyden)= 0.35837E-01
  rms(prec ) = 0.49545E-03
  weight for this iteration     100.00
  WARNING: grid for Broyden might be to small

 eigenvalues of (default mixing * dielectric matrix)
  average eigenvalue GAMMA=   1.9234
  9.8686  3.1520  2.5927  1.4832  1.1465  0.9558  0.8048  0.6962  0.6209  0.5796
  0.5905  0.5905

 Free energy of the ion-electron system (eV)
  ---------------------------------------------------
  alpha Z        PSCENC =        24.24119373
  Ewald energy   TEWEN  =     29560.90258707
  -Hartree energ DENC   =    -34989.67654292
  -exchange      EXHF   =         0.00000000
  -V(xc)+E(xc)   XCENC  =      -283.43130936
  PAW double counting   =     34315.81551693   -33707.18009741
  entropy T*S    EENTRO =        -0.12978157
  eigenvalues    EBANDS =     -1870.42392085
  atomic energy  EATOM  =      6362.00715488
  Solvation  Ediel_sol  =         0.00000000
  ---------------------------------------------------
  free energy    TOTEN  =      -587.87519950 eV

  energy without entropy =     -587.74541793  energy(sigma->0) =     -587.81030872


--------------------------------------------------------------------------------------------------------




--------------------------------------- Iteration      1(  14)  ---------------------------------------


    POTLOK:  cpu time      1.9268: real time      1.9281
    SETDIJ:  cpu time      1.3156: real time      1.3164
    EDDIAG:  cpu time     46.7568: real time     46.7813
     EDDAV:  cpu time    208.2467: real time    208.3593
       DOS:  cpu time      0.0102: real time      0.0104
    CHARGE:  cpu time     26.4264: real time     26.4522
    MIXING:  cpu time      0.0586: real time      0.0591
    --------------------------------------------
      LOOP:  cpu time    284.7411: real time    284.9068

 eigenvalue-minimisations  :  2640
 total energy-change (2. order) :-0.1642031E-03  (-0.4544340E-04)
 number of electron     249.9999999 magnetization 
 augmentation part      -13.7473415 magnetization 

 Broyden mixing:
  rms(total) = 0.19422E-03    rms(broyden)= 0.20280E-01
  rms(prec ) = 0.31852E-03
  weight for this iteration     100.00
  WARNING: grid for Broyden might be to small

 eigenvalues of (default mixing * dielectric matrix)
  average eigenvalue GAMMA=   1.8907
  9.9456  3.3079  2.6247  1.7832  1.2358  1.0010  0.8512  0.7911  0.6666  0.6259
  0.5730  0.5866  0.5866

 Free energy of the ion-electron system (eV)
  ---------------------------------------------------
  alpha Z        PSCENC =        24.24119373
  Ewald energy   TEWEN  =     29560.90258707
  -Hartree energ DENC   =    -34989.46576100
  -exchange      EXHF   =         0.00000000
  -V(xc)+E(xc)   XCENC  =      -283.43424331
  PAW double counting   =     34315.12595192   -33706.49080139
  entropy T*S    EENTRO =        -0.12975858
  eigenvalues    EBANDS =     -1870.63168701
  atomic energy  EATOM  =      6362.00715488
  Solvation  Ediel_sol  =         0.00000000
  ---------------------------------------------------
  free energy    TOTEN  =      -587.87536371 eV

  energy without entropy =     -587.74560512  energy(sigma->0) =     -587.81048441


--------------------------------------------------------------------------------------------------------




--------------------------------------- Iteration      1(  15)  ---------------------------------------


    POTLOK:  cpu time      1.9578: real time      1.9839
    SETDIJ:  cpu time      1.3154: real time      1.3167
    EDDIAG:  cpu time     46.7216: real time     46.7468
     EDDAV:  cpu time    213.7816: real time    213.8905
       DOS:  cpu time      0.0043: real time      0.0043
    CHARGE:  cpu time     26.6211: real time     26.6424
    MIXING:  cpu time      0.0455: real time      0.0456
    --------------------------------------------
      LOOP:  cpu time    290.4475: real time    290.6302

 eigenvalue-minimisations  :  2768
 total energy-change (2. order) :-0.7509208E-04  (-0.1773611E-04)
 number of electron     249.9999999 magnetization 
 augmentation part      -13.7473639 magnetization 

 Broyden mixing:
  rms(total) = 0.11695E-03    rms(broyden)= 0.12544E-01
  rms(prec ) = 0.19716E-03
  weight for this iteration     100.00
  WARNING: grid for Broyden might be to small

 eigenvalues of (default mixing * dielectric matrix)
  average eigenvalue GAMMA=   1.8768
  9.9840  3.5248  2.6265  2.2673  1.3435  1.0695  0.8966  0.8231  0.7297  0.6593
  0.6290  0.5755  0.5731  0.5731

 Free energy of the ion-electron system (eV)
  ---------------------------------------------------
  alpha Z        PSCENC =        24.24119373
  Ewald energy   TEWEN  =     29560.90258707
  -Hartree energ DENC   =    -34989.37556855
  -exchange      EXHF   =         0.00000000
  -V(xc)+E(xc)   XCENC  =      -283.43485954
  PAW double counting   =     34315.80258336   -33707.16753978
  entropy T*S    EENTRO =        -0.12978142
  eigenvalues    EBANDS =     -1870.72120854
  atomic energy  EATOM  =      6362.00715488
  Solvation  Ediel_sol  =         0.00000000
  ---------------------------------------------------
  free energy    TOTEN  =      -587.87543880 eV

  energy without entropy =     -587.74565737  energy(sigma->0) =     -587.81054809


--------------------------------------------------------------------------------------------------------




--------------------------------------- Iteration      1(  16)  ---------------------------------------


    POTLOK:  cpu time      1.9184: real time      1.9472
    SETDIJ:  cpu time      1.3156: real time      1.3162
    EDDIAG:  cpu time     47.3047: real time     47.3171
     EDDAV:  cpu time    211.7097: real time    211.7972
       DOS:  cpu time      0.0038: real time      0.0038
    CHARGE:  cpu time     26.4094: real time     26.4307
    MIXING:  cpu time      0.0465: real time      0.0465
    --------------------------------------------
      LOOP:  cpu time    288.7081: real time    288.8587

 eigenvalue-minimisations  :  2712
 total energy-change (2. order) :-0.2940379E-04  (-0.7204937E-05)
 number of electron     249.9999999 magnetization 
 augmentation part      -13.7473717 magnetization 

 Broyden mixing:
  rms(total) = 0.70825E-04    rms(broyden)= 0.70548E-02
  rms(prec ) = 0.11669E-03
  weight for this iteration     100.00
  WARNING: grid for Broyden might be to small

 eigenvalues of (default mixing * dielectric matrix)
  average eigenvalue GAMMA=   1.8489
  9.9942  3.6384  2.6510  2.4436  1.4456  1.1819  1.0220  0.8804  0.7968  0.6839
  0.6560  0.6265  0.5691  0.5691  0.5754

 Free energy of the ion-electron system (eV)
  ---------------------------------------------------
  alpha Z        PSCENC =        24.24119373
  Ewald energy   TEWEN  =     29560.90258707
  -Hartree energ DENC   =    -34989.32764191
  -exchange      EXHF   =         0.00000000
  -V(xc)+E(xc)   XCENC  =      -283.43505411
  PAW double counting   =     34315.77984078   -33707.14479802
  entropy T*S    EENTRO =        -0.12977069
  eigenvalues    EBANDS =     -1870.76897993
  atomic energy  EATOM  =      6362.00715488
  Solvation  Ediel_sol  =         0.00000000
  ---------------------------------------------------
  free energy    TOTEN  =      -587.87546820 eV

  energy without entropy =     -587.74569751  energy(sigma->0) =     -587.81058285


--------------------------------------------------------------------------------------------------------




--------------------------------------- Iteration      1(  17)  ---------------------------------------


    POTLOK:  cpu time      1.9273: real time      1.9543
    SETDIJ:  cpu time      1.3161: real time      1.3168
    EDDIAG:  cpu time     46.7369: real time     46.7586
     EDDAV:  cpu time    211.4170: real time    211.5121
       DOS:  cpu time      0.0035: real time      0.0035
    CHARGE:  cpu time     26.4155: real time     26.4374
    MIXING:  cpu time      0.0466: real time      0.0466
    --------------------------------------------
      LOOP:  cpu time    287.8629: real time    288.0292

 eigenvalue-minimisations  :  2712
 total energy-change (2. order) :-0.8181294E-05  (-0.2144789E-05)
 number of electron     249.9999999 magnetization 
 augmentation part      -13.7473767 magnetization 

 Broyden mixing:
  rms(total) = 0.45668E-04    rms(broyden)= 0.42139E-02
  rms(prec ) = 0.76366E-04
  weight for this iteration     100.00
  WARNING: grid for Broyden might be to small

 eigenvalues of (default mixing * dielectric matrix)
  average eigenvalue GAMMA=   1.8396
  9.9989  3.7647  2.7285  2.6173  1.7969  1.3142  1.0617  0.8685  0.8685  0.7837
  0.6806  0.6322  0.6037  0.5712  0.5712  0.5722

 Free energy of the ion-electron system (eV)
  ---------------------------------------------------
  alpha Z        PSCENC =        24.24119373
  Ewald energy   TEWEN  =     29560.90258707
  -Hartree energ DENC   =    -34989.31135787
  -exchange      EXHF   =         0.00000000
  -V(xc)+E(xc)   XCENC  =      -283.43504729
  PAW double counting   =     34315.64002015   -33707.00492051
  entropy T*S    EENTRO =        -0.12977340
  eigenvalues    EBANDS =     -1870.78533313
  atomic energy  EATOM  =      6362.00715488
  Solvation  Ediel_sol  =         0.00000000
  ---------------------------------------------------
  free energy    TOTEN  =      -587.87547638 eV

  energy without entropy =     -587.74570298  energy(sigma->0) =     -587.81058968


--------------------------------------------------------------------------------------------------------




--------------------------------------- Iteration      1(  18)  ---------------------------------------


    POTLOK:  cpu time      1.9066: real time      1.9337
    SETDIJ:  cpu time      1.3155: real time      1.3166
    EDDIAG:  cpu time     46.7483: real time     46.7692
     EDDAV:  cpu time    206.5109: real time    206.6024
[...]
 -----------------------------------------------------------------------------------------------
   0.414E+01 0.187E+02 -.542E+02   -.522E+01 -.215E+02 0.538E+02   0.112E+01 0.274E+01 0.412E+00   -.289E-05 -.706E-04 0.777E-05
   0.104E+02 0.400E+01 -.564E+02   -.106E+02 -.483E+01 0.575E+02   0.173E+00 0.867E+00 -.111E+01   -.266E-04 0.195E-04 0.360E-04
   -.627E+01 -.780E+01 -.774E+02   0.698E+01 0.949E+01 0.801E+02   -.671E+00 -.168E+01 -.259E+01   0.137E-04 -.490E-05 -.127E-05
   0.158E+02 0.286E+01 -.778E+02   -.180E+02 -.401E+01 0.805E+02   0.269E+01 0.138E+01 -.312E+01   0.118E-04 0.106E-04 0.287E-05
   -.194E+01 -.753E+01 -.547E+02   0.359E+01 0.853E+01 0.531E+02   -.243E+01 -.133E+01 0.266E+01   -.525E-05 0.756E-05 0.380E-04
   -.108E+02 -.188E+02 -.410E+02   0.128E+02 0.208E+02 0.409E+02   -.207E+01 -.213E+01 0.863E-01   -.242E-04 -.380E-05 0.809E-05
   -.348E+02 -.288E+01 0.151E+03   0.334E+02 0.159E+01 -.151E+03   0.138E+01 0.106E+01 -.992E+00   -.143E-05 -.347E-04 -.149E-03
   0.451E+01 -.440E+02 0.221E+03   -.300E+01 0.432E+02 -.221E+03   -.168E+01 0.910E+00 0.863E+00   0.260E-04 0.219E-04 -.100E-03
   -.228E+02 -.435E+01 -.135E+03   0.231E+02 0.464E+01 0.133E+03   -.101E+00 -.115E+00 0.126E+01   0.355E-04 0.469E-04 -.714E-04
   -.537E+01 -.246E+02 0.134E+03   0.565E+01 0.223E+02 -.131E+03   -.165E+00 0.213E+01 -.347E+01   0.280E-04 0.473E-04 -.161E-03
   0.129E+02 -.178E+02 0.365E+02   -.129E+02 0.189E+02 -.377E+02   0.161E-01 -.997E+00 0.106E+01   -.661E-04 -.767E-04 -.835E-04
   0.370E+02 -.438E+01 -.167E+03   -.363E+02 0.601E+01 0.166E+03   -.300E+00 -.118E+01 0.597E+00   -.251E-04 0.401E-04 0.433E-04
   0.758E+01 -.187E+02 0.252E+03   -.827E+01 0.188E+02 -.251E+03   0.576E+00 0.123E+00 -.113E+01   0.413E-04 -.454E-05 -.260E-03
   -.273E+02 0.428E+01 -.171E+03   0.263E+02 -.390E+01 0.169E+03   0.127E+01 -.230E+00 0.261E+01   0.847E-05 -.823E-04 0.111E-04
   -.827E+01 0.169E+02 -.266E+03   0.578E+01 -.180E+02 0.269E+03   0.216E+01 0.873E+00 -.262E+01   -.794E-04 -.883E-04 0.117E-03
   0.293E+02 0.235E+01 -.779E+02   -.298E+02 -.107E+01 0.734E+02   0.529E+00 -.160E+01 0.400E+01   -.287E-04 0.618E-04 0.158E-04
   -.681E+01 -.227E+02 -.671E+02   0.799E+01 0.222E+02 0.679E+02   -.134E+01 0.443E+00 -.900E+00   0.684E-04 0.814E-04 -.513E-04
   0.106E+02 0.173E+01 0.682E+02   -.128E+02 -.122E+01 -.674E+02   0.195E+01 -.520E+00 -.113E+01   -.673E-04 0.278E-04 -.693E-04
   -.145E+02 0.252E+02 0.274E+03   0.152E+02 -.248E+02 -.275E+03   -.699E+00 -.636E+00 0.470E+00   0.142E-03 0.992E-05 -.260E-03
   -.595E+01 0.195E+02 0.219E+03   0.634E+01 -.198E+02 -.221E+03   -.538E+00 0.478E+00 0.111E+01   0.569E-04 0.237E-04 -.112E-03
   -.143E+02 0.374E+01 -.112E+03   0.120E+02 -.418E+01 0.108E+03   0.203E+01 0.419E+00 0.312E+01   0.544E-04 0.687E-04 -.195E-04
   -.600E+01 -.236E+00 -.166E+03   0.486E+01 -.128E+01 0.164E+03   0.744E+00 0.129E+01 0.227E+01   0.164E-03 -.316E-04 -.537E-04
   0.353E+00 -.328E+02 -.252E+03   -.146E+01 0.327E+02 0.253E+03   0.103E+01 0.154E+00 -.124E+01   -.622E-04 -.261E-04 0.934E-04
   0.117E+02 0.106E+02 -.119E+03   -.105E+02 -.108E+02 0.119E+03   -.736E+00 0.162E+00 0.758E+00   0.146E-04 0.348E-04 0.539E-04
   0.597E+01 0.110E+02 0.238E+03   -.663E+01 -.991E+01 -.238E+03   0.644E+00 -.654E+00 -.452E+00   -.174E-04 0.458E-04 -.102E-03
   0.869E+01 -.271E+02 -.182E+03   -.619E+01 0.271E+02 0.178E+03   -.220E+01 -.537E-01 0.332E+01   -.642E-04 0.245E-04 0.320E-04
   0.657E+01 -.238E+02 0.919E+02   -.612E+01 0.209E+02 -.915E+02   -.528E+00 0.294E+01 -.621E+00   -.103E-03 -.891E-04 -.156E-03
   0.135E+02 0.163E+02 0.178E+03   -.122E+02 -.161E+02 -.178E+03   -.165E+01 -.720E+00 -.672E-01   0.156E-04 0.945E-05 -.106E-03
   0.150E+02 0.123E+02 0.237E+03   -.144E+02 -.958E+01 -.239E+03   -.479E+00 -.251E+01 0.117E+01   -.921E-04 0.156E-04 -.286E-03
   -.148E+02 0.433E+02 0.110E+03   0.135E+02 -.419E+02 -.108E+03   0.123E+01 -.173E+01 -.210E+01   0.285E-04 -.619E-04 -.152E-03
   -.131E+02 -.128E+02 0.661E+02   0.133E+02 0.109E+02 -.652E+02   -.344E+00 0.180E+01 -.104E+01   -.120E-04 0.595E-04 -.814E-04
   0.906E+01 -.201E+02 -.269E+03   -.779E+01 0.220E+02 0.273E+03   -.152E+01 -.151E+01 -.300E+01   -.386E-04 0.982E-04 0.301E-03
   -.169E+02 0.975E+01 -.155E+03   0.163E+02 -.691E+01 0.155E+03   0.518E+00 -.265E+01 -.293E+00   0.462E-04 0.139E-04 -.474E-04
   -.928E+01 -.263E+01 0.804E+02   0.888E+01 0.441E+01 -.805E+02   0.548E+00 -.189E+01 0.162E-01   -.729E-04 -.334E-04 -.123E-03
   0.176E+02 0.449E+02 -.984E+02   -.198E+02 -.438E+02 0.985E+02   0.202E+01 -.101E+01 0.276E-01   -.589E-04 -.289E-04 0.620E-06
   -.268E+02 0.743E+00 0.328E+02   0.251E+02 -.927E+00 -.326E+02   0.178E+01 0.257E+00 -.227E+00   0.222E-04 -.823E-04 -.155E-03
   0.113E+02 -.415E+01 0.135E+03   -.116E+02 0.391E+01 -.136E+03   0.244E-01 0.341E+00 0.156E+01   0.126E-03 -.337E-04 -.222E-03
   -.363E+01 -.482E+02 -.208E+03   0.420E+01 0.454E+02 0.206E+03   -.418E+00 0.311E+01 0.266E+01   -.602E-04 -.580E-04 0.799E-04
   -.266E+01 -.168E+02 0.124E+03   0.190E+01 0.178E+02 -.124E+03   0.580E+00 -.633E+00 -.117E+01   0.521E-04 0.345E-04 -.125E-03
   -.450E+01 -.937E+01 0.234E+03   0.418E+01 0.722E+01 -.235E+03   0.256E+00 0.204E+01 0.720E+00   -.764E-04 -.438E-04 -.319E-03
   -.255E+02 0.214E+02 0.692E+02   0.255E+02 -.234E+02 -.699E+02   0.838E-01 0.158E+01 0.429E+00   0.445E-04 -.385E-04 -.137E-03
   0.494E+01 0.174E+02 -.241E+03   -.452E+01 -.162E+02 0.244E+03   -.490E+00 -.136E+01 -.192E+01   0.114E-05 0.292E-04 0.185E-03
   -.121E+02 -.906E+01 -.143E+03   0.120E+02 0.565E+01 0.143E+03   -.119E+00 0.306E+01 0.750E+00   0.746E-04 -.895E-05 -.200E-05
   -.772E+01 -.211E+02 -.119E+03   0.802E+01 0.201E+02 0.119E+03   -.100E+00 0.123E+01 0.153E+00   0.657E-04 0.230E-04 -.546E-04
   -.140E+02 0.141E+02 0.131E+03   0.139E+02 -.121E+02 -.131E+03   0.431E+00 -.190E+01 0.382E+00   -.960E-05 -.718E-04 -.232E-03
   -.313E+01 0.161E+02 0.181E+03   0.829E+00 -.197E+02 -.181E+03   0.212E+01 0.300E+01 -.905E+00   0.665E-04 0.338E-04 -.158E-03
   0.168E+02 -.160E+01 0.194E+03   -.155E+02 0.319E+01 -.190E+03   -.941E+00 -.149E+01 -.373E+01   0.321E-04 -.420E-04 -.254E-03
   0.442E+01 -.827E+01 0.240E+03   -.332E+01 0.812E+01 -.237E+03   -.903E+00 0.618E-01 -.359E+01   -.106E-04 -.359E-04 -.173E-03
   0.866E+01 0.199E+02 -.180E+03   -.910E+01 -.211E+02 0.179E+03   0.209E+00 0.108E+01 0.149E+01   0.464E-04 -.102E-03 0.261E-04
   -.747E+01 0.118E+02 -.254E+03   0.789E+01 -.116E+02 0.254E+03   -.186E+00 0.207E+00 0.383E+00   0.695E-04 -.597E-04 0.700E-04
   0.303E+01 -.253E+02 0.226E+03   -.436E+01 0.224E+02 -.222E+03   0.106E+01 0.272E+01 -.441E+01   0.419E-04 -.635E-04 -.200E-03
   0.370E+01 0.308E+01 -.184E+03   -.327E+01 -.251E+01 0.183E+03   -.298E+00 -.513E+00 0.123E+01   0.110E-04 0.510E-04 0.361E-04
   0.178E+02 0.347E+02 -.562E+02   -.165E+02 -.328E+02 0.577E+02   -.105E+01 -.201E+01 -.140E+01   -.162E-04 0.134E-04 -.559E-05
   0.162E+02 -.709E+01 0.100E+03   -.171E+02 0.726E+01 -.100E+03   0.504E+00 -.646E-01 0.554E+00   -.299E-04 0.265E-04 -.172E-03
   0.815E+01 0.269E+02 -.112E+03   -.735E+01 -.251E+02 0.110E+03   -.759E+00 -.133E+01 0.177E+01   -.730E-04 0.149E-04 -.430E-04
   -.858E+01 -.166E+02 -.338E+02   0.616E+01 0.173E+02 0.339E+02   0.221E+01 -.790E+00 -.975E-02   0.877E-04 0.262E-04 -.121E-03
   -.856E+01 -.418E+00 0.141E+03   0.982E+01 0.493E-04 -.140E+03   -.112E+01 0.302E+00 -.722E+00   -.932E-04 0.368E-04 -.874E-04
   0.159E+02 -.983E-01 -.196E+03   -.174E+02 0.642E+00 0.194E+03   0.179E+01 -.366E+00 0.301E+01   -.967E-04 -.571E-04 0.370E-04
   -.188E+01 -.217E+02 -.766E+02   0.342E+01 0.207E+02 0.749E+02   -.155E+01 0.695E+00 0.166E+01   -.311E-04 -.420E-04 -.635E-04
   0.694E+01 -.192E+02 0.234E+03   -.646E+01 0.194E+02 -.235E+03   -.235E+00 -.228E+00 0.119E+01   -.115E-03 0.545E-04 -.111E-03
   -.250E+02 -.224E+02 -.210E+03   0.251E+02 0.219E+02 0.208E+03   0.132E+00 0.548E+00 0.184E+01   0.199E-04 0.141E-04 -.470E-04
   0.374E+01 0.143E+02 0.806E+02   -.489E+01 -.138E+02 -.808E+02   0.969E+00 -.600E+00 0.247E+00   -.971E-04 0.541E-04 -.699E-04
   -.182E+02 0.654E+01 -.202E+03   0.167E+02 -.557E+01 0.203E+03   0.153E+01 -.114E+01 -.122E+01   0.340E-04 0.389E-04 -.960E-04
   0.560E+01 0.181E+01 0.258E+03   -.378E+01 -.352E+01 -.257E+03   -.169E+01 0.168E+01 -.137E+01   0.794E-04 -.939E-04 -.252E-03
   0.211E+02 0.230E+02 0.182E+03   -.223E+02 -.231E+02 -.179E+03   0.823E+00 0.148E+00 -.379E+01   -.114E-03 0.479E-04 -.108E-03
   0.179E+02 0.404E+02 -.244E+03   -.162E+02 -.415E+02 0.246E+03   -.184E+01 0.839E+00 -.772E+00   -.364E-04 -.328E-04 0.121E-03
   -.167E+01 0.212E+02 0.145E+03   0.486E+01 -.188E+02 -.144E+03   -.285E+01 -.182E+01 -.903E+00   0.910E-04 0.327E-04 -.110E-03
 -----------------------------------------------------------------------------------------------
   -.316E+01 -.330E+01 0.615E+01   0.106E-12 0.782E-13 -.369E-12   0.316E+01 0.330E+01 -.615E+01   0.137E-04 -.202E-03 -.445E-02


 POSITION                                       TOTAL-FORCE (eV/Angst)
 -----------------------------------------------------------------------------------
      5.07094     14.30529     15.02054         0.047840     -0.067965     -0.013794
      1.80081      4.72512     14.66465        -0.051629      0.032270     -0.017578
      7.18063     12.24115     15.40377         0.044443      0.004817      0.067638
     13.14389      6.84104     16.29315         0.448297      0.227709     -0.484825
     13.63855      7.09626     15.71923        -0.785257     -0.336956      1.032367
     12.62507      5.00420     14.33788        -0.074921     -0.125621      0.024379
      9.20585      2.99918     11.67565        -0.031668     -0.149242     -0.353937
      7.83693      4.71742     11.01230        -0.178570     -0.083174      0.384344
      8.56887      9.81072     13.92011         0.221470      0.149311      0.077987
      2.72880      5.96964     11.89010         0.046217     -0.143851     -0.123155
     14.31923      0.01992     12.74143         0.020562      0.044766     -0.029194
      0.11623      7.43716     14.07088         0.464099      0.322488     -0.656508
      3.25284      4.08043     10.52878        -0.059070      0.188323      0.280275
      2.83131     12.60081     14.12398         0.226116      0.108646     -0.062539
      0.83068     13.51666     15.10559        -0.164951     -0.039003      0.091250
      1.01072      5.38583     13.38129         0.172089     -0.400965     -0.243726
      4.46743      5.92320     13.50160        -0.234928     -0.014559     -0.129387
     13.42424      7.95821     12.18191        -0.081845     -0.051333     -0.314839
      5.68658     12.09308     10.37064         0.018548     -0.282521     -0.212575
      2.22585     10.14416     11.05204        -0.251409      0.268909      0.001857
      5.67595      7.83377     13.75347        -0.135782     -0.036129      0.098319
      7.61180      1.50730     14.10246        -0.339150     -0.142184      0.208040
     12.74502      1.96346     15.27576        -0.037142     -0.066406     -0.232493
      1.88254      8.95151     13.68786         0.299158     -0.009675      0.394317
      0.68916     11.98416     10.91223         0.034539      0.324387     -0.175957
     11.57557      3.92947     14.37370         0.303580     -0.028456      0.089866
     12.11394      0.65018     12.31574        -0.099310      0.137671     -0.207585
      1.36990      7.97878     11.52901        -0.368817     -0.467171      0.177325
     11.26389     13.54947     10.90626         0.125402      0.072267     -0.317562
      9.19493     13.57228     12.03852        -0.044483     -0.268695      0.028418
      9.29991      6.32750     12.25332        -0.256681      0.048826     -0.161234
      3.44199      4.85482     15.37302        -0.322371      0.140464      0.077165
      6.85700     11.46304     14.18335        -0.049983      0.078495     -0.167109
     11.47541      2.97522     12.20506         0.160030     -0.199294     -0.054615
     13.79327     12.35855     13.59516         0.015364      0.020353      0.152435
      3.12317     14.27733     12.57205         0.160778      0.095302     -0.057969
      5.16778     14.06811     11.47439        -0.197252      0.110192      0.104008
      0.44041      1.24836     14.60943         0.084129      0.407968      0.146665
      8.31160      8.53006     11.93647        -0.108067      0.249273     -0.160657
     12.55144      4.46379     10.77677        -0.037061      0.018421     -0.052325
      7.07112     12.63811     12.17041         0.070478     -0.267034     -0.144532
      3.92634      8.99136     14.89592        -0.064702     -0.109110      0.281090
      4.57089     11.00786     13.98856        -0.182889     -0.185331      0.046917
      7.96889      3.78677     13.58376         0.210832      0.277652      0.129679
      8.02661      1.03347     11.78080         0.317229      0.010332     -0.342470
      5.94129      8.51928     11.54566         0.021366     -0.328683     -0.109940
      1.68068      2.47457     11.29249         0.326873      0.076931     -0.017812
      1.35743     14.41795     11.05814         0.112582     -0.124070      0.048372
      9.23975     14.42376     14.21411        -0.135571      0.014219     -0.022199
      5.63718      1.11549     15.23739         0.168791      0.294828      0.117804
      5.54347      3.52714     10.84837        -0.198629     -0.082843     -0.272679
      4.24110      2.80119     14.49602         0.135130      0.030588     -0.042511
      1.24646     11.18053     13.19385         0.219857     -0.203850      0.020634
     14.49213      3.92995     11.91844        -0.256271      0.176449      0.307663
     10.68510     10.78546     13.74697         0.022546      0.339054     -0.047927
      5.69238      4.00370     13.07778        -0.084278     -0.038802      0.081150
     11.63304      6.55512     11.40991         0.075545     -0.023818     -0.057072
     11.49495      0.07556     14.53555         0.327517      0.148629      0.358606
      2.44307      1.81333     13.42606        -0.099867     -0.280088     -0.067665
     10.39816      8.52166     10.71268         0.291219     -0.069755      0.481365
      9.39709      5.42738     14.45382         0.100755      0.137009      0.175127
     11.94435      9.81825     12.01690        -0.145250     -0.100837      0.073174
      7.97813      7.55531     14.44813         0.129783     -0.173416     -0.212649
      6.16906      1.31478     10.48097         0.046878      0.075495     -0.047207
     12.88066     11.87841     11.42844        -0.353035      0.024675     -0.176970
     11.93073     12.33295     14.98561        -0.224261     -0.192817      0.173527
      4.55812     10.48027     11.64866         0.185061      0.436939      0.059436
 -----------------------------------------------------------------------------------
    total drift:                               -0.004258      0.000944     -0.008053


--------------------------------------------------------------------------------------------------------



  FREE ENERGIE OF THE ION-ELECTRON SYSTEM (eV)
  ---------------------------------------------------
  free  energy   TOTEN  =      -587.87547627 eV

  energy  without entropy=     -587.74570383  energy(sigma->0) =     -587.81059005



--------------------------------------------------------------------------------------------------------


    POTLOK:  cpu time      3.2044: real time      3.2066


--------------------------------------------------------------------------------------------------------


     LOOP+:  cpu time   5646.7351: real time   5650.4306
    4ORBIT:  cpu time      0.0000: real time      0.0000



 total charge

# of ion       s       p       d       tot
------------------------------------------
    1        0.555   0.016   0.000   0.572
    2        0.545   0.016   0.000   0.560
    3        0.566   0.016   0.000   0.582
    4        0.563   0.025   0.000   0.588
    5        0.588   0.029   0.000   0.617
    6        0.565   0.015   0.000   0.580
    7        0.774   0.957   0.000   1.731
    8        0.825   0.770   0.000   1.595
    9        0.753   0.908   0.000   1.660
   10        0.758   0.886   0.000   1.644
   11        0.767   0.920   0.000   1.687
   12        0.821   0.848   0.000   1.669
   13        0.782   0.846   0.000   1.628
   14        0.761   0.946   0.000   1.707
   15        0.847   0.761   0.000   1.608
   16        0.764   0.905   0.000   1.670
   17        0.768   0.943   0.000   1.711
   18        0.774   0.865   0.000   1.639
   19        0.829   0.836   0.000   1.665
   20        0.792   0.834   0.000   1.625
   21        0.759   0.932   0.000   1.691
   22        0.771   0.911   0.000   1.682
   23        0.804   0.788   0.000   1.593
   24        0.779   0.874   0.000   1.653
   25        0.794   0.805   0.000   1.599
   26        0.770   0.867   0.000   1.637
   27        0.767   0.906   0.000   1.672
   28        0.785   0.829   0.000   1.614
   29        0.796   0.851   0.000   1.648
   30        0.758   0.925   0.000   1.684
   31        0.777   0.827   0.000   1.605
   32        0.857   0.755   0.000   1.612
   33        0.740   0.964   0.000   1.703
   34        0.757   0.905   0.000   1.662
   35        0.760   0.910   0.000   1.671
   36        0.760   0.951   0.000   1.711
   37        0.765   0.912   0.000   1.677
   38        0.763   0.905   0.000   1.668
   39        0.759   0.881   0.000   1.639
   40        0.805   0.851   0.000   1.656
   41        0.764   0.905   0.000   1.669
   42        0.812   0.849   0.000   1.661
   43        0.760   0.924   0.000   1.685
   44        0.757   0.927   0.000   1.684
   45        0.767   0.929   0.000   1.695
   46        0.806   0.836   0.000   1.643
   47        0.776   0.846   0.000   1.621
   48        0.785   0.852   0.000   1.637
   49        0.809   0.863   0.000   1.671
   50        0.773   0.916   0.000   1.688
   51        0.764   0.891   0.000   1.655
   52        0.758   0.955   0.000   1.713
   53        0.758   0.934   0.000   1.692
   54        0.787   0.863   0.000   1.650
   55        0.786   0.853   0.000   1.639
   56        0.777   0.932   0.000   1.709
   57        0.766   0.862   0.000   1.628
   58        0.759   0.923   0.000   1.682
   59        0.770   0.911   0.000   1.681
   60        0.824   0.788   0.000   1.612
   61        0.799   0.822   0.000   1.621
   62        0.752   0.918   0.000   1.670
   63        0.819   0.768   0.000   1.587
   64        0.800   0.888   0.000   1.688
   65        0.777   0.882   0.000   1.658
   66        0.805   0.850   0.000   1.655
   67        0.767   0.878   0.000   1.645
--------------------------------------------------
tot         50.999  53.654   0.000 104.652


 total amount of memory used by VASP MPI-rank0   356944. kBytes
=======================================================================

   base                                    :      30000. kBytes
   nonl-proj                               :      67357. kBytes
   fftplans                                :     100025. kBytes
   grid                                    :      77177. kBytes
   one-center                              :         15. kBytes
   wavefun                                 :      82370. kBytes

  
  
 General timing and accounting informations for this job:
 ========================================================
  
                  Total CPU time used (sec):     5786.915
                            User time (sec):     5102.460
                          System time (sec):      684.455
                         Elapsed time (sec):     5791.685
  
                   Maximum memory used (kb):      609304.
                   Average memory used (kb):          N/A
  
                          Minor page faults:     10379687
                          Major page faults:         1161
                 Voluntary context switches:         2950
