 vasp.6.5.0 16Dec24 (build Jan 20 2025 08:32:48) complex                         
 executed on        HPECrayEX_GCC date 2025.07.22  01:35:39
 running  128 mpi-ranks, with    1 threads/rank, on    1 nodes
 distrk:  each k-point on  128 cores,    1 groups
 distr:  one band on NCORE=  16 cores,    8 groups


--------------------------------------------------------------------------------------------------------


 INCAR:
   SYSTEM = a-Si SPC
   NCORE = 16
   ISTART = 1
   ICHARG = 1
   ISPIN = 1
   ISYM = 1
   EDIFF = 1E-6
   NELM = 150
   EDIFFG = -0.01
   NSW = 0
   ISIF = 2
   IBRION = -1
   PREC = Accurate
   ENCUT = 1200
   KSPACING = 0.23
   KGAMMA = .TRUE.
   METAGGA = SCAN
   LASPH = .TRUE.
   LDIAG = .FALSE.
   LMIXTAU = .TRUE.
   ADDGRID = .TRUE.
   ALGO = Normal
   ISMEAR = 0
   SIGMA = 0.1
   LORBIT = 11
   NEDOS = 2000
   LWAVE = .FALSE.
   LCHARG = .FALSE.

 POTCAR:    PAW_PBE H 15Jun2001                   
 POTCAR:    PAW_PBE Si 05Jan2001                  
 POTCAR:    PAW_PBE H 15Jun2001                   
   SHA256 =  030f79b5d3ab3cf0e668861823c8fb652ff669f3e15e46930bd03bfd63a607b6 H/POTCAR              
   COPYR  = (c) Copyright 15Jun2001 Georg Kresse                                                    
   COPYR  = This file is part of the software VASP. Any use, copying, and all other rights are regul
   COPYR  = If you do not have a valid VASP license, you may not use, copy or distribute this file. 
   VRHFIN =H: ultrasoft test                                                                        
   LEXCH  = PE                                                                                      
   EATOM  =    12.4884 eV,    0.9179 Ry                                                             
                                                                                                    
   TITEL  = PAW_PBE H 15Jun2001                                                                     
   LULTRA =        F    use ultrasoft PP ?                                                          
   IUNSCR =        0    unscreen: 0-lin 1-nonlin 2-no                                               
   RPACOR =    0.000    partial core radius                                                         
   POMASS =    1.000; ZVAL   =    1.000    mass and valenz                                          
   RCORE  =    1.100    outmost cutoff radius                                                       
   RWIGS  =    0.700; RWIGS  =    0.370    wigner-seitz radius (au A)                               
   ENMAX  =  250.000; ENMIN  =  200.000 eV                                                          
   RCLOC  =    0.701    cutoff for local pot                                                        
   LCOR   =        T    correct aug charges                                                         
   LPAW   =        T    paw PP                                                                      
   EAUG   =  400.000                                                                                
   RMAX   =    1.123    core radius for proj-oper                                                   
   RAUG   =    1.200    factor for augmentation sphere                                              
   RDEP   =    1.112    radius for radial grids                                                     
   RDEPT  =    0.926    core radius for aug-charge                                                  
                                                                                                    
   Atomic configuration                                                                             
    2 entries                                                                                       
     n  l   j            E        occ.                                                              
     1  0  0.50        -6.4927   1.0000                                                             
     2  1  0.50        -3.4015   0.0000                                                             
   Description                                                                                      
     l       E           TYP  RCUT    TYP  RCUT                                                     
     0     -6.4927494     23  1.100                                                                 
     0      6.8029130     23  1.100                                                                 
     1     -4.0817478     23  1.100                                                                 
  local pseudopotential read in
  atomic valenz-charges read in
  non local Contribution for L=           0  read in
    real space projection operators read in
  non local Contribution for L=           0  read in
    real space projection operators read in
  non local Contribution for L=           1  read in
    real space projection operators read in
    PAW grid and wavefunctions read in

   number of l-projection  operators is LMAX  =           3
   number of lm-projection operators is LMMAX =           5

 POTCAR:    PAW_PBE Si 05Jan2001                  
   SHA256 =  79d9987ad8750f624c4d6acb2a16d13abf6a777132adc04dc6c8399be72b42bb Si/POTCAR             
   COPYR  = (c) Copyright 05Jan2001 Georg Kresse                                                    
   COPYR  = This file is part of the software VASP. Any use, copying, and all other rights are regul
   COPYR  = If you do not have a valid VASP license, you may not use, copy or distribute this file. 
   VRHFIN =Si: s2p2                                                                                 
   LEXCH  = PE                                                                                      
   EATOM  =   103.0669 eV,    7.5752 Ry                                                             
                                                                                                    
   TITEL  = PAW_PBE Si 05Jan2001                                                                    
   LULTRA =        F    use ultrasoft PP ?                                                          
   IUNSCR =        1    unscreen: 0-lin 1-nonlin 2-no                                               
   RPACOR =    1.500    partial core radius                                                         
   POMASS =   28.085; ZVAL   =    4.000    mass and valenz                                          
   RCORE  =    1.900    outmost cutoff radius                                                       
   RWIGS  =    2.480; RWIGS  =    1.312    wigner-seitz radius (au A)                               
   ENMAX  =  245.345; ENMIN  =  184.009 eV                                                          
   ICORE  =        2    local potential                                                             
   LCOR   =        T    correct aug charges                                                         
   LPAW   =        T    paw PP                                                                      
   EAUG   =  322.069                                                                                
   DEXC   =    0.000                                                                                
   RMAX   =    1.950    core radius for proj-oper                                                   
   RAUG   =    1.300    factor for augmentation sphere                                              
   RDEP   =    1.993    radius for radial grids                                                     
   RDEPT  =    1.837    core radius for aug-charge                                                  
                                                                                                    
   Atomic configuration                                                                             
    6 entries                                                                                       
     n  l   j            E        occ.                                                              
     1  0  0.50     -1785.8828   2.0000                                                             
     2  0  0.50      -139.4969   2.0000                                                             
     2  1  1.50       -95.5546   6.0000                                                             
     3  0  0.50       -10.8127   2.0000                                                             
     3  1  0.50        -4.0811   2.0000                                                             
     3  2  1.50        -4.0817   0.0000                                                             
   Description                                                                                      
     l       E           TYP  RCUT    TYP  RCUT                                                     
     0    -10.8127223     23  1.900                                                                 
     0     -7.6451159     23  1.900                                                                 
     1     -4.0811372     23  1.900                                                                 
     1      2.4879257     23  1.900                                                                 
     2     -4.0817478      7  1.900                                                                 
  local pseudopotential read in
  partial core-charges read in
  partial kinetic energy density read in
  atomic valenz-charges read in
  non local Contribution for L=           0  read in
    real space projection operators read in
  non local Contribution for L=           0  read in
    real space projection operators read in
  non local Contribution for L=           1  read in
    real space projection operators read in
  non local Contribution for L=           1  read in
    real space projection operators read in
    PAW grid and wavefunctions read in

   number of l-projection  operators is LMAX  =           4
   number of lm-projection operators is LMMAX =           8

 -----------------------------------------------------------------------------
|                                                                             |
|               ----> ADVICE to this user running VASP <----                  |
|                                                                             |
|     You have a (more or less) 'large supercell' and for larger cells it     |
|     might be more efficient to use real-space projection operators.         |
|     Therefore, try LREAL= Auto in the INCAR file.                           |
|     Mind: For very accurate calculation, you might also keep the            |
|     reciprocal projection scheme (i.e. LREAL=.FALSE.).                      |
|                                                                             |
 -----------------------------------------------------------------------------

 -----------------------------------------------------------------------------
|                                                                             |
|               ----> ADVICE to this user running VASP <----                  |
|                                                                             |
|     You enforced a specific xc type in the INCAR file but a different       |
|     type was found in the POTCAR file.                                      |
|     I HOPE YOU KNOW WHAT YOU ARE DOING!                                     |
|                                                                             |
 -----------------------------------------------------------------------------

  PAW_PBE H 15Jun2001                   :
 energy of atom  1       EATOM=  -12.4884
 kinetic energy error for atom=    0.0000 (will be added to EATOM!!)
  PAW_PBE Si 05Jan2001                  :
 energy of atom  2       EATOM= -103.0669
 kinetic energy error for atom=    0.0001 (will be added to EATOM!!)


 POSCAR:  H Si
  positions in cartesian coordinates
  No initial velocities read in


 exchange-correlation table for SCAN
   RHO(1)=    0.500       N(1)  =     2000
   RHO(2)=  100.500       N(2)  =     4000



--------------------------------------------------------------------------------------------------------


 ion  position               nearest neighbor table
   1  0.357  0.964  0.426-  37 1.47
   2  0.556  0.014  0.528-  61 1.47
   3  0.218  0.957  0.205-  15 1.49
   4  0.655  0.940  0.599-  21 1.49
   5  0.486  0.898  0.108-  54 1.48
   6  0.376  0.749  0.411-  46 1.40
   7  0.669  0.617  0.370-  98 1.42
   8  0.184  0.717  0.679-  92 1.45
   9  0.521  0.949  0.839-  53 2.15  54 2.33  23 2.37  21 2.58
  10  0.698  0.291  0.455-  28 2.36  48 2.37  73 2.39  71 2.42
  11  0.263  0.898  0.729-  38 2.25  53 2.36  75 2.37  92 2.44
  12  0.843  0.782  0.060-  97 2.33  29 2.35  66 2.40  39 2.42
  13  0.767  0.080  0.092-  88 2.26  29 2.37  72 2.37  36 2.37
  14  0.666  0.440  0.886-  69 2.28  45 2.32 102 2.34  85 2.39
  15  0.221  0.999  0.081-   3 1.49  56 2.37  95 2.37  75 2.48
  16  0.570  0.343  0.136-  65 2.27 102 2.37  26 2.47  79 2.57
  17  0.930  0.289  0.498-  62 2.38  44 2.42  71 2.52  24 2.62  73 2.62
  18  0.340  0.542  0.453-  46 2.29  63 2.32  67 2.34  78 2.41
  19  0.430  0.722  0.690-  53 2.33  46 2.35  76 2.44  57 2.50
  20  0.196  0.286  0.634-  40 2.32  84 2.35  83 2.38  62 2.54
  21  0.674  0.915  0.729-   4 1.49  52 2.35 103 2.37   9 2.58
  22  0.358  0.164  0.857-  84 2.36  56 2.37  60 2.41  23 2.50
  23  0.505  0.102  0.770- 100 2.29  61 2.32   9 2.37  22 2.50
  24  0.036  0.156  0.422-  40 2.38  35 2.43  89 2.52  17 2.62
  25  0.409  0.309  0.465-  48 2.30  58 2.37  63 2.40  83 2.41
  26  0.527  0.490  0.234-  81 2.25  63 2.26  16 2.47  98 2.49
  27  0.902  0.597  0.841-  82 2.35 101 2.40  33 2.42  39 2.47
  28  0.756  0.409  0.330-  79 2.25  10 2.36  44 2.36  98 2.38
  29  0.823  0.939  0.015-  12 2.35  13 2.37  49 2.38 103 2.38  36 3.14
  30  0.914  0.665  0.395-  32 2.37  59 2.40  41 2.41  97 2.51  86 2.98
  31  0.306  0.349  0.179-  70 2.36  96 2.38  63 2.40  91 2.44
  32  0.037  0.746  0.304-  74 2.29  30 2.37  66 2.41  55 2.44
  33  0.046  0.676  0.802-  87 2.27  47 2.40  27 2.42  93 2.59
  34  0.584  0.514  0.610-  57 2.24  69 2.25  67 2.57  98 2.61
  35  0.004  0.185  0.208-  95 2.32  90 2.34  24 2.43  88 2.47
  36  0.775  0.125  0.885- 103 2.32  13 2.37  80 2.39 100 2.40  29 3.14
  37  0.343  0.048  0.499-   1 1.47  58 2.29  61 2.40  38 2.41
  38  0.216  0.028  0.638-  11 2.25  84 2.33  37 2.41  89 2.56
  39  0.769  0.692  0.903-  52 2.38  12 2.42  27 2.47  85 2.56
  40  0.176  0.241  0.434-  96 2.28  58 2.29  20 2.32  24 2.38
  41  0.838  0.712  0.580-  93 2.33  82 2.37  30 2.41  52 2.65
  42  0.051  0.972  0.845-  77 2.23  50 2.28  75 2.40  49 2.57  95 3.11
  43  0.007  0.277  0.834-  80 2.33  68 2.39  62 2.39  50 2.40
  44  0.917  0.414  0.353-  28 2.36  59 2.41  17 2.42  86 2.51  90 2.62
  45  0.795  0.374  0.975-  80 2.29  14 2.32  79 2.33 101 2.36
  46  0.349  0.693  0.509-   6 1.40  18 2.29  92 2.32  19 2.35
  47  0.168  0.569  0.764-  64 2.34  51 2.40  33 2.40  76 2.68
  48  0.546  0.232  0.445-  25 2.30  10 2.37  65 2.47  61 2.51
  49  0.981  0.962  0.059-  66 2.29  29 2.38  95 2.41  42 2.57
  50  0.074  0.127  0.859-  42 2.28  84 2.33  43 2.40  95 2.45
  51  0.094  0.493  0.596-  62 2.29  59 2.35  78 2.38  47 2.40
  52  0.699  0.755  0.726-  21 2.35  57 2.35  39 2.38  41 2.65
  53  0.425  0.880  0.722-   9 2.15  19 2.33  11 2.36
  54  0.497  0.986  0.042-   5 1.48   9 2.33  72 2.38  56 2.38
  55  0.078  0.830  0.488-  93 2.32  32 2.44  92 2.53  89 2.63
  56  0.361  0.077  0.039-  22 2.37  15 2.37  54 2.38  91 2.44
  57  0.582  0.644  0.720-  34 2.24  52 2.35  19 2.50  85 2.57
  58  0.320  0.183  0.396-  40 2.29  37 2.29  91 2.31  25 2.37
  59  0.952  0.527  0.506-  82 2.30  51 2.35  30 2.40  44 2.41
  60  0.399  0.324  0.856-  70 2.33  83 2.34 102 2.37  22 2.41
  61  0.495  0.091  0.560-   2 1.47  23 2.32  37 2.40  48 2.51
  62  0.034  0.352  0.643-  51 2.29  17 2.38  43 2.39  20 2.54
  63  0.399  0.432  0.321-  26 2.26  18 2.32  31 2.40  25 2.40
  64  0.166  0.481  0.941-  70 2.28  94 2.30  47 2.34  68 2.34  99 3.02
  65  0.533  0.206  0.224-  16 2.27  72 2.32  91 2.41  48 2.47
  66  0.002  0.810  0.107-  49 2.29  87 2.31  12 2.40  32 2.41
  67  0.409  0.493  0.633-  83 2.29  18 2.34  76 2.39  34 2.57
  68  0.042  0.385  0.990- 101 2.26  64 2.34  90 2.38  43 2.39
  69  0.715  0.458  0.690-  34 2.25  14 2.28  73 2.35  82 2.39
  70  0.303  0.412  0.981-  64 2.28  99 2.32  60 2.33  31 2.36
  71  0.811  0.168  0.445-  88 2.39  10 2.42  17 2.52  73 3.05
  72  0.605  0.103  0.095-  65 2.32  13 2.37  54 2.38 100 2.52
  73  0.786  0.318  0.636-  69 2.35  10 2.39  80 2.48  17 2.62  71 3.05
  74  0.095  0.604  0.255-  32 2.29  94 2.45  78 2.52  86 2.56
  75  0.182  0.889  0.916-  11 2.37  42 2.40  87 2.44  15 2.48
  76  0.350  0.594  0.785-  99 2.38  67 2.39  19 2.44  47 2.68
  77  0.954  0.939  0.693-  42 2.23  93 2.40 103 2.50  89 2.52
  78  0.180  0.512  0.413-  51 2.38  18 2.41  96 2.42  74 2.52
  79  0.744  0.320  0.163-  28 2.25  45 2.33  16 2.57  88 2.63
  80  0.847  0.268  0.837-  45 2.29  43 2.33  36 2.39  73 2.48
  81  0.497  0.587  0.080-  26 2.25  99 2.31  85 2.43
  82  0.841  0.558  0.650-  59 2.30  27 2.35  41 2.37  69 2.39
  83  0.345  0.350  0.659-  67 2.29  60 2.34  20 2.38  25 2.41
  84  0.213  0.158  0.762-  50 2.33  38 2.33  20 2.35  22 2.36
  85  0.625  0.594  0.937-  14 2.39  81 2.43  39 2.56  57 2.57
  86  0.942  0.533  0.192-  97 2.30 101 2.35  44 2.51  74 2.56  30 2.98  90 3.07
  87  0.104  0.746  0.970-  33 2.27  66 2.31  75 2.44  94 2.52
  88  0.836  0.173  0.230-  13 2.26  71 2.39  35 2.47  79 2.63
  89  0.059  0.006  0.534-  77 2.52  24 2.52  38 2.56  55 2.63
  90  0.035  0.343  0.199-  35 2.34  68 2.38  96 2.39  44 2.62  86 3.07
  91  0.369  0.195  0.197-  58 2.31  65 2.41  56 2.44  31 2.44
  92  0.226  0.775  0.587-   8 1.45  46 2.32  11 2.44  55 2.53
  93  0.975  0.781  0.637-  55 2.32  41 2.33  77 2.40  33 2.59
  94  0.182  0.608  0.064-  64 2.30  74 2.45  87 2.52  99 2.66
  95  0.086  0.090  0.076-  35 2.32  15 2.37  49 2.41  50 2.45  42 3.11
  96  0.175  0.365  0.308-  40 2.28  31 2.38  90 2.39  78 2.42
  97  0.841  0.655  0.189-  86 2.30  12 2.33  30 2.51
  98  0.647  0.523  0.388-   7 1.42  28 2.38  26 2.49  34 2.61
  99  0.352  0.563  0.998-  81 2.31  70 2.32  76 2.38  94 2.66  64 3.02
 100  0.617  0.172  0.885-  23 2.29  36 2.40 102 2.46  72 2.52
 101  0.918  0.479  0.992-  68 2.26  86 2.35  45 2.36  27 2.40
 102  0.554  0.327  0.923-  14 2.34  16 2.37  60 2.37 100 2.46
 103  0.811  0.981  0.807-  36 2.32  21 2.37  29 2.38  77 2.50

  LATTYP: Found a simple tetragonal cell.
 ALAT       =    14.5353600448
 C/A-ratio  =     0.7564920599
  
  Lattice vectors:
  
 A1 = (  14.5353600448,   0.0000000000,   0.0000000000)
 A2 = (   0.0000000000,  14.5353600448,   0.0000000000)
 A3 = (   0.0000000000,   0.0000000000,  10.9958844623)


Analysis of symmetry for initial positions (statically):
=====================================================================
 Subroutine PRICEL returns:
 Original cell was already a primitive cell.
 

 Routine SETGRP: Setting up the symmetry group for a 
 simple tetragonal supercell.


 Subroutine GETGRP returns: Found  1 space group operations
 (whereof  1 operations were pure point group operations)
 out of a pool of 16 trial point group operations.


The static configuration has the point symmetry C_1 .


Analysis of symmetry for dynamics (positions and initial velocities):
=====================================================================
 Subroutine PRICEL returns:
 Original cell was already a primitive cell.
 

 Routine SETGRP: Setting up the symmetry group for a 
 simple tetragonal supercell.


 Subroutine GETGRP returns: Found  1 space group operations
 (whereof  1 operations were pure point group operations)
 out of a pool of 16 trial point group operations.


The dynamic configuration has the point symmetry C_1 .


 Subroutine INISYM returns: Found  1 space group operations
 (whereof  1 operations are pure point group operations),
 and found     1 'primitive' translations


----------------------------------------------------------------------------------------

                                     Primitive cell                                     

  volume of cell :    2323.1741

  direct lattice vectors                    reciprocal lattice vectors
    14.535360045  0.000000000  0.000000000     0.068797745  0.000000000  0.000000000
     0.000000000 14.535360045  0.000000000     0.000000000  0.068797745  0.000000000
     0.000000000  0.000000000 10.995884462     0.000000000  0.000000000  0.090943116

  length of vectors
    14.535360045 14.535360045 10.995884462     0.068797745  0.068797745  0.090943116

  position of ions in fractional coordinates (direct lattice)
     0.356972926  0.964413675  0.426413174
     0.555915366  0.013805093  0.528037560
     0.218176226  0.957176152  0.204789347
     0.655048789  0.940203749  0.599322412
     0.485955627  0.897748660  0.107902189
     0.375740951  0.749338163  0.411020143
     0.668518700  0.617374456  0.369546444
     0.183759466  0.717374731  0.679177744
     0.521361010  0.948913543  0.838888407
     0.698242078  0.291047486  0.455302165
     0.263348138  0.897562906  0.728834504
     0.842744862  0.782044612  0.060150596
     0.766537600  0.080154877  0.092047166
     0.665673225  0.439535036  0.885796866
     0.221089811  0.998599526  0.081003761
     0.570116597  0.343275982  0.136342829
     0.929650174  0.288757209  0.498243686
     0.339771425  0.541723767  0.452535675
     0.430260412  0.721819065  0.689531618
     0.195574103  0.286289434  0.634320961
     0.674178690  0.915202648  0.728725372
     0.358201653  0.163897557  0.856883321
     0.504980267  0.102443971  0.770174517
     0.036397516  0.155703057  0.421832370
     0.409398184  0.308637006  0.465447779
     0.526711411  0.490067668  0.234214902
     0.902076038  0.597496035  0.841373882
     0.756107862  0.408872569  0.329698808
     0.822841675  0.938875952  0.015123113
     0.913916130  0.664711433  0.395351553
     0.305739933  0.349094208  0.178570447
     0.036896300  0.745953314  0.303676345
     0.046180418  0.676102275  0.802263795
     0.584206375  0.514088401  0.609949115
     0.004451737  0.184525185  0.208105133
     0.775151077  0.125033023  0.884802858
     0.342726288  0.048393435  0.499185856
     0.215647909  0.027705815  0.637772252
     0.768608412  0.692160357  0.903107889
     0.175983945  0.240554069  0.433886880
     0.837502474  0.712180501  0.579556835
     0.050670434  0.972077744  0.844579627
     0.006802556  0.276979035  0.833657359
     0.917245941  0.413719370  0.353330377
     0.794696517  0.374173050  0.974873830
     0.349354951  0.693006569  0.508591193
     0.168371474  0.568896813  0.763704823
     0.546446732  0.231533308  0.445342984
     0.981386079  0.962246546  0.059037452
     0.073605332  0.126919457  0.858978651
     0.094289374  0.493332121  0.596126671
     0.699095170  0.755316687  0.726153501
     0.424589414  0.880212114  0.721676371
     0.497016240  0.985912971  0.042476074
     0.078177630  0.829501296  0.488149909
     0.360568296  0.076977797  0.039162834
     0.581616828  0.644072109  0.720038486
     0.319516681  0.182960036  0.395925404
     0.951720491  0.527244594  0.506335804
     0.399198230  0.324212127  0.856494994
     0.495209611  0.091022857  0.560010431
     0.033903667  0.351912851  0.643232477
     0.398748981  0.431973476  0.321325675
     0.166075694  0.480852898  0.941306726
     0.533183215  0.206438643  0.223938330
     0.001583050  0.810052174  0.107182829
     0.409314250  0.492721885  0.632822219
     0.042210994  0.385216464  0.990215934
     0.714898012  0.457569677  0.690334645
     0.303426952  0.411923749  0.981167094
     0.811070380  0.168456096  0.444843706
     0.605047964  0.102900100  0.094653595
     0.785663373  0.317857279  0.636150737
     0.095348859  0.604278117  0.255159102
     0.182478452  0.889155821  0.915979068
     0.350017474  0.593765822  0.785447504
     0.954231609  0.939343777  0.692869230
     0.179606146  0.511710063  0.413188227
     0.744377846  0.320419995  0.162719971
     0.846920885  0.268450179  0.836616648
     0.496881397  0.586859904  0.079816772
     0.841286350  0.558185004  0.650205086
     0.344988358  0.350331879  0.659368514
     0.212770099  0.157736719  0.761815935
     0.624605787  0.593659185  0.937041494
     0.941854894  0.532614946  0.191557124
     0.104248536  0.746056511  0.970272108
     0.835693093  0.173043529  0.229594992
     0.059476820  0.006203073  0.534118926
     0.034963014  0.342770319  0.198593393
     0.369318681  0.194514618  0.196586278
     0.225511442  0.774641974  0.586624934
     0.975235560  0.781081443  0.636733682
     0.181806986  0.607911326  0.064162460
     0.085922880  0.090159445  0.075980154
     0.175494793  0.365457064  0.307872460
     0.841251951  0.655107955  0.188894309
     0.647396416  0.522978445  0.388272541
     0.352106861  0.563279477  0.998255305
     0.616752524  0.171972348  0.885311230
     0.918257268  0.479022190  0.992389474
     0.554216750  0.326840201  0.923263611
     0.811173577  0.981042090  0.806648163

  ion indices of the primitive-cell ions
   primitive index   ion index
                 1           1
                 2           2
                 3           3
                 4           4
                 5           5
                 6           6
                 7           7
                 8           8
                 9           9
                10          10
                11          11
                12          12
                13          13
                14          14
                15          15
                16          16
                17          17
                18          18
                19          19
                20          20
                21          21
                22          22
                23          23
                24          24
                25          25
                26          26
                27          27
                28          28
                29          29
                30          30
                31          31
                32          32
                33          33
                34          34
                35          35
                36          36
                37          37
                38          38
                39          39
                40          40
                41          41
                42          42
                43          43
                44          44
                45          45
                46          46
                47          47
                48          48
                49          49
                50          50
                51          51
                52          52
                53          53
                54          54
                55          55
                56          56
                57          57
                58          58
                59          59
                60          60
                61          61
                62          62
                63          63
                64          64
                65          65
                66          66
                67          67
                68          68
                69          69
                70          70
                71          71
                72          72
                73          73
                74          74
                75          75
                76          76
                77          77
                78          78
                79          79
                80          80
                81          81
                82          82
                83          83
                84          84
                85          85
                86          86
                87          87
                88          88
                89          89
                90          90
                91          91
                92          92
                93          93
                94          94
                95          95
                96          96
                97          97
                98          98
                99          99
               100         100
               101         101
               102         102
               103         103

----------------------------------------------------------------------------------------


 -----------------------------------------------------------------------------
|                                                                             |
|           W    W    AA    RRRRR   N    N  II  N    N   GGGG   !!!           |
|           W    W   A  A   R    R  NN   N  II  NN   N  G    G  !!!           |
|           W    W  A    A  R    R  N N  N  II  N N  N  G       !!!           |
|           W WW W  AAAAAA  RRRRR   N  N N  II  N  N N  G  GGG   !            |
|           WW  WW  A    A  R   R   N   NN  II  N   NN  G    G                |
|           W    W  A    A  R    R  N    N  II  N    N   GGGG   !!!           |
|                                                                             |
|     The requested file  could not be found or opened for reading            |
|     k-point information. Automatic k-point generation is used as a          |
|     fallback, which may lead to unwanted results.                           |
|                                                                             |
 -----------------------------------------------------------------------------



Automatic generation of k-mesh.
 Grid dimensions derived from KSPACING:
 generate k-points for:    2    2    3

 Generating k-lattice:

  Cartesian coordinates                     Fractional coordinates (reciprocal lattice)
     0.034398873  0.000000000  0.000000000     0.500000000  0.000000000  0.000000000
     0.000000000  0.034398873  0.000000000     0.000000000  0.500000000  0.000000000
     0.000000000  0.000000000  0.030314372     0.000000000  0.000000000  0.333333333

  Length of vectors
     0.034398873  0.034398873  0.030314372

  Shift w.r.t. Gamma in fractional coordinates (k-lattice)
     0.000000000  0.000000000  0.000000000

 
 Subroutine IBZKPT returns following result:
 ===========================================
 
 Found      8 irreducible k-points:
 
 Following reciprocal coordinates:
            Coordinates               Weight
  0.000000  0.000000  0.000000      1.000000
  0.500000  0.000000  0.000000      1.000000
  0.000000  0.500000  0.000000      1.000000
  0.500000  0.500000  0.000000      1.000000
  0.000000  0.000000  0.333333      2.000000
  0.500000  0.000000  0.333333      2.000000
  0.000000  0.500000  0.333333      2.000000
  0.500000  0.500000  0.333333      2.000000
 
 Following cartesian coordinates:
            Coordinates               Weight
  0.000000  0.000000  0.000000      1.000000
  0.034399  0.000000  0.000000      1.000000
  0.000000  0.034399  0.000000      1.000000
  0.034399  0.034399  0.000000      1.000000
  0.000000  0.000000  0.030314      2.000000
  0.034399  0.000000  0.030314      2.000000
  0.000000  0.034399  0.030314      2.000000
  0.034399  0.034399  0.030314      2.000000
 


--------------------------------------------------------------------------------------------------------




 Dimension of arrays:
   k-points           NKPTS =      8   k-points in BZ     NKDIM =      8   number of bands    NBANDS=    248
   number of dos      NEDOS =   2000   number of ions     NIONS =    103
   non local maximal  LDIM  =      4   non local SUM 2l+1 LMDIM =      8
   total plane-waves  NPLWV = ******
   max r-space proj   IRMAX =      1   max aug-charges    IRDMAX= 409599
   dimension x,y,z NGX =   168 NGY =  168 NGZ =  126
   dimension x,y,z NGXF=   336 NGYF=  336 NGZF=  252
   support grid    NGXF=   672 NGYF=  672 NGZF=  504
   ions per type =               8  95
   NGX,Y,Z   is equivalent  to a cutoff of  19.21, 19.21, 19.05 a.u.
   NGXF,Y,Z  is equivalent  to a cutoff of  38.43, 38.43, 38.10 a.u.

 SYSTEM =  a-Si SPC                                
 POSCAR =   H Si                                   

 Startparameter for this run:
   NWRITE =      2    write-flag & timer
   PREC   = accura    normal or accurate (medium, high low for compatibility)
   ISTART =      1    job   : 0-new  1-cont  2-samecut
   ICHARG =      1    charge: 1-file 2-atom 10-const
   ISPIN  =      1    spin polarized calculation?
   LNONCOLLINEAR =      F non collinear calculations
   LSORBIT =      F    spin-orbit coupling
   INIWAV =      1    electr: 0-lowe 1-rand  2-diag
   LASPH  =      T    aspherical Exc in radial PAW
 Electronic Relaxation 1
   ENCUT  = 1200.0 eV  88.20 Ry    9.39 a.u.  41.06 41.06 31.06*2*pi/ulx,y,z
   ENINI  = 1200.0     initial cutoff
   ENAUG  =  400.0 eV  augmentation charge cutoff
   NELM   =    150;   NELMIN=  2; NELMDL=  0     # of ELM steps 
   EDIFF  = 0.1E-05   stopping-criterion for ELM
   LREAL  =      F    real-space projection
   NLSPLINE    = F    spline interpolate recip. space projectors
   LCOMPAT=      F    compatible to vasp.4.4
   GGA_COMPAT  = T    GGA compatible to vasp.4.4-vasp.4.6
   LMAXPAW     = -100 max onsite density
   LMAXMIX     =    2 max onsite mixed and CHGCAR
   VOSKOWN=      0    Vosko Wilk Nusair interpolation
   ROPT   =    0.00000   0.00000
 Ionic relaxation
   EDIFFG = -.1E-01   stopping-criterion for IOM
   NSW    =      0    number of steps for IOM
   NBLOCK =      1;   KBLOCK =      1    inner block; outer block 
   IBRION =     -1    ionic relax: 0-MD 1-quasi-New 2-CG
   NFREE  =      0    steps in history (QN), initial steepest desc. (CG)
   ISIF   =      2    stress and relaxation
   IWAVPR =     10    prediction:  0-non 1-charg 2-wave 3-comb
   ISYM   =      1    0-nonsym 1-usesym 2-fastsym
   LCORR  =      T    Harris-Foulkes like correction to forces

   POTIM  = 0.5000    time-step for ionic-motion
   TEIN   =    0.0    initial temperature
   TEBEG  =    0.0;   TEEND  =   0.0 temperature during run
   SMASS  =  -3.00    Nose mass-parameter (am)
   estimated Nose-frequenzy (Omega)   =  0.10E-29 period in steps = 0.13E+47 mass=  -0.483E-26a.u.
   SCALEE = 1.0000    scale energy and forces
   NPACO  =    256;   APACO  = 10.0  distance and # of slots for P.C.
   PSTRESS=    0.0 pullay stress

  Mass of Ions in am
   POMASS =   1.00 28.09
  Ionic Valenz
   ZVAL   =   1.00  4.00
  Atomic Wigner-Seitz radii
   RWIGS  =  -1.00 -1.00
  virtual crystal weights 
   VCA    =   1.00  1.00
   NELECT =     388.0000    total number of electrons
   NUPDOWN=      -1.0000    fix difference up-down

 DOS related values:
   EMIN   =  10.00;   EMAX   =-10.00  energy-range for DOS
   EFERMI =   0.00;   METHOD = LEGACY      
   ISMEAR =     0;   SIGMA  =   0.10  broadening in eV -4-tet -1-fermi 0-gaus
   EFERMI_NEDOS =   21; number of points for ismear=-14 and -15

 Electronic relaxation 2 (details)
   IALGO  =     38    algorithm
   LDIAG  =      F    sub-space diagonalisation (order eigenvalues)
   LSUBROT=      F    optimize rotation matrix (better conditioning)
   TURBO    =      0    0=normal 1=particle mesh
   IRESTART =      0    0=no restart 2=restart with 2 vectors
   NREBOOT  =      0    no. of reboots
   NMIN     =      0    reboot dimension
   EREF     =   0.00    reference energy to select bands
   IMIX   =      4    mixing-type and parameters
     AMIX     =   0.40;   BMIX     =  1.00
     AMIX_MAG =   1.60;   BMIX_MAG =  1.00
     AMIN     =   0.10
     WC   =   100.;   INIMIX=   1;  MIXPRE=   1;  MAXMIX= -45

 Intra band minimization:
   WEIMIN = 0.0000     energy-eigenvalue tresh-hold
   EBREAK =  0.10E-08  absolut break condition
   DEPER  =   0.30     relativ break condition  

   TIME   =   0.40     timestep for ELM

  volume/ion in A,a.u.               =      22.56       152.21
  Fermi-wavevector in a.u.,A,eV,Ry     =   0.901553  1.703689 11.058797  0.812799
  Thomas-Fermi vector in A             =   2.024649

 Write flags
   LWAVE        =      F    write WAVECAR
   LDOWNSAMPLE  =      F    k-point downsampling of WAVECAR
   LCHARG       =      F    write CHGCAR
   LVTOT        =      F    write LOCPOT, total local potential
   LVHAR        =      F    write LOCPOT, Hartree potential only
   WRT_POTENTIAL= false  ! write potential to hdf5 file
   LELF         =      F    write electronic localiz. function (ELF)
   LORBIT       =     11    0 simple, 1 ext, 2 COOP (PROOUT), +10 PAW based schemes


 Python interface
   PLUGINS active      =      F    recompile with -DPLUGINS to activate

 Dipole corrections
   LMONO      =      F    monopole corrections only (constant potential shift)
   LDIPOL     =      F    correct potential (dipole corrections)
   IDIPOL     =      0    1-x, 2-y, 3-z, 4-all directions 
   EPSILON    =  1.0000000 bulk dielectric constant
   LVACPOTAV  =      F  vacuum potentials using an averaging scheme for the charge density
   VACPOTFLAT =  0.1000000 required flatness to determine vacuum potential

Coulomb truncation method
  LTRUNCATE          =      F  Coulomb kernel truncation to be used
  IDIMENSIONALITY    =      3  Dimensionality of cutoff (0 molecules / 2 surfaces)
  ISURFACE           =     -1  Direction of surface normal
  LCOARSEN           =      F  Coarsen the charge grid before padding, preferred


 Exchange correlation treatment:
   METAGGA = SCAN    functional components
   XC_C    = 1    coefficients multiplying the functional components
   LIBXC   =     F    Libxc                    
   VOSKOWN =     0    Vosko Wilk Nusair interpolation
   LHFCALC =     F    Hartree Fock is set to
   LHFONE  =     F    Hartree Fock one center treatment
   AEXX    =    0.0000 exact exchange contribution

 Parameters of functionals:
   SCAN:
     P1 =  0.000000E+00
     P2 =  0.000000E+00
     P3 =  0.000000E+00

 Accuracy and mixing parameters for tau-dependent meta-GGA functionals:
   LMAXTAU = 6
   LMIXTAU = T

 Van der Waals corrections
   IVDW    =     0    specifies the selected vdW correction

 Linear response parameters
   LEPSILON=     F    determine dielectric tensor
   LRPA    =     F    only Hartree local field effects (RPA)
   LNABLA  =     F    use nabla operator in PAW spheres
   LVEL    =     F    velocity operator in full k-point grid
   CSHIFT  =0.1000    complex shift for real part using Kramers Kronig
   OMEGAMAX=  -1.0    maximum frequency
   DEG_THRESHOLD= 0.2000000E-02 threshold for treating states as degnerate
   RTIME   =   -0.100 relaxation time in fs
  (WPLASMAI=    0.000 imaginary part of plasma frequency in eV, 0.658/RTIME)
   DFIELD  = 0.0000000 0.0000000 0.0000000 field for delta impulse in time

  Optional k-point grid parameters
   LKPOINTS_OPT  =     F    use optional k-point grid
   KPOINTS_OPT_MODE=     1    mode for optional k-point grid

 Orbital magnetization related:
   ORBITALMAG=     F  switch on orbital magnetization
   LCHIMAG   =     F  perturbation theory with respect to B field
   DQ        =  0.001000  dq finite difference perturbation B field
   LLRAUG    =     F  two centre corrections for induced B field
   LBONE     =     F  B-component reconstruction in AE one-centre
   LVGVCALC  =     T  calculate vGv susceptibility
   LVGVAPPL  =     F  apply vGv susceptibility instead of pGv for G=0

 Random number generation:
   RANDOM_GENERATOR = DEFAULT
   PCG_SEED         = not used


--------------------------------------------------------------------------------------------------------


 Static calculation
 charge density and potential will be updated during run
 non-spin polarized calculation
 Variant of blocked Davidson
 perform Loewdin sub-space diagonalisation
    ordering is kept fixed
    before iterative eigenvector-optimisation
 modified Broyden-mixing scheme, WC =      100.0
 initial mixing is a Kerker type mixing with AMIX =  0.4000 and BMIX =      1.0000
 Hartree-type preconditioning will be used
 using additional bands           54
 reciprocal scheme for non local part
 use partial core corrections
 calculate Harris-corrections to forces   (improved forces if not selfconsistent)
 use gradient corrections 
 use of overlap-Matrix (Vanderbilt PP)
 Gauss-broadening in eV      SIGMA  =   0.10


--------------------------------------------------------------------------------------------------------


  energy-cutoff  :     1200.00
  volume of cell :     2323.17
      direct lattice vectors                 reciprocal lattice vectors
    14.535360045  0.000000000  0.000000000     0.068797745  0.000000000  0.000000000
     0.000000000 14.535360045  0.000000000     0.000000000  0.068797745  0.000000000
     0.000000000  0.000000000 10.995884462     0.000000000  0.000000000  0.090943116

  length of vectors
    14.535360045 14.535360045 10.995884462     0.068797745  0.068797745  0.090943116



 old parameters found on file WAVECAR:
  energy-cutoff  :     1200.00
  volume of cell :     2323.17
      direct lattice vectors                 reciprocal lattice vectors
    14.535360045  0.000000000  0.000000000     0.068797745  0.000000000  0.000000000
     0.000000000 14.535360045  0.000000000     0.000000000  0.068797745  0.000000000
     0.000000000  0.000000000 10.995884462     0.000000000  0.000000000  0.090943116

  length of vectors


 k-points in units of 2pi/SCALE and weight: read from INCAR                         
   0.00000000  0.00000000  0.00000000       0.083
   0.03439887  0.00000000  0.00000000       0.083
   0.00000000  0.03439887  0.00000000       0.083
   0.03439887  0.03439887  0.00000000       0.083
   0.00000000  0.00000000  0.03031437       0.167
   0.03439887  0.00000000  0.03031437       0.167
   0.00000000  0.03439887  0.03031437       0.167
   0.03439887  0.03439887  0.03031437       0.167

 k-points in reciprocal lattice and weights: read from INCAR                         
   0.00000000  0.00000000  0.00000000       0.083
   0.50000000  0.00000000  0.00000000       0.083
   0.00000000  0.50000000  0.00000000       0.083
   0.50000000  0.50000000  0.00000000       0.083
   0.00000000  0.00000000  0.33333333       0.167
   0.50000000  0.00000000  0.33333333       0.167
   0.00000000  0.50000000  0.33333333       0.167
   0.50000000  0.50000000  0.33333333       0.167

 position of ions in fractional coordinates (direct lattice) 
   0.35697293  0.96441368  0.42641317
   0.55591537  0.01380509  0.52803756
   0.21817623  0.95717615  0.20478935
   0.65504879  0.94020375  0.59932241
   0.48595563  0.89774866  0.10790219
   0.37574095  0.74933816  0.41102014
   0.66851870  0.61737446  0.36954644
   0.18375947  0.71737473  0.67917774
   0.52136101  0.94891354  0.83888841
   0.69824208  0.29104749  0.45530216
   0.26334814  0.89756291  0.72883450
   0.84274486  0.78204461  0.06015060
   0.76653760  0.08015488  0.09204717
   0.66567323  0.43953504  0.88579687
   0.22108981  0.99859953  0.08100376
   0.57011660  0.34327598  0.13634283
   0.92965017  0.28875721  0.49824369
   0.33977143  0.54172377  0.45253568
   0.43026041  0.72181907  0.68953162
   0.19557410  0.28628943  0.63432096
   0.67417869  0.91520265  0.72872537
   0.35820165  0.16389756  0.85688332
   0.50498027  0.10244397  0.77017452
   0.03639752  0.15570306  0.42183237
   0.40939818  0.30863701  0.46544778
   0.52671141  0.49006767  0.23421490
   0.90207604  0.59749604  0.84137388
   0.75610786  0.40887257  0.32969881
   0.82284167  0.93887595  0.01512311
   0.91391613  0.66471143  0.39535155
   0.30573993  0.34909421  0.17857045
   0.03689630  0.74595331  0.30367634
   0.04618042  0.67610228  0.80226380
   0.58420637  0.51408840  0.60994912
   0.00445174  0.18452518  0.20810513
   0.77515108  0.12503302  0.88480286
   0.34272629  0.04839343  0.49918586
   0.21564791  0.02770582  0.63777225
   0.76860841  0.69216036  0.90310789
   0.17598394  0.24055407  0.43388688
   0.83750247  0.71218050  0.57955684
   0.05067043  0.97207774  0.84457963
   0.00680256  0.27697904  0.83365736
   0.91724594  0.41371937  0.35333038
   0.79469652  0.37417305  0.97487383
   0.34935495  0.69300657  0.50859119
   0.16837147  0.56889681  0.76370482
   0.54644673  0.23153331  0.44534298
   0.98138608  0.96224655  0.05903745
   0.07360533  0.12691946  0.85897865
   0.09428937  0.49333212  0.59612667
   0.69909517  0.75531669  0.72615350
   0.42458941  0.88021211  0.72167637
   0.49701624  0.98591297  0.04247607
   0.07817763  0.82950130  0.48814991
   0.36056830  0.07697780  0.03916283
   0.58161683  0.64407211  0.72003849
   0.31951668  0.18296004  0.39592540
   0.95172049  0.52724459  0.50633580
   0.39919823  0.32421213  0.85649499
   0.49520961  0.09102286  0.56001043
   0.03390367  0.35191285  0.64323248
   0.39874898  0.43197348  0.32132568
   0.16607569  0.48085290  0.94130673
   0.53318322  0.20643864  0.22393833
   0.00158305  0.81005217  0.10718283
   0.40931425  0.49272188  0.63282222
   0.04221099  0.38521646  0.99021593
   0.71489801  0.45756968  0.69033465
   0.30342695  0.41192375  0.98116709
   0.81107038  0.16845610  0.44484371
   0.60504796  0.10290010  0.09465360
   0.78566337  0.31785728  0.63615074
   0.09534886  0.60427812  0.25515910
   0.18247845  0.88915582  0.91597907
   0.35001747  0.59376582  0.78544750
   0.95423161  0.93934378  0.69286923
   0.17960615  0.51171006  0.41318823
   0.74437785  0.32042000  0.16271997
   0.84692089  0.26845018  0.83661665
   0.49688140  0.58685990  0.07981677
   0.84128635  0.55818500  0.65020509
   0.34498836  0.35033188  0.65936851
   0.21277010  0.15773672  0.76181593
   0.62460579  0.59365919  0.93704149
   0.94185489  0.53261495  0.19155712
   0.10424854  0.74605651  0.97027211
   0.83569309  0.17304353  0.22959499
   0.05947682  0.00620307  0.53411893
   0.03496301  0.34277032  0.19859339
   0.36931868  0.19451462  0.19658628
   0.22551144  0.77464197  0.58662493
   0.97523556  0.78108144  0.63673368
   0.18180699  0.60791133  0.06416246
   0.08592288  0.09015945  0.07598015
   0.17549479  0.36545706  0.30787246
   0.84125195  0.65510796  0.18889431
   0.64739642  0.52297845  0.38827254
   0.35210686  0.56327948  0.99825531
   0.61675252  0.17197235  0.88531123
   0.91825727  0.47902219  0.99238947
   0.55421675  0.32684020  0.92326361
   0.81117358  0.98104209  0.80664816

 position of ions in cartesian coordinates  (Angst):
   5.18873000 14.01810000  4.68879000
   8.08043000  0.20066200  5.80624000
   3.17127000 13.91290000  2.25184000
   9.52137000 13.66620000  6.59008000
   7.06354000 13.04910000  1.18648000
   5.46153000 10.89190000  4.51953000
   9.71716000  8.97376000  4.06349000
   2.67101000 10.42730000  7.46816000
   7.57817000 13.79280000  9.22432000
  10.14920000  4.23048000  5.00645000
   3.82786000 13.04640000  8.01418000
  12.24960000 11.36730000  0.66140900
  11.14190000  1.16508000  1.01214000
   9.67580000  6.38880000  9.74012000
   3.21362000 14.51500364  0.89070800
   8.28685000  4.98964000  1.49921000
  13.51280000  4.19719000  5.47863000
   4.93870000  7.87415000  4.97603000
   6.25399000 10.49190000  7.58201000
   2.84274000  4.16132000  6.97492000
   9.79943000 13.30280000  8.01298000
   5.20659000  2.38231000  9.42219000
   7.34007000  1.48906000  8.46875000
   0.52905100  2.26320000  4.63842000
   5.95075000  4.48615000  5.11801000
   7.65594000  7.12331000  2.57540000
  13.11200000  8.68482000  9.25165000
  10.99030000  5.94311000  3.62533000
  11.96030000 13.64690000  0.16629200
  13.28410000  9.66182000  4.34724000
   4.44404000  5.07421000  1.96354000
   0.53630100 10.84270000  3.33919000
   0.67124900  9.82739000  8.82160000
   8.49165000  7.47246000  6.70693000
   0.06470760  2.68214000  2.28830000
  11.26710000  1.81740000  9.72919000
   4.98165000  0.70341600  5.48899000
   3.13452000  0.40271400  7.01287000
  11.17200000 10.06080000  9.93047000
   2.55799000  3.49654000  4.77097000
  12.17340000 10.35180000  6.37274000
   0.73651300 14.12950000  9.28690000
   0.09887760  4.02599000  9.16680000
  13.33250000  6.01356000  3.88518000
  11.55120000  5.43874000 10.71960000
   5.07800000 10.07310000  5.59241000
   2.44734000  8.26912000  8.39761000
   7.94280000  3.36542000  4.89694000
  14.26480000 13.98660000  0.64916900
   1.06988000  1.84482000  9.44523000
   1.37053000  7.17076000  6.55494000
  10.16160000 10.97880000  7.98470000
   6.17156000 12.79420000  7.93547000
   7.22431000 14.33060000  0.46706200
   1.13634000 12.05710000  5.36764000
   5.24099000  1.11890000  0.43063000
   8.45401000  9.36182000  7.91746000
   4.64429000  2.65939000  4.35355000
  13.83360000  7.66369000  5.56761000
   5.80249000  4.71254000  9.41792000
   7.19805000  1.32305000  6.15781000
   0.49280200  5.11518000  7.07291000
   5.79596000  6.27889000  3.53326000
   2.41397000  6.98937000 10.35050000
   7.75001000  3.00066000  2.46240000
   0.02301020 11.77440000  1.17857000
   5.94953000  7.16189000  6.95844000
   0.61355200  5.59926000 10.88830000
  10.39130000  6.65094000  7.59084000
   4.41042000  5.98746000 10.78880000
  11.78920000  2.44857000  4.89145000
   8.79459000  1.49569000  1.04080000
  11.41990000  4.62017000  6.99504000
   1.38593000  8.78340000  2.80570000
   2.65239000 12.92420000 10.07200000
   5.08763000  8.63060000  8.63669000
  13.87010000 13.65370000  7.61871000
   2.61064000  7.43789000  4.54337000
  10.81980000  4.65742000  1.78925000
  12.31030000  3.90202000  9.19934000
   7.22235000  8.53022000  0.87765600
  12.22840000  8.11342000  7.14958000
   5.01453000  5.09220000  7.25034000
   3.09269000  2.29276000  8.37684000
   9.07887000  8.62905000 10.30360000
  13.69020000  7.74175000  2.10634000
   1.51529000 10.84420000 10.66900000
  12.14710000  2.51525000  2.52460000
   0.86451700  0.09016390  5.87311000
   0.50820000  4.98229000  2.18371000
   5.36818000  2.82734000  2.16164000
   3.27789000 11.25970000  6.45046000
  14.17540000 11.35330000  7.00145000
   2.64263000  8.83621000  0.70552300
   1.24892000  1.31050000  0.83546900
   2.55088000  5.31205000  3.38533000
  12.22790000  9.52223000  2.07706000
   9.41014000  7.60168000  4.26940000
   5.11800000  8.18747000 10.97670000
   8.96472000  2.49968000  9.73478000
  13.34720000  6.96276000 10.91220000
   8.05574000  4.75074000 10.15210000
  11.79070000 14.25980000  8.86981000



--------------------------------------------------------------------------------------------------------


 k-point     1 :   0.0000 0.0000 0.0000  plane waves:  219127
 k-point     2 :   0.5000 0.0000 0.0000  plane waves:  219306
 k-point     3 :   0.0000 0.5000 0.0000  plane waves:  219306
 k-point     4 :   0.5000 0.5000 0.0000  plane waves:  219172
 k-point     5 :   0.0000 0.0000 0.3333  plane waves:  219214
 k-point     6 :   0.5000 0.0000 0.3333  plane waves:  219318
 k-point     7 :   0.0000 0.5000 0.3333  plane waves:  219318
 k-point     8 :   0.5000 0.5000 0.3333  plane waves:  219340

 maximum and minimum number of plane-waves per node :     13772    13631

 maximum number of plane-waves:    219340
 maximum index in each direction: 
   IXMAX=   41   IYMAX=   41   IZMAX=   31
   IXMIN=  -41   IYMIN=  -41   IZMIN=  -31


 parallel 3D FFT for wavefunctions:
    minimum data exchange during FFTs selected (reduces bandwidth)
 parallel 3D FFT for charge:
    minimum data exchange during FFTs selected (reduces bandwidth)


 total amount of memory used by VASP MPI-rank0   197583. kBytes
=======================================================================

   base                                    :      30000. kBytes
   nonl-proj                               :      36702. kBytes
   fftplans                                :      42986. kBytes
   grid                                    :      33148. kBytes
   one-center                              :         21. kBytes
   wavefun                                 :      54726. kBytes

     INWAV:  cpu time     10.3304: real time     10.3350
 Broyden mixing: mesh for mixing (old mesh)
   NGX = 83   NGY = 83   NGZ = 63
  (NGX  =336   NGY  =336   NGZ  =252)
  gives a total of 434007 points

 initial charge density was supplied:
 number of electron     387.9999999 magnetization 
 keeping initial charge density in first step


--------------------------------------------------------------------------------------------------------


 Maximum index for augmentation-charges        11426 (set IRDMAX)


--------------------------------------------------------------------------------------------------------


 First call to EWALD:  gamma=   0.134
 Maximum number of real-space cells   3x   3x   3
 Maximum number of reciprocal cells   3x   3x   2

    FEWALD:  cpu time      0.0184: real time      0.0191


--------------------------------------- Ionic step        1  -------------------------------------------




--------------------------------------- Iteration      1(   1)  ---------------------------------------


    POTLOK:  cpu time      0.7642: real time      0.7650
    SETDIJ:  cpu time      1.3873: real time      1.3885
    EDDIAG:  cpu time     22.6648: real time     22.6850
     EDDAV:  cpu time    106.5015: real time    106.5949
       DOS:  cpu time      0.0096: real time      0.0098
    CHARGE:  cpu time     10.1793: real time     10.1877
    MIXING:  cpu time      0.0242: real time      0.0244
    --------------------------------------------
      LOOP:  cpu time    141.5310: real time    141.6553

 eigenvalue-minimisations  :  3992
 total energy-change (2. order) :-0.1009432E+04  (-0.1109511E+01)
 number of electron     387.9999999 magnetization 
 augmentation part      -21.0931892 magnetization 

 Broyden mixing:
  rms(total) = 0.12403E+01    rms(broyden)= 0.46543E+02
  rms(prec ) = 0.13300E+01
  weight for this iteration     100.00
  WARNING: grid for Broyden might be to small

 Free energy of the ion-electron system (eV)
  ---------------------------------------------------
  alpha Z        PSCENC =       136.78166243
  Ewald energy   TEWEN  =     -7844.57110075
  -Hartree energ DENC   =     -3156.72392985
  -exchange      EXHF   =         0.00000000
  -V(xc)+E(xc)   XCENC  =      -438.69972332
  PAW double counting   =     36075.46527061   -35128.47485065
  entropy T*S    EENTRO =        -0.12863732
  eigenvalues    EBANDS =      -544.33737528
  atomic energy  EATOM  =      9891.25629545
  Solvation  Ediel_sol  =         0.00000000
  ---------------------------------------------------
  free energy    TOTEN  =     -1009.43238869 eV

  energy without entropy =    -1009.30375137  energy(sigma->0) =    -1009.36807003


--------------------------------------------------------------------------------------------------------




--------------------------------------- Iteration      1(   2)  ---------------------------------------


    POTLOK:  cpu time      0.7432: real time      0.7601
    SETDIJ:  cpu time      1.3714: real time      1.3721
    EDDIAG:  cpu time     22.9031: real time     22.9228
     EDDAV:  cpu time    106.3390: real time    106.4280
       DOS:  cpu time      0.0039: real time      0.0039
    CHARGE:  cpu time     10.1561: real time     10.1652
    MIXING:  cpu time      0.0169: real time      0.0169
    --------------------------------------------
      LOOP:  cpu time    141.5336: real time    141.6689

 eigenvalue-minimisations  :  3968
 total energy-change (2. order) : 0.6965019E+02  (-0.1026790E+01)
 number of electron     387.9999999 magnetization 
 augmentation part      -21.0116461 magnetization 

 Broyden mixing:
  rms(total) = 0.82613E+00    rms(broyden)= 0.26836E+02
  rms(prec ) = 0.87221E+00
  weight for this iteration     100.00
  WARNING: grid for Broyden might be to small

 eigenvalues of (default mixing * dielectric matrix)
  average eigenvalue GAMMA=   0.6343
  0.6343

 Free energy of the ion-electron system (eV)
  ---------------------------------------------------
  alpha Z        PSCENC =       136.78166243
  Ewald energy   TEWEN  =     -7844.57110075
  -Hartree energ DENC   =     -3146.76075478
  -exchange      EXHF   =         0.00000000
  -V(xc)+E(xc)   XCENC  =      -428.23421703
  PAW double counting   =     43281.47098586   -42334.21234610
  entropy T*S    EENTRO =        -0.12952627
  eigenvalues    EBANDS =      -495.38319805
  atomic energy  EATOM  =      9891.25629545
  Solvation  Ediel_sol  =         0.00000000
  ---------------------------------------------------
  free energy    TOTEN  =      -939.78219923 eV

  energy without entropy =     -939.65267297  energy(sigma->0) =     -939.71743610


--------------------------------------------------------------------------------------------------------




--------------------------------------- Iteration      1(   3)  ---------------------------------------


    POTLOK:  cpu time      0.7430: real time      0.7632
    SETDIJ:  cpu time      1.3740: real time      1.3746
    EDDIAG:  cpu time     22.9352: real time     22.9539
     EDDAV:  cpu time    106.2862: real time    106.3825
       DOS:  cpu time      0.0042: real time      0.0042
    CHARGE:  cpu time     10.1816: real time     10.1926
    MIXING:  cpu time      0.0152: real time      0.0152
    --------------------------------------------
      LOOP:  cpu time    141.5395: real time    141.6860

 eigenvalue-minimisations  :  3968
 total energy-change (2. order) :-0.3854069E+01  (-0.8419649E+00)
 number of electron     387.9999999 magnetization 
 augmentation part      -20.9433888 magnetization 

 Broyden mixing:
  rms(total) = 0.46831E+00    rms(broyden)= 0.22699E+02
  rms(prec ) = 0.53032E+00
  weight for this iteration     100.00
  WARNING: grid for Broyden might be to small

 eigenvalues of (default mixing * dielectric matrix)
  average eigenvalue GAMMA=   0.7180
  0.8115  0.6244

 Free energy of the ion-electron system (eV)
  ---------------------------------------------------
  alpha Z        PSCENC =       136.78166243
  Ewald energy   TEWEN  =     -7844.57110075
  -Hartree energ DENC   =     -3150.97041167
  -exchange      EXHF   =         0.00000000
  -V(xc)+E(xc)   XCENC  =      -433.96214631
  PAW double counting   =     49468.89174714   -48521.72496531
  entropy T*S    EENTRO =        -0.13017482
  eigenvalues    EBANDS =      -489.20717431
  atomic energy  EATOM  =      9891.25629545
  Solvation  Ediel_sol  =         0.00000000
  ---------------------------------------------------
  free energy    TOTEN  =      -943.63626814 eV

  energy without entropy =     -943.50609332  energy(sigma->0) =     -943.57118073


--------------------------------------------------------------------------------------------------------




--------------------------------------- Iteration      1(   4)  ---------------------------------------


    POTLOK:  cpu time      0.7502: real time      0.7663
    SETDIJ:  cpu time      1.3704: real time      1.3714
    EDDIAG:  cpu time     22.8146: real time     22.8341
     EDDAV:  cpu time    111.8519: real time    111.9505
       DOS:  cpu time      0.0056: real time      0.0056
    CHARGE:  cpu time     10.1232: real time     10.1327
    MIXING:  cpu time      0.0156: real time      0.0156
    --------------------------------------------
      LOOP:  cpu time    146.9314: real time    147.0762

 eigenvalue-minimisations  :  4320
 total energy-change (2. order) :-0.3212377E+00  (-0.1234196E+00)
 number of electron     387.9999999 magnetization 
 augmentation part      -20.9326901 magnetization 

 Broyden mixing:
  rms(total) = 0.12897E+00    rms(broyden)= 0.13814E+01
  rms(prec ) = 0.24726E+00
  weight for this iteration     100.00
  WARNING: grid for Broyden might be to small

 eigenvalues of (default mixing * dielectric matrix)
  average eigenvalue GAMMA=   0.9870
  1.6531  0.6893  0.6186

 Free energy of the ion-electron system (eV)
  ---------------------------------------------------
  alpha Z        PSCENC =       136.78166243
  Ewald energy   TEWEN  =     -7844.57110075
  -Hartree energ DENC   =     -3156.33309346
  -exchange      EXHF   =         0.00000000
  -V(xc)+E(xc)   XCENC  =      -434.53268015
  PAW double counting   =     57741.37495034   -56794.26853962
  entropy T*S    EENTRO =        -0.11938646
  eigenvalues    EBANDS =      -483.54561357
  atomic energy  EATOM  =      9891.25629545
  Solvation  Ediel_sol  =         0.00000000
  ---------------------------------------------------
  free energy    TOTEN  =      -943.95750580 eV

  energy without entropy =     -943.83811933  energy(sigma->0) =     -943.89781256


--------------------------------------------------------------------------------------------------------




--------------------------------------- Iteration      1(   5)  ---------------------------------------


    POTLOK:  cpu time      0.7435: real time      0.7610
    SETDIJ:  cpu time      1.3737: real time      1.3749
    EDDIAG:  cpu time     22.8692: real time     22.8889
     EDDAV:  cpu time    116.6479: real time    116.7525
       DOS:  cpu time      0.0042: real time      0.0042
    CHARGE:  cpu time     10.2777: real time     10.2860
    MIXING:  cpu time      0.0155: real time      0.0155
    --------------------------------------------
      LOOP:  cpu time    151.9316: real time    152.0829

 eigenvalue-minimisations  :  4640
 total energy-change (2. order) :-0.6702760E-02  (-0.6897007E-01)
 number of electron     387.9999999 magnetization 
 augmentation part      -20.9341999 magnetization 

 Broyden mixing:
  rms(total) = 0.80166E-01    rms(broyden)= 0.16692E+01
  rms(prec ) = 0.14450E+00
  weight for this iteration     100.00
  WARNING: grid for Broyden might be to small

 eigenvalues of (default mixing * dielectric matrix)
  average eigenvalue GAMMA=   0.9802
  2.1062  0.7522  0.6242  0.4382

 Free energy of the ion-electron system (eV)
  ---------------------------------------------------
  alpha Z        PSCENC =       136.78166243
  Ewald energy   TEWEN  =     -7844.57110075
  -Hartree energ DENC   =     -3157.24528485
  -exchange      EXHF   =         0.00000000
  -V(xc)+E(xc)   XCENC  =      -435.74407874
  PAW double counting   =     57808.67229894   -56861.54949605
  entropy T*S    EENTRO =        -0.12568459
  eigenvalues    EBANDS =      -481.43882040
  atomic energy  EATOM  =      9891.25629545
  Solvation  Ediel_sol  =         0.00000000
  ---------------------------------------------------
  free energy    TOTEN  =      -943.96420856 eV

  energy without entropy =     -943.83852397  energy(sigma->0) =     -943.90136626


--------------------------------------------------------------------------------------------------------




--------------------------------------- Iteration      1(   6)  ---------------------------------------


    POTLOK:  cpu time      0.7460: real time      0.7601
    SETDIJ:  cpu time      1.3736: real time      1.3747
    EDDIAG:  cpu time     22.9251: real time     22.9433
     EDDAV:  cpu time    109.3734: real time    109.4692
       DOS:  cpu time      0.0038: real time      0.0038
    CHARGE:  cpu time     10.2490: real time     10.2571
    MIXING:  cpu time      0.0150: real time      0.0161
    --------------------------------------------
      LOOP:  cpu time    144.6859: real time    144.8242

 eigenvalue-minimisations  :  4152
 total energy-change (2. order) : 0.5486728E-02  (-0.1086724E-01)
 number of electron     387.9999999 magnetization 
 augmentation part      -20.9341881 magnetization 

 Broyden mixing:
  rms(total) = 0.26708E-01    rms(broyden)= 0.29160E+00
  rms(prec ) = 0.34330E-01
  weight for this iteration     100.00
  WARNING: grid for Broyden might be to small

 eigenvalues of (default mixing * dielectric matrix)
  average eigenvalue GAMMA=   1.0161
  2.5448  0.9459  0.6322  0.6322  0.3252

 Free energy of the ion-electron system (eV)
  ---------------------------------------------------
  alpha Z        PSCENC =       136.78166243
  Ewald energy   TEWEN  =     -7844.57110075
  -Hartree energ DENC   =     -3157.55355164
  -exchange      EXHF   =         0.00000000
  -V(xc)+E(xc)   XCENC  =      -436.03822214
  PAW double counting   =     57471.76085426   -56524.61592282
  entropy T*S    EENTRO =        -0.13389992
  eigenvalues    EBANDS =      -480.84483670
  atomic energy  EATOM  =      9891.25629545
  Solvation  Ediel_sol  =         0.00000000
  ---------------------------------------------------
  free energy    TOTEN  =      -943.95872183 eV

  energy without entropy =     -943.82482191  energy(sigma->0) =     -943.89177187


--------------------------------------------------------------------------------------------------------




--------------------------------------- Iteration      1(   7)  ---------------------------------------


    POTLOK:  cpu time      0.7456: real time      0.7638
    SETDIJ:  cpu time      1.3828: real time      1.3836
    EDDIAG:  cpu time     22.8685: real time     22.8880
     EDDAV:  cpu time    111.4856: real time    111.5850
       DOS:  cpu time      0.0053: real time      0.0053
    CHARGE:  cpu time     10.2005: real time     10.2087
    MIXING:  cpu time      0.0158: real time      0.0158
    --------------------------------------------
      LOOP:  cpu time    146.7043: real time    146.8503

 eigenvalue-minimisations  :  4304
 total energy-change (2. order) :-0.1297138E-03  (-0.1401456E-02)
 number of electron     387.9999999 magnetization 
 augmentation part      -20.9332225 magnetization 

 Broyden mixing:
  rms(total) = 0.18871E-01    rms(broyden)= 0.18995E+00
  rms(prec ) = 0.24022E-01
  weight for this iteration     100.00
  WARNING: grid for Broyden might be to small

 eigenvalues of (default mixing * dielectric matrix)
  average eigenvalue GAMMA=   0.9914
  2.5737  1.0711  0.3191  0.7395  0.6224  0.6224

 Free energy of the ion-electron system (eV)
  ---------------------------------------------------
  alpha Z        PSCENC =       136.78166243
  Ewald energy   TEWEN  =     -7844.57110075
  -Hartree energ DENC   =     -3157.84257591
  -exchange      EXHF   =         0.00000000
  -V(xc)+E(xc)   XCENC  =      -436.03686875
  PAW double counting   =     57437.34327085   -56490.18588730
  entropy T*S    EENTRO =        -0.13212455
  eigenvalues    EBANDS =      -480.57152301
  atomic energy  EATOM  =      9891.25629545
  Solvation  Ediel_sol  =         0.00000000
  ---------------------------------------------------
  free energy    TOTEN  =      -943.95885154 eV

  energy without entropy =     -943.82672699  energy(sigma->0) =     -943.89278927


--------------------------------------------------------------------------------------------------------




--------------------------------------- Iteration      1(   8)  ---------------------------------------


    POTLOK:  cpu time      0.7448: real time      0.7626
    SETDIJ:  cpu time      1.3699: real time      1.3704
    EDDIAG:  cpu time     22.8809: real time     22.9013
     EDDAV:  cpu time    116.8308: real time    116.9379
       DOS:  cpu time      0.0041: real time      0.0041
    CHARGE:  cpu time     10.2080: real time     10.2177
    MIXING:  cpu time      0.0169: real time      0.0170
    --------------------------------------------
      LOOP:  cpu time    152.0554: real time    152.2111

 eigenvalue-minimisations  :  4648
 total energy-change (2. order) :-0.8789724E-03  (-0.3229856E-03)
 number of electron     387.9999999 magnetization 
 augmentation part      -20.9320017 magnetization 

 Broyden mixing:
  rms(total) = 0.10277E-01    rms(broyden)= 0.11867E+00
  rms(prec ) = 0.15342E-01
  weight for this iteration     100.00
  WARNING: grid for Broyden might be to small

 eigenvalues of (default mixing * dielectric matrix)
  average eigenvalue GAMMA=   1.0114
  2.5793  1.4464  0.9006  0.3171  0.6299  0.6299  0.5765

 Free energy of the ion-electron system (eV)
  ---------------------------------------------------
  alpha Z        PSCENC =       136.78166243
  Ewald energy   TEWEN  =     -7844.57110075
  -Hartree energ DENC   =     -3158.24038076
  -exchange      EXHF   =         0.00000000
  -V(xc)+E(xc)   XCENC  =      -435.89468521
  PAW double counting   =     57442.35676060   -56495.18542437
  entropy T*S    EENTRO =        -0.13335617
  eigenvalues    EBANDS =      -480.32950174
  atomic energy  EATOM  =      9891.25629545
  Solvation  Ediel_sol  =         0.00000000
  ---------------------------------------------------
  free energy    TOTEN  =      -943.95973051 eV

  energy without entropy =     -943.82637435  energy(sigma->0) =     -943.89305243


--------------------------------------------------------------------------------------------------------




--------------------------------------- Iteration      1(   9)  ---------------------------------------


    POTLOK:  cpu time      0.7438: real time      0.7612
    SETDIJ:  cpu time      1.3720: real time      1.3729
    EDDIAG:  cpu time     22.9144: real time     22.9354
     EDDAV:  cpu time    112.8215: real time    112.9265
       DOS:  cpu time      0.0043: real time      0.0043
    CHARGE:  cpu time      9.9952: real time     10.0046
    MIXING:  cpu time      0.0161: real time      0.0161
    --------------------------------------------
      LOOP:  cpu time    147.8674: real time    148.0212

 eigenvalue-minimisations  :  4384
 total energy-change (2. order) :-0.2394622E-03  (-0.1161294E-03)
 number of electron     387.9999999 magnetization 
 augmentation part      -20.9310412 magnetization 

 Broyden mixing:
  rms(total) = 0.34976E-02    rms(broyden)= 0.28776E-01
  rms(prec ) = 0.46618E-02
  weight for this iteration     100.00
  WARNING: grid for Broyden might be to small

 eigenvalues of (default mixing * dielectric matrix)
  average eigenvalue GAMMA=   0.9760
  2.5751  1.7239  0.9429  0.3148  0.6619  0.6256  0.4817  0.4817

 Free energy of the ion-electron system (eV)
  ---------------------------------------------------
  alpha Z        PSCENC =       136.78166243
  Ewald energy   TEWEN  =     -7844.57110075
  -Hartree energ DENC   =     -3158.51318429
  -exchange      EXHF   =         0.00000000
  -V(xc)+E(xc)   XCENC  =      -435.83513893
  PAW double counting   =     57457.87788621   -56510.69784565
  entropy T*S    EENTRO =        -0.13286969
  eigenvalues    EBANDS =      -480.12567476
  atomic energy  EATOM  =      9891.25629545
  Solvation  Ediel_sol  =         0.00000000
  ---------------------------------------------------
  free energy    TOTEN  =      -943.95996998 eV

  energy without entropy =     -943.82710029  energy(sigma->0) =     -943.89353513


--------------------------------------------------------------------------------------------------------




--------------------------------------- Iteration      1(  10)  ---------------------------------------


    POTLOK:  cpu time      0.7471: real time      0.7629
    SETDIJ:  cpu time      1.4049: real time      1.4061
    EDDIAG:  cpu time     22.8674: real time     22.8880
     EDDAV:  cpu time    110.3847: real time    110.4791
       DOS:  cpu time      0.0042: real time      0.0042
    CHARGE:  cpu time     10.3880: real time     10.3975
    MIXING:  cpu time      0.0162: real time      0.0162
    --------------------------------------------
      LOOP:  cpu time    145.8124: real time    145.9539

 eigenvalue-minimisations  :  4224
 total energy-change (2. order) :-0.4302780E-04  (-0.3086299E-04)
 number of electron     387.9999999 magnetization 
 augmentation part      -20.9311166 magnetization 

 Broyden mixing:
  rms(total) = 0.16387E-02    rms(broyden)= 0.27766E-01
  rms(prec ) = 0.21426E-02
  weight for this iteration     100.00
  WARNING: grid for Broyden might be to small

 eigenvalues of (default mixing * dielectric matrix)
  average eigenvalue GAMMA=   1.0728
  2.7811  2.3911  1.0965  0.8899  0.6514  0.6323  0.5409  0.3160  0.3558

 Free energy of the ion-electron system (eV)
  ---------------------------------------------------
  alpha Z        PSCENC =       136.78166243
  Ewald energy   TEWEN  =     -7844.57110075
  -Hartree energ DENC   =     -3158.51804608
  -exchange      EXHF   =         0.00000000
  -V(xc)+E(xc)   XCENC  =      -435.83555714
  PAW double counting   =     57471.81428768   -56524.63007608
  entropy T*S    EENTRO =        -0.13286693
  eigenvalues    EBANDS =      -480.12461159
  atomic energy  EATOM  =      9891.25629545
  Solvation  Ediel_sol  =         0.00000000
  ---------------------------------------------------
  free energy    TOTEN  =      -943.96001300 eV

  energy without entropy =     -943.82714607  energy(sigma->0) =     -943.89357954


--------------------------------------------------------------------------------------------------------




--------------------------------------- Iteration      1(  11)  ---------------------------------------


    POTLOK:  cpu time      0.7422: real time      0.7616
    SETDIJ:  cpu time      1.3716: real time      1.3725
    EDDIAG:  cpu time     22.9424: real time     22.9609
     EDDAV:  cpu time    120.5869: real time    120.6914
       DOS:  cpu time      0.0054: real time      0.0054
    CHARGE:  cpu time     10.2430: real time     10.2527
    MIXING:  cpu time      0.0181: real time      0.0181
    --------------------------------------------
      LOOP:  cpu time    155.9096: real time    156.0626

 eigenvalue-minimisations  :  4880
 total energy-change (2. order) :-0.3203380E-04  (-0.5513124E-05)
 number of electron     387.9999999 magnetization 
 augmentation part      -20.9312210 magnetization 

 Broyden mixing:
  rms(total) = 0.73245E-03    rms(broyden)= 0.25554E-01
  rms(prec ) = 0.99998E-03
  weight for this iteration     100.00
  WARNING: grid for Broyden might be to small

 eigenvalues of (default mixing * dielectric matrix)
  average eigenvalue GAMMA=   1.1383
  3.2032  2.5727  1.2942  1.0047  0.8025  0.6460  0.6279  0.5605  0.3162  0.3552

 Free energy of the ion-electron system (eV)
  ---------------------------------------------------
  alpha Z        PSCENC =       136.78166243
  Ewald energy   TEWEN  =     -7844.57110075
  -Hartree energ DENC   =     -3158.47683016
  -exchange      EXHF   =         0.00000000
  -V(xc)+E(xc)   XCENC  =      -435.84422104
  PAW double counting   =     57466.93864981   -56519.75191089
  entropy T*S    EENTRO =        -0.13295460
  eigenvalues    EBANDS =      -480.15963529
  atomic energy  EATOM  =      9891.25629545
  Solvation  Ediel_sol  =         0.00000000
  ---------------------------------------------------
  free energy    TOTEN  =      -943.96004504 eV

  energy without entropy =     -943.82709044  energy(sigma->0) =     -943.89356774


--------------------------------------------------------------------------------------------------------




--------------------------------------- Iteration      1(  12)  ---------------------------------------


    POTLOK:  cpu time      0.7493: real time      0.7655
    SETDIJ:  cpu time      1.3725: real time      1.3738
    EDDIAG:  cpu time     22.8724: real time     22.8931
     EDDAV:  cpu time    112.8522: real time    112.9459
       DOS:  cpu time      0.0058: real time      0.0058
    CHARGE:  cpu time     10.2294: real time     10.2381
    MIXING:  cpu time      0.0168: real time      0.0168
    --------------------------------------------
      LOOP:  cpu time    148.0983: real time    148.2391

 eigenvalue-minimisations  :  4392
 total energy-change (2. order) :-0.9227741E-05  (-0.1337935E-05)
 number of electron     387.9999999 magnetization 
 augmentation part      -20.9312795 magnetization 

 Broyden mixing:
  rms(total) = 0.35744E-03    rms(broyden)= 0.18435E-01
  rms(prec ) = 0.50324E-03
  weight for this iteration     100.00
  WARNING: grid for Broyden might be to small

 eigenvalues of (default mixing * dielectric matrix)
  average eigenvalue GAMMA=   1.1672
  3.4600  2.5929  1.5569  1.0633  0.9720  0.3162  0.3559  0.7145  0.5576  0.6369
  0.6130

 Free energy of the ion-electron system (eV)
  ---------------------------------------------------
  alpha Z        PSCENC =       136.78166243
  Ewald energy   TEWEN  =     -7844.57110075
  -Hartree energ DENC   =     -3158.44775294
  -exchange      EXHF   =         0.00000000
  -V(xc)+E(xc)   XCENC  =      -435.85264247
  PAW double counting   =     57464.49753406   -56517.31010275
  entropy T*S    EENTRO =        -0.13293246
  eigenvalues    EBANDS =      -480.18101483
  atomic energy  EATOM  =      9891.25629545
  Solvation  Ediel_sol  =         0.00000000
  ---------------------------------------------------
  free energy    TOTEN  =      -943.96005427 eV

  energy without entropy =     -943.82712180  energy(sigma->0) =     -943.89358803


--------------------------------------------------------------------------------------------------------




--------------------------------------- Iteration      1(  13)  ---------------------------------------


    POTLOK:  cpu time      0.7415: real time      0.7617
    SETDIJ:  cpu time      1.3803: real time      1.3808
    EDDIAG:  cpu time     22.8330: real time     22.8529
     EDDAV:  cpu time    107.9689: real time    108.0687
       DOS:  cpu time      0.0053: real time      0.0053
    CHARGE:  cpu time     10.0141: real time     10.0229
    MIXING:  cpu time      0.0170: real time      0.0170
    --------------------------------------------
      LOOP:  cpu time    142.9601: real time    143.1093

 eigenvalue-minimisations  :  4072
 total energy-change (2. order) :-0.3809633E-05  (-0.6399767E-06)
 number of electron     387.9999999 magnetization 
 augmentation part      -20.9313178 magnetization 

 Broyden mixing:
  rms(total) = 0.19692E-03    rms(broyden)= 0.47910E-02
  rms(prec ) = 0.35936E-03
  weight for this iteration     100.00
  WARNING: grid for Broyden might be to small

 eigenvalues of (default mixing * dielectric matrix)
  average eigenvalue GAMMA=   1.1900
  3.6230  2.6031  1.8316  1.1053  1.1053  0.8660  0.3162  0.3561  0.6790  0.5462
  0.6279  0.6200

 Free energy of the ion-electron system (eV)
  ---------------------------------------------------
  alpha Z        PSCENC =       136.78166243
  Ewald energy   TEWEN  =     -7844.57110075
  -Hartree energ DENC   =     -3158.41851268
  -exchange      EXHF   =         0.00000000
  -V(xc)+E(xc)   XCENC  =      -435.85855093
  PAW double counting   =     57462.74344040   -56515.55589102
  entropy T*S    EENTRO =        -0.13291649
  eigenvalues    EBANDS =      -480.20448449
  atomic energy  EATOM  =      9891.25629545
  Solvation  Ediel_sol  =         0.00000000
  ---------------------------------------------------
  free energy    TOTEN  =      -943.96005807 eV

  energy without entropy =     -943.82714158  energy(sigma->0) =     -943.89359983


--------------------------------------------------------------------------------------------------------




--------------------------------------- Iteration      1(  14)  ---------------------------------------


    POTLOK:  cpu time      0.7654: real time      0.7669
    SETDIJ:  cpu time      1.3731: real time      1.3738
    EDDIAG:  cpu time     22.9071: real time     22.9273
     EDDAV:  cpu time     91.1185: real time     91.2014
       DOS:  cpu time      0.0035: real time      0.0034
    --------------------------------------------
      LOOP:  cpu time    116.1679: real time    116.2732

 eigenvalue-minimisations  :  2968
 total energy-change (2. order) :-0.6862392E-06  (-0.1541188E-06)
 number of electron     387.9999999 magnetization 
 augmentation part      -20.9313178 magnetization 

 Free energy of the ion-electron system (eV)
  ---------------------------------------------------
  alpha Z        PSCENC =       136.78166243
  Ewald energy   TEWEN  =     -7844.57110075
  -Hartree energ DENC   =     -3158.40367826
  -exchange      EXHF   =         0.00000000
  -V(xc)+E(xc)   XCENC  =      -435.86163783
[...]
   -.259E+01 0.828E+02 -.498E+02   0.284E+01 -.820E+02 0.490E+02   -.314E+00 -.103E+01 -.477E-01   -.296E-03 0.460E-03 -.208E-03
   0.196E+02 0.435E+02 -.546E+01   -.215E+02 -.421E+02 0.539E+01   0.201E+01 -.154E+01 0.206E+00   -.244E-03 0.125E-03 0.158E-03
   -.453E+02 -.418E+02 -.125E+01   0.449E+02 0.439E+02 0.902E+00   0.120E+01 -.306E+01 0.149E+00   0.593E-03 -.167E-03 -.527E-04
   -.562E+02 0.297E+02 -.404E+02   0.553E+02 -.292E+02 0.387E+02   0.571E+00 -.462E+00 0.168E+01   0.259E-03 -.148E-04 -.224E-03
   -.185E+02 -.523E+02 -.222E+02   0.208E+02 0.524E+02 0.219E+02   -.294E+01 0.472E+00 0.467E-01   0.341E-03 -.341E-03 0.427E-03
   0.594E+02 -.886E+01 0.499E+02   -.562E+02 0.690E+01 -.479E+02   -.368E+01 0.174E+01 -.251E+01   0.109E-03 0.807E-05 0.111E-03
   -.216E+02 -.547E+02 0.153E+02   0.222E+02 0.531E+02 -.141E+02   -.850E+00 0.950E+00 -.151E+01   0.373E-03 -.159E-03 0.751E-04
   0.916E+01 0.231E+02 -.477E+00   -.944E+01 -.207E+02 0.222E+00   -.225E+00 -.310E+01 -.520E+00   -.522E-03 0.973E-04 -.187E-03
   0.976E+01 0.421E+02 0.175E+02   -.886E+01 -.417E+02 -.154E+02   -.136E+01 -.130E+01 -.272E+01   -.153E-03 0.115E-03 0.513E-05
   -.910E+01 -.112E+03 -.294E+02   0.805E+01 0.111E+03 0.303E+02   0.153E+01 0.176E+01 -.161E+01   -.206E-03 -.636E-03 -.293E-03
   0.339E+02 -.204E+02 0.925E+01   -.319E+02 0.225E+02 -.954E+01   -.216E+01 -.189E+01 0.806E+00   -.238E-03 -.195E-03 0.277E-03
   -.138E+02 0.580E+01 -.742E+01   0.152E+02 -.413E+01 0.726E+01   -.922E+00 -.174E+01 -.259E+00   0.253E-03 0.133E-03 0.211E-03
   -.936E+01 0.170E+02 -.154E+02   0.840E+01 -.179E+02 0.143E+02   0.135E+01 0.599E+00 0.886E+00   0.273E-03 0.152E-03 0.499E-04
   0.215E+02 -.722E+02 -.496E+02   -.218E+02 0.702E+02 0.481E+02   0.144E-01 0.221E+01 0.830E+00   -.121E-02 -.550E-03 0.286E-03
   0.141E+02 -.290E+02 0.712E+00   -.155E+02 0.298E+02 -.305E+01   0.184E+01 -.609E+00 0.191E+01   0.479E-03 -.686E-03 -.190E-03
   -.434E+02 -.236E+02 -.294E+02   0.408E+02 0.234E+02 0.288E+02   0.360E+01 0.157E+00 0.119E+01   0.263E-03 -.276E-03 -.266E-03
   0.129E+02 0.670E+02 -.167E+02   -.137E+02 -.684E+02 0.187E+02   0.115E+01 0.248E+01 -.171E+01   -.579E-04 0.341E-03 -.131E-03
   0.287E+02 0.184E+02 0.533E+02   -.278E+02 -.193E+02 -.522E+02   -.388E+00 0.263E+00 -.830E+00   0.262E-03 0.101E-03 0.180E-03
   -.132E+01 0.126E+02 0.913E+01   0.356E+01 -.150E+02 -.919E+01   -.191E+01 0.218E+01 0.505E+00   0.235E-03 -.883E-04 -.512E-04
   0.516E+01 0.598E+02 0.141E+02   -.369E+01 -.602E+02 -.115E+02   -.111E+01 0.247E+00 -.279E+01   0.169E-03 0.319E-03 -.193E-03
   -.263E+02 -.318E+02 0.579E+02   0.252E+02 0.292E+02 -.546E+02   0.656E-01 0.384E+01 -.360E+01   0.129E-03 -.114E-03 0.241E-03
   0.222E+02 -.291E+02 0.134E+02   -.231E+02 0.298E+02 -.153E+02   0.109E+01 -.879E+00 0.306E+01   0.199E-03 -.487E-04 0.280E-03
   -.517E+02 -.690E+02 -.388E+02   0.498E+02 0.672E+02 0.379E+02   0.234E+01 0.266E+01 0.128E+01   0.505E-03 -.364E-03 -.288E-03
   -.155E+02 0.130E+02 -.401E+02   0.149E+02 -.136E+02 0.393E+02   0.202E+00 0.426E+00 0.785E-01   0.365E-03 0.280E-03 -.167E-04
   -.608E+01 -.826E+01 0.183E+02   0.602E+01 0.698E+01 -.173E+02   -.400E+00 0.188E+01 -.136E+01   0.357E-03 0.752E-04 -.825E-04
   0.899E+02 -.581E+02 -.183E+02   -.890E+02 0.563E+02 0.179E+02   -.112E+01 0.180E+01 0.218E+01   0.165E-03 0.411E-05 -.341E-03
   0.214E+02 -.687E+02 0.703E+01   -.212E+02 0.723E+02 -.890E+01   -.162E+01 -.464E+01 0.190E+01   -.745E-03 -.444E-03 -.378E-04
   -.311E+02 -.884E+02 -.404E+02   0.320E+02 0.850E+02 0.391E+02   -.112E+01 0.386E+01 0.127E+01   0.125E-02 -.542E-03 0.257E-03
   -.994E+01 0.237E+02 0.260E+02   0.870E+01 -.253E+02 -.257E+02   0.914E+00 0.195E+01 0.715E+00   -.282E-03 0.295E-03 -.123E-04
   0.215E+02 -.305E+02 0.218E+01   -.201E+02 0.287E+02 -.158E+01   -.186E+01 0.214E+01 -.102E+01   -.632E-05 -.291E-03 -.443E-03
   0.837E+01 0.186E+00 0.202E+02   -.691E+01 0.172E+00 -.185E+02   -.931E+00 -.607E+00 -.167E+01   -.305E-03 0.509E-03 0.180E-03
   0.190E+02 0.183E+02 0.469E+02   -.206E+02 -.182E+02 -.447E+02   0.157E+01 -.671E+00 -.274E+01   -.173E-03 0.463E-04 0.416E-04
 -----------------------------------------------------------------------------------------------
   0.432E+01 -.187E+02 -.395E+01   0.355E-14 -.355E-13 0.497E-13   -.430E+01 0.187E+02 0.394E+01   0.292E-02 0.283E-02 0.574E-03


 POSITION                                       TOTAL-FORCE (eV/Angst)
 -----------------------------------------------------------------------------------
      5.18873     14.01810      4.68879        -0.058945     -0.093793     -0.353455
      8.08043      0.20066      5.80624         0.151510     -0.156995     -0.225252
      3.17127     13.91290      2.25184         0.199428     -0.212832     -0.050080
      9.52137     13.66620      6.59008         0.091308      0.026109      0.233701
      7.06354     13.04910      1.18648        -0.005737     -0.005384      0.382150
      5.46153     10.89190      4.51953         0.685793      1.131755     -1.349271
      9.71716      8.97376      4.06349         0.514807      1.281211     -0.233570
      2.67101     10.42730      7.46816        -0.341979     -0.609608      0.346684
      7.57817     13.79280      9.22432         2.153562      1.160910      0.058296
     10.14920      4.23048      5.00645         0.413535     -1.306415      0.891170
      3.82786     13.04640      8.01418         0.786079     -0.967068      0.180310
     12.24960     11.36730      0.66141        -0.321982     -0.301992     -0.504306
     11.14190      1.16508      1.01214        -0.779836     -0.641058     -0.403424
      9.67580      6.38880      9.74012         0.124577      0.453747      0.494472
      3.21362     14.51500      0.89071        -0.054586     -0.118481     -0.487357
      8.28685      4.98964      1.49921         1.260831      0.358354     -0.013937
     13.51280      4.19719      5.47863         0.039456     -0.567765      0.107606
      4.93870      7.87415      4.97603        -0.986783     -0.051571      0.031858
      6.25399     10.49190      7.58201         0.643469     -0.731244      0.441928
      2.84274      4.16132      6.97492        -0.658178      0.281759      0.047428
      9.79943     13.30280      8.01298        -0.786047     -0.212030      0.603152
      5.20659      2.38231      9.42219         0.881462     -0.111042      0.125078
      7.34007      1.48906      8.46875        -1.130759     -0.085396     -0.008602
      0.52905      2.26320      4.63842         0.125428      0.127021     -0.107983
      5.95075      4.48615      5.11801        -0.054776     -0.121339      0.359973
      7.65594      7.12331      2.57540         1.628186     -1.168206      0.480247
     13.11200      8.68482      9.25165        -0.067974     -0.265347      0.521609
     10.99030      5.94311      3.62533        -0.057883      0.681748      0.814396
     11.96030     13.64690      0.16629         0.239345      0.542427      0.500665
     13.28410      9.66182      4.34724        -1.162259      0.582919     -0.662136
      4.44404      5.07421      1.96354         0.122247     -0.039338      0.176819
      0.53630     10.84270      3.33919        -0.324228      0.787843      0.715894
      0.67125      9.82739      8.82160        -0.999723      0.367438     -0.969934
      8.49165      7.47246      6.70693        -0.857228     -0.416386     -2.341583
      0.06471      2.68214      2.28830        -0.629428      0.004279      0.975742
     11.26710      1.81740      9.72919         0.032780      1.375821     -0.081480
      4.98165      0.70342      5.48899         0.192628      0.079720      0.676369
      3.13452      0.40271      7.01287        -0.390904      0.799613     -1.118568
     11.17200     10.06080      9.93047         0.390301     -0.376714      0.177430
      2.55799      3.49654      4.77097        -0.085582     -0.531555      0.366454
     12.17340     10.35180      6.37274        -0.955433     -0.023261      0.432200
      0.73651     14.12950      9.28690        -0.157295     -0.681001      1.704307
      0.09888      4.02599      9.16680        -0.251450      0.006078      0.005443
     13.33250      6.01356      3.88518         0.316691      0.259345     -0.323402
     11.55120      5.43874     10.71960         0.027409      0.801843      0.644580
      5.07800     10.07310      5.59241         0.137175      0.246248      0.523817
      2.44734      8.26912      8.39761         0.160742     -0.150381     -0.296967
      7.94280      3.36542      4.89694         0.254490     -1.018763     -0.386511
     14.26480     13.98660      0.64917         0.324511      0.456154     -1.265914
      1.06988      1.84482      9.44523         0.611158      1.084114      1.085196
      1.37053      7.17076      6.55494         0.114846      0.744050     -0.481346
     10.16160     10.97880      7.98470         1.339583     -0.044729     -0.836262
      6.17156     12.79420      7.93547        -1.734634     -1.321143     -0.916822
      7.22431     14.33060      0.46706         0.091614      0.221787      0.143269
      1.13634     12.05710      5.36764         1.066691      0.300290     -0.469150
      5.24099      1.11890      0.43063        -0.475851      0.537008      0.551547
      8.45401      9.36182      7.91746        -0.730680      1.495420      1.098674
      4.64429      2.65939      4.35355        -0.211501     -0.004186     -0.769912
     13.83360      7.66369      5.56761         0.066594      0.395445     -0.615132
      5.80249      4.71254      9.41792        -0.181212     -1.064882      0.069980
      7.19805      1.32305      6.15781         0.292095      0.609048     -0.251028
      0.49280      5.11518      7.07291         1.166884     -1.337499      0.765449
      5.79596      6.27889      3.53326        -0.401448     -0.368265     -0.098911
      2.41397      6.98937     10.35050        -1.095747     -0.664314     -0.378037
      7.75001      3.00066      2.46240        -1.009759      0.051388      0.991427
      0.02301     11.77440      1.17857        -0.034916     -0.672494      0.389442
      5.94953      7.16189      6.95844         0.063048      0.174658      0.432425
      0.61355      5.59926     10.88830         0.320062     -0.364596     -0.377776
     10.39130      6.65094      7.59084         1.043769     -0.233325     -0.103310
      4.41042      5.98746     10.78880         0.641323     -0.211475      0.593863
     11.78920      2.44857      4.89145        -0.234853      0.151428     -0.133161
      8.79459      1.49569      1.04080        -0.091652     -0.281688     -0.835916
     11.41990      4.62017      6.99504         0.250745     -0.144504      0.102047
      1.38593      8.78340      2.80570         0.838276     -1.162395     -0.200514
      2.65239     12.92420     10.07200        -0.388720      0.030170      0.017939
      5.08763      8.63060      8.63669        -0.833534      0.517996     -0.235812
     13.87010     13.65370      7.61871        -0.531226     -0.125381     -0.546529
      2.61064      7.43789      4.54337        -0.289293     -0.648095     -0.423347
     10.81980      4.65742      1.78925        -0.498617     -0.866312     -0.782157
     12.31030      3.90202      9.19934        -0.555224     -0.972759     -0.806336
      7.22235      8.53022      0.87766         0.573118      0.683037     -0.864851
     12.22840      8.11342      7.14958        -0.230400      0.153808      0.559715
      5.01453      5.09220      7.25034         0.478447     -0.149481     -0.437721
      3.09269      2.29276      8.37684         0.462367     -0.216551     -0.199798
      9.07887      8.62905     10.30360        -0.238519      0.201165     -0.722313
     13.69020      7.74175      2.10634         0.504679      0.163227     -0.316625
      1.51529     10.84420     10.66900         1.168006     -0.009951      0.628189
     12.14710      2.51525      2.52460         0.368898      1.217830      0.159677
      0.86452      0.09016      5.87311         0.437703     -0.587274      0.321751
      0.50820      4.98229      2.18371         0.216060     -0.107508      0.467695
      5.36818      2.82734      2.16164         0.316291     -0.138266     -0.312688
      3.27789     11.25970      6.45046        -1.095101      1.337943     -0.385735
     14.17540     11.35330      7.00145         0.232500     -0.183449      1.336219
      2.64263      8.83621      0.70552         0.508573      0.931918      0.334436
      1.24892      1.31050      0.83547        -0.478866     -0.152975     -0.721196
      2.55088      5.31205      3.38533        -0.486940      0.680437     -0.525132
     12.22790      9.52223      2.07706        -0.077577      0.066509      1.860704
      9.41014      7.60168      4.26940        -1.452766     -1.195295      0.086950
      5.11800      8.18747     10.97670        -0.251808      0.612495     -0.026154
      8.96472      2.49968      9.73478        -0.311116      0.473842      1.029876
     13.34720      6.96276     10.91220        -0.540382      0.406739     -0.458406
      8.05574      4.75074     10.15210         0.484979     -0.282547     -0.053041
     11.79070     14.25980      8.86981         0.025284     -0.577789     -0.577396
 -----------------------------------------------------------------------------------
    total drift:                                0.015200      0.003918     -0.004876


--------------------------------------------------------------------------------------------------------



  FREE ENERGIE OF THE ION-ELECTRON SYSTEM (eV)
  ---------------------------------------------------
  free  energy   TOTEN  =      -943.96005876 eV

  energy  without entropy=     -943.82712424  energy(sigma->0) =     -943.89359150



--------------------------------------------------------------------------------------------------------


    POTLOK:  cpu time      2.1008: real time      2.1365


--------------------------------------------------------------------------------------------------------


     LOOP+:  cpu time   2254.3464: real time   2256.5954
    4ORBIT:  cpu time      0.0000: real time      0.0000



 total charge

# of ion       s       p       d       tot
------------------------------------------
    1        0.570   0.016   0.000   0.586
    2        0.577   0.017   0.000   0.594
    3        0.565   0.015   0.000   0.580
    4        0.561   0.016   0.000   0.577
    5        0.570   0.016   0.000   0.585
    6        0.611   0.020   0.000   0.631
    7        0.595   0.019   0.000   0.614
    8        0.595   0.021   0.000   0.616
    9        0.751   0.969   0.000   1.720
   10        0.762   0.909   0.000   1.670
   11        0.751   0.940   0.000   1.691
   12        0.758   0.904   0.000   1.661
   13        0.756   0.940   0.000   1.696
   14        0.756   0.961   0.000   1.717
   15        0.739   0.932   0.000   1.671
   16        0.768   0.895   0.000   1.663
   17        0.767   0.854   0.000   1.622
   18        0.746   0.970   0.000   1.716
   19        0.752   0.904   0.000   1.656
   20        0.756   0.920   0.000   1.675
   21        0.740   0.928   0.000   1.668
   22        0.747   0.910   0.000   1.657
   23        0.750   0.946   0.000   1.696
   24        0.771   0.830   0.000   1.601
   25        0.756   0.935   0.000   1.692
   26        0.750   0.947   0.000   1.697
   27        0.750   0.897   0.000   1.647
   28        0.752   0.951   0.000   1.703
   29        0.765   0.908   0.000   1.673
   30        0.768   0.878   0.000   1.645
   31        0.751   0.917   0.000   1.668
   32        0.754   0.926   0.000   1.680
   33        0.759   0.894   0.000   1.653
   34        0.754   0.914   0.000   1.668
   35        0.754   0.906   0.000   1.660
   36        0.756   0.919   0.000   1.675
   37        0.737   0.978   0.000   1.715
   38        0.754   0.933   0.000   1.687
   39        0.759   0.862   0.000   1.620
   40        0.755   0.985   0.000   1.740
   41        0.763   0.888   0.000   1.652
   42        0.766   0.940   0.000   1.706
   43        0.753   0.908   0.000   1.661
   44        0.743   0.895   0.000   1.638
   45        0.750   0.977   0.000   1.727
   46        0.747   1.019   0.000   1.766
   47        0.758   0.869   0.000   1.628
   48        0.747   0.903   0.000   1.649
   49        0.765   0.912   0.000   1.677
   50        0.752   0.941   0.000   1.693
   51        0.749   0.931   0.000   1.680
   52        0.760   0.887   0.000   1.647
   53        0.782   0.926   0.000   1.708
   54        0.742   0.959   0.000   1.701
   55        0.764   0.849   0.000   1.612
   56        0.743   0.929   0.000   1.672
   57        0.756   0.911   0.000   1.667
   58        0.755   0.986   0.000   1.741
   59        0.769   0.915   0.000   1.684
   60        0.747   0.936   0.000   1.683
   61        0.744   0.947   0.000   1.690
   62        0.761   0.898   0.000   1.659
   63        0.752   0.953   0.000   1.704
   64        0.753   0.979   0.000   1.732
   65        0.751   0.941   0.000   1.692
   66        0.758   0.928   0.000   1.686
   67        0.759   0.907   0.000   1.666
   68        0.754   0.957   0.000   1.711
   69        0.759   0.968   0.000   1.728
   70        0.751   0.974   0.000   1.726
   71        0.843   0.763   0.000   1.606
   72        0.752   0.919   0.000   1.671
   73        0.771   0.851   0.000   1.622
   74        0.760   0.858   0.000   1.618
   75        0.754   0.886   0.000   1.640
   76        0.766   0.853   0.000   1.619
   77        0.758   0.901   0.000   1.658
   78        0.754   0.888   0.000   1.642
   79        0.760   0.900   0.000   1.660
   80        0.755   0.930   0.000   1.685
   81        0.772   0.893   0.000   1.664
   82        0.757   0.942   0.000   1.699
   83        0.747   0.950   0.000   1.697
   84        0.748   0.963   0.000   1.712
   85        0.759   0.834   0.000   1.593
   86        0.776   0.854   0.000   1.630
   87        0.752   0.927   0.000   1.679
   88        0.766   0.882   0.000   1.648
   89        0.767   0.786   0.000   1.553
   90        0.765   0.884   0.000   1.649
   91        0.748   0.920   0.000   1.669
   92        0.757   0.948   0.000   1.705
   93        0.759   0.906   0.000   1.665
   94        0.764   0.858   0.000   1.622
   95        0.754   0.909   0.000   1.663
   96        0.751   0.941   0.000   1.692
   97        0.810   0.830   0.000   1.640
   98        0.747   0.919   0.000   1.666
   99        0.759   0.891   0.000   1.649
  100        0.755   0.902   0.000   1.657
  101        0.755   0.957   0.000   1.712
  102        0.747   0.916   0.000   1.663
  103        0.755   0.906   0.000   1.662
--------------------------------------------------
tot         76.585  87.001   0.000 163.586


 total amount of memory used by VASP MPI-rank0   197583. kBytes
=======================================================================

   base                                    :      30000. kBytes
   nonl-proj                               :      36702. kBytes
   fftplans                                :      42986. kBytes
   grid                                    :      33148. kBytes
   one-center                              :         21. kBytes
   wavefun                                 :      54726. kBytes

  
  
 General timing and accounting informations for this job:
 ========================================================
  
                  Total CPU time used (sec):     2325.436
                            User time (sec):     2318.002
                          System time (sec):        7.434
                         Elapsed time (sec):     2327.733
  
                   Maximum memory used (kb):      365412.
                   Average memory used (kb):          N/A
  
                          Minor page faults:       262476
                          Major page faults:         1138
                 Voluntary context switches:         2506
