144
Lattice="10.897179563541334 1.6425777130631533e-19 3.491881651845731e-19 3.1476515397956226e-18 10.897179563541334 3.46749033329344e-19 1.1927201796953991e-18 -1.0963364288534924e-18 40.50068233274114" Properties=species:S:1:pos:R:3:forces:R:3 energy=-13949.748067131935 free_energy=-13949.748067131935 stress="5.11179047664346e-06 0.0009531531407563389 -1.0464599075281297e-06 0.0009531531407563389 5.176731036653579e-06 1.0689404543105795e-06 -1.0464599075281297e-06 1.0689404543105795e-06 1.5185312835636579e-06" pbc="T T T"
H       -0.01240503       5.15498661      30.76427361       0.00032799      -0.00017080       0.00000571
H        1.53804489       3.66720203      31.71166556       0.00017941       0.00032988      -0.00036085
H        4.50573704       1.18624155      31.71167253      -0.00041802      -0.00027009      -0.00032533
H        3.01791585       2.73669318      30.76437292       0.00013104      -0.00038370      -0.00004545
H       10.42110128      -0.02005077      30.80374719      -0.00012236      -0.00001066      -0.00021991
H        8.78481583       1.46712103      31.69863306      -0.00011727       0.00012508       0.00041251
H        8.19293126       3.20037949      30.80375919       0.00009454       0.00014732      -0.00019700
H        6.70574329       4.83666791      31.69865137      -0.00002384       0.00011732       0.00039028
H        1.25715334      10.28525830      31.69865325      -0.00002120       0.00011510       0.00038881
H        2.74434115       8.64896893      30.80376103       0.00009511       0.00015134      -0.00019799
H        4.97251242       5.42853873      30.80374472      -0.00012429      -0.00000885      -0.00021873
H        3.33622525       6.91570811      31.69863162      -0.00011784       0.00012668       0.00041283
H        8.46650570       8.18528227      30.76437359       0.00012942      -0.00038211      -0.00004675
H        9.95432596       6.63483054      31.71167313      -0.00041471      -0.00027005      -0.00032882
H        6.98663465       9.11579171      31.71166685       0.00017819       0.00032599      -0.00036195
H        5.43618445      10.60357564      30.76427602       0.00032703      -0.00016988       0.00000217
Si       1.27171722       1.45304900      11.36641917      -0.00016231       0.00001253       0.00003491
Si       3.99563982       4.17690996      11.36635855       0.00019911      -0.00000224       0.00002735
Si      10.81073712       2.81165587      12.73527596      -0.00037490      -0.00031948      -0.00009375
Si       1.32993733       4.11927947      14.09295356      -0.00021579      -0.00009496      -0.00013983
Si       2.63738822       0.08682583      12.73516105       0.00008664      -0.00037664      -0.00011979
Si       4.05360435       1.39435521      14.09295122       0.00008844       0.00021227      -0.00013263
Si       6.71983567       1.45257547      11.36642144      -0.00001317       0.00016236       0.00002658
Si       9.44456355       4.17724432      11.36635640       0.00000310      -0.00020173       0.00003527
Si       5.36122751       2.81073489      12.73527522       0.00032206       0.00037790      -0.00008716
Si       6.77768403       4.11905541      14.09209321       0.00009954      -0.00001223       0.00019321
Si       8.08605738       0.08690385      12.73516273       0.00037440      -0.00008437      -0.00011603
Si       9.50241694       1.39519799      14.09209396       0.00001695      -0.00008838       0.00019227
Si      10.86444765       0.03290070      15.45816190       0.00013471       0.00010098      -0.00019503
Si       1.31449169       1.40907744      16.82309741      -0.00028469      -0.00015787      -0.00025671
Si       2.69167234       2.75659719      15.45914348      -0.00023578      -0.00002011       0.00028205
Si       4.03978057       4.13365491      16.82240004       0.00016500       0.00024960       0.00020994
Si      10.84764252       2.76968524      18.18827572       0.00011605      -0.00028680       0.00001358
Si       1.31628724       4.12969541      19.55095448      -0.00014007      -0.00011391       0.00020786
Si       2.67814550       0.04775742      18.18733129      -0.00038146       0.00044600       0.00016692
Si       4.04318871       1.40801028      19.55095809       0.00011470       0.00013709       0.00020365
Si       5.41628517       0.03262299      15.45914531       0.00002457       0.00022883       0.00027774
Si       6.76380568       1.40980317      16.82309945       0.00015397       0.00028811      -0.00026283
Si       8.13998168       2.75702517      15.45816170      -0.00009834      -0.00012874      -0.00019151
Si       9.48781738       4.13310294      16.82240039      -0.00024951      -0.00015901       0.00021133
Si       5.40319913       2.77383341      18.18827819       0.00028658      -0.00011769       0.00001355
Si       6.77041284       4.13076197      19.55431431      -0.00004461       0.00005702      -0.00010499
Si       8.12512857       0.04614953      18.18732977      -0.00044938       0.00038049       0.00015985
Si       9.49071394       1.40247207      19.55431141      -0.00005675       0.00003966      -0.00010073
Si       8.39753365       2.49955432      10.11710204       0.00005217      -0.00012949       0.00015795
Si       0.22462489       5.22392916      10.11633653       0.00011332      -0.00009486      -0.00023818
Si       5.67332902       5.22393770      10.11710200       0.00013528      -0.00004355       0.00015891
Si       2.94895607       2.49967049      10.11633755       0.00008617      -0.00012177      -0.00024073
Si      10.85614783       0.04325286      20.91974080       0.00010856       0.00005729      -0.00021084
Si       1.31855585       1.40967891      22.28455749      -0.00016990       0.00014406       0.00027248
Si       2.67914011       2.76853491      20.91527238      -0.00001719      -0.00003607       0.00022131
Si       4.04215599       4.12830966      22.28043335       0.00013121      -0.00004401      -0.00014869
Si      10.86713574       2.78609666      23.65004351      -0.00002827       0.00034061       0.00006454
Si       1.34474098       4.13843982      25.01987066      -0.00009747       0.00005054      -0.00031088
Si       2.67152564       0.03273425      23.64350519       0.00003391      -0.00000073      -0.00010678
Si       4.03444326       1.37955948      25.01986733      -0.00004965       0.00009112      -0.00032449
Si       5.40435539       0.04515519      20.91526861       0.00001905       0.00001080       0.00023259
Si       6.76321136       1.40573586      22.28455665      -0.00015517       0.00017744       0.00027483
Si       8.12963409       2.76532469      20.91973877      -0.00005694      -0.00009382      -0.00020597
Si       9.49316965       4.13072796      22.28042764       0.00002862      -0.00012467      -0.00010659
Si       5.38678903       2.75433618      23.65003665      -0.00035206       0.00004206       0.00006219
Si       6.74410990       4.12842913      25.00441076      -0.00015869       0.00008225       0.00036168
Si       8.14015305       0.05277143      23.64351248       0.00000745      -0.00005234      -0.00012637
Si       9.49304888       1.42876825      25.00442154      -0.00009822       0.00017657       0.00036081
Si      10.84428592       0.05791380      26.36319510      -0.00024066       0.00005710       0.00017245
Si       1.29990864       1.40473344      27.74696688      -0.00016921      -0.00042770      -0.00000424
Si       2.68221301       2.74953972      26.38472305       0.00001350       0.00010897      -0.00010995
Si       4.05467413       4.12364621      27.72311027       0.00020290       0.00025568      -0.00018857
Si      10.73156866       2.64008665      29.11716547      -0.00010594      -0.00009279      -0.00020137
Si       2.78812478       0.15419966      29.06701977      -0.00000910      -0.00011921       0.00012587
Si       5.42334396       0.04208600      26.38471278      -0.00013655      -0.00002397      -0.00008026
Si       6.76812978       1.42439835      27.74697146       0.00045213       0.00015505      -0.00002941
Si       8.11495213       2.77718262      26.36318252      -0.00003676       0.00026123       0.00021214
Si       9.49781976       4.11820449      27.72308333      -0.00024306      -0.00020637      -0.00008777
Si       5.53279065       2.88990882      29.11719589       0.00010142       0.00012244      -0.00025916
Si       8.01867594      -0.06381451      29.06701198       0.00015484       0.00000695       0.00010203
Si       7.06002496       4.10807913      30.44580508       0.00036641      -0.00029482      -0.00087008
Si       9.51340608       1.11285897      30.44578621       0.00026876      -0.00034987      -0.00082969
Si       1.03682194       4.17046631      30.40034595       0.00002296      -0.00026551       0.00090046
Si       4.00241743       1.68746967      30.40037697       0.00029647      -0.00002791       0.00088619
Si       1.27124587       6.90116527      11.36642147      -0.00001319       0.00016238       0.00002643
Si       3.99597374       9.62583410      11.36635642       0.00000325      -0.00020186       0.00003513
Si      10.80981732       8.25932469      12.73527527       0.00032181       0.00037775      -0.00008749
Si       1.32909425       9.56764524      14.09209318       0.00009954      -0.00001253       0.00019328
Si       2.63746760       5.53549363      12.73516268       0.00037426      -0.00008436      -0.00011572
Si       4.05382715       6.84378775      14.09209392       0.00001719      -0.00008855       0.00019255
Si       6.72030698       6.90163879      11.36641916      -0.00016210       0.00001248       0.00003501
Si       9.44422961       9.62549973      11.36635857       0.00019906      -0.00000219       0.00002727
Si       5.36214732       8.26024568      12.73527597      -0.00037481      -0.00031960      -0.00009388
Si       6.77852712       9.56786923      14.09295358      -0.00021584      -0.00009474      -0.00014021
Si       8.08597802       5.53541563      12.73516106       0.00008641      -0.00037677      -0.00011976
Si       9.50219409       6.84294508      14.09295127       0.00008866       0.00021162      -0.00013300
Si      10.86487481       5.48121271      15.45914531       0.00002524       0.00022909       0.00027767
Si       1.31521589       6.85839287      16.82309939       0.00015370       0.00028859      -0.00026244
Si       2.69139186       8.20561494      15.45816159      -0.00009815      -0.00012897      -0.00019083
Si       4.03922770       9.58169266      16.82240024      -0.00025019      -0.00015873       0.00021268
Si      10.85178878       8.22242315      18.18827810       0.00028805      -0.00011711       0.00001477
Si       1.32182306       9.57935161      19.55431461      -0.00004460       0.00005797      -0.00010659
Si       2.67653868       5.49473924      18.18732988      -0.00044842       0.00038117       0.00015862
Si       4.04212409       6.85106175      19.55431155      -0.00005648       0.00004041      -0.00010162
Si       5.41585788       5.48149051      15.45816196       0.00013444       0.00010034      -0.00019526
Si       6.76308161       6.85766717      16.82309742      -0.00028599      -0.00015730      -0.00025697
Si       8.14026209       8.20518701      15.45914351      -0.00023576      -0.00002036       0.00028160
Si       9.48837032       9.58224473      16.82239989       0.00016536       0.00024930       0.00021106
Si       5.39905275       8.21827484      18.18827570       0.00011615      -0.00028564       0.00001431
Si       6.76487699       9.57828528      19.55095451      -0.00014016      -0.00011437       0.00020783
Si       8.12673523       5.49634723      18.18733131      -0.00038052       0.00044662       0.00016643
Si       9.49177844       6.85659993      19.55095808       0.00011530       0.00013853       0.00020384
Si       8.39754586       7.94826025      10.11633752       0.00008620      -0.00012163      -0.00024049
Si       5.67321463      10.67251893      10.11633655       0.00011339      -0.00009486      -0.00023828
Si       0.22473925      10.67252748      10.11710199       0.00013515      -0.00004363       0.00015900
Si       2.94894386       7.94814410      10.11710205       0.00005211      -0.00012950       0.00015794
Si       8.23671462       5.60278905      29.06701891      -0.00000663      -0.00011590       0.00012624
Si       1.31462155       6.85432587      22.28455669      -0.00015410       0.00017581       0.00027437
Si       2.68104454       8.21391444      20.91973919      -0.00005853      -0.00009339      -0.00020943
Si       4.04457967       9.57931781      22.28042802       0.00002995      -0.00012510      -0.00010954
Si      10.83537932       8.20292640      23.65003652      -0.00035483       0.00003947       0.00006311
Si       1.29552037       9.57701896      25.00441067      -0.00016090       0.00008235       0.00036427
Si       2.69156343       5.50136167      23.64351239       0.00000742      -0.00005526      -0.00012605
Si       4.04445922       6.87735848      25.00442142      -0.00009940       0.00017513       0.00036140
Si       5.40755808       5.49184242      20.91974057       0.00010787       0.00005869      -0.00020898
Si       6.76714526       6.85826890      22.28455732      -0.00016704       0.00014248       0.00027369
Si       8.12773001       8.21712473      20.91527246      -0.00001820      -0.00003619       0.00022031
Si       9.49074592       9.57689940      22.28043348       0.00013003      -0.00004327      -0.00014987
Si       5.41854585       8.23468678      23.65004345      -0.00002681       0.00033877       0.00006505
Si       6.79333012       9.58702991      25.01987087      -0.00009341       0.00004871      -0.00031029
Si       8.12011549       5.48132432      23.64350509       0.00003404      -0.00000258      -0.00010651
Si       9.48303355       6.82814975      25.01986718      -0.00005353       0.00008866      -0.00032343
Si      10.87193390       5.49067536      26.38471246      -0.00013652      -0.00002061      -0.00008041
Si       1.31953950       6.87298882      27.74697106       0.00045292       0.00015450      -0.00002811
Si       2.66636251       8.22577278      26.36318241      -0.00003677       0.00026105       0.00021481
Si       4.04922976       9.56679486      27.72308375      -0.00024311      -0.00020817      -0.00008579
Si      10.98138086       8.33849928      29.11719732       0.00009909       0.00011845      -0.00026261
Si       2.57008652       5.38477508      29.06700993       0.00015439       0.00000873       0.00010500
Si       5.39569609       5.50650400      26.36319488      -0.00023843       0.00005603       0.00017078
Si       6.74849845       6.85332359      27.74696664      -0.00016881      -0.00042701      -0.00000454
Si       8.13080300       8.19813015      26.38472312       0.00001501       0.00010796      -0.00010861
Si       9.50326375       9.57223653      27.72311174       0.00020331       0.00025402      -0.00019011
Si       5.28297878       8.08867673      29.11716543      -0.00010337      -0.00009199      -0.00020102
Si       4.06481637       6.56144808      30.44578475       0.00026802      -0.00034824      -0.00082773
Si      10.85294557       5.49374512      20.91526843       0.00001619       0.00000980       0.00023392
Si       1.61143552       9.55666957      30.44580695       0.00036223      -0.00029841      -0.00087280
Si       9.45100721       7.13605879      30.40037704       0.00029386      -0.00002561       0.00088882
Si       6.48541119       9.61905556      30.40034733       0.00002444      -0.00026435       0.00090021
