144
Lattice="10.830685874383825 -1.886854574867141e-18 3.201247974460064e-19 -4.413985739303456e-19 10.830685874383825 -5.05223245907014e-20 -7.103587661149409e-19 -1.8385484105139568e-19 40.253550516162505" Properties=species:S:1:pos:R:3:forces:R:3:energies:R:1 energy=-793.008471013675 free_energy=-793.008471013675 stress="1.2636361701729849e-06 0.0006347209740030714 2.6402533784750762e-06 0.0006347209740030714 1.2636365360510247e-06 -2.640254220001009e-06 2.6402533784750762e-06 -2.640254220001009e-06 4.184086061453079e-06" pbc="T T T"
H        0.06335964       5.35198329      30.45226331       0.00001305      -0.00001304      -0.00015924      -2.32530439
H        1.51465097       3.90069196      31.57673242       0.00050228      -0.00050226       0.00025600      -2.96975416
H        4.22280866       1.19253428      31.57931551       0.00027464      -0.00027464      -0.00002884      -2.97149661
H        2.77107149       2.64427145      30.45501183       0.00020500      -0.00020501       0.00024046      -2.32705914
H       10.69942537       0.13126051      30.45188973      -0.00014947       0.00014946       0.00035917      -2.32515042
H        9.24809699       1.58258888      31.57667456      -0.00030730       0.00030729       0.00046638      -2.96983369
H        7.99165000       2.83903587      30.45475324      -0.00001108       0.00001108       0.00019027      -2.32700845
H        6.53995818       4.29072770      31.57902381      -0.00039131       0.00039131       0.00055220      -2.97139917
H        1.12461524       9.70607064      31.57902381      -0.00039130       0.00039130       0.00055219      -2.97139917
H        2.57630707       8.25437881      30.45475324      -0.00001108       0.00001108       0.00019028      -2.32700845
H        5.28408243       5.54660345      30.45188973      -0.00014944       0.00014945       0.00035916      -2.32515043
H        3.83275406       6.99793182      31.57667456      -0.00030731       0.00030732       0.00046641      -2.96983369
H        8.18641442       8.05961439      30.45501183       0.00020501      -0.00020500       0.00024046      -2.32705914
H        9.63815160       6.60787721      31.57931551       0.00027464      -0.00027464      -0.00002885      -2.97149661
H        6.92999391       9.31603490      31.57673242       0.00050227      -0.00050229       0.00025601      -2.96975416
H        5.47870258      10.76732623      30.45226331       0.00001303      -0.00001304      -0.00015924      -2.32530440
Si       1.25515249       1.45089708      11.28349744      -0.00003429      -0.00058220      -0.00007233      -5.61355870
Si       3.96444586       4.16019047      11.28349744       0.00058217       0.00003422      -0.00007239      -5.61355872
Si      10.79665236       2.74177306      12.77313000      -0.00055852       0.00048236       0.00011280      -5.93870756
Si       1.32023397       4.09510898      14.11095224       0.00047365      -0.00047375      -0.00017655      -5.77087978
Si       2.67364304       0.03417999      12.54101581      -0.00052781      -0.00013579       0.00025398      -5.79224339
Si       4.02739434       1.38794860      13.93349149       0.00054760      -0.00054763      -0.00054122      -5.87981869
Si       6.79788765       1.32318946      11.28350484      -0.00025270       0.00001640       0.00043216      -5.61352720
Si       9.50749643       4.03279824      11.28350482      -0.00001638       0.00025268       0.00043221      -5.61352723
Si       5.38116294       2.74169991      12.54101579       0.00013588       0.00052773       0.00025402      -5.79224339
Si       6.73487651       4.09580937      13.93328089       0.00002752      -0.00002753       0.00017222      -5.87989974
Si       8.08891281       0.03403351      12.77313000      -0.00048233       0.00055856       0.00011279      -5.93870755
Si       9.44207801       1.38860785      14.11083402       0.00044288      -0.00044281       0.00055283      -5.77096762
Si      10.82767419       0.00301168      15.37093736      -0.00032871       0.00032874      -0.00052089      -5.84542554
Si       1.33825297       1.36914386      16.72647395      -0.00012831      -0.00021948      -0.00010151      -5.86020863
Si       2.70546639       2.70987655      15.37169288      -0.00021819       0.00021816      -0.00017504      -5.84487312
Si       4.04619908       4.07708997      16.72647394       0.00021947       0.00012826      -0.00010145      -5.86020863
Si      10.79647020       2.74183432      18.05532624      -0.00031690       0.00057217       0.00017651      -5.86379986
Si       1.31709431       4.09824862      19.41569451      -0.00034724       0.00034725       0.00024490      -5.85801902
Si       2.67346918       0.03420906      18.10588173      -0.00012066      -0.00034379      -0.00049752      -5.84894802
Si       4.02462704       1.39071589      19.45316247       0.00028695      -0.00028693       0.00016071      -5.85507672
Si       5.34998805       0.06535488      15.37092237       0.00006724      -0.00006718       0.00035541      -5.84532535
Si       6.71606133       1.40670506      16.72641881       0.00073180      -0.00053922       0.00022086      -5.86030846
Si       8.05683714       2.77384873      15.37154187      -0.00037171       0.00037172      -0.00002826      -5.84487024
Si       9.42398082       4.11462454      16.72641882       0.00053923      -0.00073177       0.00022082      -5.86030846
Si       5.38113387       2.74187376      18.10588173       0.00034383       0.00012067      -0.00049751      -5.84894802
Si       6.73771901       4.09296687      19.45321368       0.00010519      -0.00010518       0.00020060      -5.85520182
Si       8.08885156       0.03421568      18.05532624      -0.00057219       0.00031687       0.00017656      -5.86379986
Si       9.44526640       1.38541948      19.41578299      -0.00017817       0.00017816      -0.00013841      -5.85795493
Si       8.63532889       2.19535699      10.18393429      -0.00018747       0.00018745      -0.00041750      -4.80419435
Si       0.51033000       4.90501293      10.17635887       0.00023991      -0.00023991       0.00003772      -4.79968790
Si       4.83679882       5.99388707      10.17668673      -0.00016651       0.00016649       0.00011548      -4.79979959
Si       2.12717991       3.28816304      10.18348209       0.00017528      -0.00017532       0.00008450      -4.80406633
Si      10.79244545       0.03824043      20.78805074       0.00013750      -0.00013754      -0.00026563      -5.85759815
Si       1.31571951       1.39192987      22.14175003      -0.00003958      -0.00032014       0.00027723      -5.85760952
Si       2.66346939       2.75187354      20.78811940      -0.00015195       0.00015200       0.00029856      -5.85743784
Si       4.02341306       4.09962341      22.14175004       0.00032017       0.00003966       0.00027719      -5.85760953
Si      10.79658555       2.74177151      23.50052673      -0.00039924       0.00023852       0.00005362      -5.85601513
Si       1.33931618       4.07602676      24.85170695       0.00021728      -0.00021726       0.00020297      -5.86662912
Si       2.67347733       0.03410943      23.48930685       0.00043316       0.00048763      -0.00004329      -5.85850374
Si       4.04693660       1.36840633      24.84320976       0.00008510      -0.00008512       0.00039458      -5.86713269
Si       5.38523152       0.03011142      20.78803453       0.00037124      -0.00037129      -0.00002842      -5.85768525
Si       6.73894318       1.38399536      22.14185876       0.00026487      -0.00027571      -0.00033368      -5.85760806
Si       8.09891579       2.73177009      20.78826719      -0.00017949       0.00017946      -0.00041347      -5.85750833
Si       9.44669052       4.09174269      22.14185875       0.00027569      -0.00026488      -0.00033367      -5.85760805
Si       5.38123352       2.74186560      23.48930685      -0.00048767      -0.00043312      -0.00004329      -5.85850374
Si       6.71558606       4.11509982      24.84331199       0.00012395      -0.00012395      -0.00028841      -5.86700483
Si       8.08891436       0.03410032      23.50052674      -0.00023851       0.00039924       0.00005358      -5.85601513
Si       9.42319489       1.40749098      24.85177499       0.00030033      -0.00030033      -0.00030553      -5.86673561
Si      10.77622599       0.05445988      26.20028457      -0.00047515       0.00047517      -0.00011776      -5.96401750
Si       1.32074747       1.38696248      27.55646732       0.00014797      -0.00012572       0.00054286      -6.30702907
Si       2.69731594       2.71802700      26.20027542      -0.00019917       0.00019913      -0.00022671      -5.96406124
Si       4.02838046       4.09459548      27.55646732       0.00012571      -0.00014800       0.00054286      -6.30702907
Si      10.79663030       2.74170137      28.91337343       0.00027655       0.00011857      -0.00052479      -6.19334257
Si       2.67367493       0.03409388      28.91636779      -0.00010166      -0.00019198      -0.00019271      -6.19292333
Si       5.40171396       0.01362897      26.20028147      -0.00036675       0.00036675      -0.00069875      -5.96402987
Si       6.73419085       1.38884333      27.55648780      -0.00035833      -0.00020033       0.00046434      -6.30699374
Si       8.06522623       2.76545964      26.20034029       0.00015663      -0.00015663      -0.00024560      -5.96406172
Si       9.44184254       4.09649503      27.55648780       0.00020034       0.00035833       0.00046433      -6.30699374
Si       5.38124906       2.74166801      28.91636779       0.00019200       0.00010164      -0.00019270      -6.19292333
Si       8.08898450       0.03405558      28.91337342      -0.00011855      -0.00027653      -0.00052478      -6.19334257
Si       6.95124316       3.87944272      30.21796833      -0.00016392       0.00016393      -0.00017868      -6.40133231
Si       9.65894882       1.17173705      30.21536193      -0.00030360       0.00030363      -0.00053973      -6.40100663
Si       1.10380655       4.31153639      30.21540700      -0.00017319       0.00017315      -0.00026822      -6.40110101
Si       3.81149177       1.60385116      30.21825174      -0.00011809       0.00011809      -0.00065930      -6.40117259
Si       1.38254469       6.73853237      11.28350484      -0.00025271       0.00001645       0.00043215      -5.61352721
Si       4.09215349       9.44814117      11.28350486      -0.00001646       0.00025273       0.00043210      -5.61352718
Si      10.79650587       8.15704284      12.54101579       0.00013585       0.00052776       0.00025400      -5.79224339
Si       1.31953359       9.51115228      13.93328091       0.00002742      -0.00002741       0.00017217      -5.87989974
Si       2.67356988       5.44937646      12.77313001      -0.00048244       0.00055845       0.00011278      -5.93870755
Si       4.02673509       6.80395080      14.11083401       0.00044281      -0.00044288       0.00055289      -5.77096760
Si       6.67049541       6.86624004      11.28349743      -0.00003424      -0.00058220      -0.00007242      -5.61355875
Si       9.37978877       9.57553338      11.28349743       0.00058223       0.00003432      -0.00007236      -5.61355873
Si       5.38130942       8.15711599      12.77313001      -0.00055849       0.00048241       0.00011276      -5.93870754
Si       6.73557690       9.51045190      14.11095223       0.00047375      -0.00047364      -0.00017649      -5.77087978
Si       8.08898596       5.44952295      12.54101578      -0.00052767      -0.00013593       0.00025404      -5.79224338
Si       9.44273726       6.80329154      13.93349148       0.00054770      -0.00054767      -0.00054120      -5.87981870
Si      10.76533098       5.48069784      15.37092237       0.00006724      -0.00006730       0.00035538      -5.84532536
Si       1.30071840       6.82204800      16.72641881       0.00073173      -0.00053931       0.00022087      -5.86030845
Si       2.64149422       8.18919165      15.37154186      -0.00037182       0.00037181      -0.00002821      -5.84487023
Si       4.00863787       9.52996748      16.72641881       0.00053930      -0.00073176       0.00022091      -5.86030845
Si      10.79647681       8.15721669      18.10588173       0.00034379       0.00012065      -0.00049751      -5.84894802
Si       1.32237606       9.50830981      19.45321368       0.00010526      -0.00010526       0.00020062      -5.85520181
Si       2.67350861       5.44955861      18.05532623      -0.00057211       0.00031692       0.00017659      -5.86379986
Si       4.02992345       6.80076242      19.41578298      -0.00017814       0.00017815      -0.00013832      -5.85795494
Si       5.41233125       5.41835463      15.37093735      -0.00032865       0.00032862      -0.00052081      -5.84542553
Si       6.75359591       6.78448680      16.72647394      -0.00012829      -0.00021949      -0.00010141      -5.86020863
Si       8.12080932       8.12521949      15.37169287      -0.00021812       0.00021815      -0.00017500      -5.84487312
Si       9.46154201       9.49243290      16.72647395       0.00021951       0.00012834      -0.00010147      -5.86020863
Si       5.38112726       8.15717726      18.05532623      -0.00031689       0.00057212       0.00017664      -5.86379987
Si       6.73243725       9.51359156      19.41569450      -0.00034726       0.00034724       0.00024493      -5.85801902
Si       8.08881212       5.44955201      18.10588173      -0.00012066      -0.00034383      -0.00049750      -5.84894802
Si       9.43996999       6.80605883      19.45316247       0.00028689      -0.00028691       0.00016071      -5.85507672
Si       7.54252286       8.70350594      10.18348202       0.00017534      -0.00017531       0.00008451      -4.80406627
Si       5.92567297      10.32035584      10.17635896       0.00023987      -0.00023986       0.00003764      -4.79968796
Si      -0.57854414      11.40923001      10.17668677      -0.00016649       0.00016651       0.00011554      -4.79979963
Si       3.21998597       7.61069990      10.18393435      -0.00018749       0.00018751      -0.00041756      -4.80419439
Si       8.08901786       5.44943682      28.91636779      -0.00010161      -0.00019201      -0.00019269      -6.19292333
Si       1.32360024       6.79933829      22.14185876       0.00026492      -0.00027567      -0.00033368      -5.85760806
Si       2.68357284       8.14711303      20.78826719      -0.00017939       0.00017942      -0.00041345      -5.85750834
Si       4.03134758       9.50708563      22.14185876       0.00027569      -0.00026491      -0.00033370      -5.85760806
Si      10.79657645       8.15720854      23.48930685      -0.00048766      -0.00043313      -0.00004328      -5.85850374
Si       1.30024313       9.53044275      24.84331199       0.00012392      -0.00012391      -0.00028841      -5.86700483
Si       2.67357142       5.44944326      23.50052674      -0.00023853       0.00039924       0.00005357      -5.85601513
Si       4.00785196       6.82283392      24.85177500       0.00030032      -0.00030032      -0.00030560      -5.86673561
Si       5.37710251       5.45358336      20.78805074       0.00013752      -0.00013748      -0.00026567      -5.85759816
Si       6.73106246       6.80727281      22.14175004      -0.00003964      -0.00032014       0.00027717      -5.85760953
Si       8.07881234       8.16721648      20.78811941      -0.00015203       0.00015197       0.00029854      -5.85743785
Si       9.43875600       9.51496637      22.14175003       0.00032011       0.00003956       0.00027721      -5.85760953
Si       5.38124262       8.15711445      23.50052675      -0.00039924       0.00023852       0.00005353      -5.85601513
Si       6.75465912       9.49136970      24.85170696       0.00021726      -0.00021728       0.00020295      -5.86662911
Si       8.08882027       5.44945236      23.48930685       0.00043310       0.00048770      -0.00004329      -5.85850374
Si       9.46227954       6.78374927      24.84320976       0.00008513      -0.00008512       0.00039458      -5.86713269
Si      10.81705690       5.42897191      26.20028147      -0.00036674       0.00036674      -0.00069875      -5.96402987
Si       1.31884791       6.80418627      27.55648780      -0.00035836      -0.00020034       0.00046434      -6.30699374
Si       2.64988330       8.18080258      26.20034029       0.00015662      -0.00015662      -0.00024561      -5.96406171
Si       4.02649960       9.51183796      27.55648780       0.00020033       0.00035836       0.00046435      -6.30699374
Si      10.79659200       8.15701095      28.91636779       0.00019198       0.00010163      -0.00019270      -6.19292333
Si       2.67364157       5.44939852      28.91337342      -0.00011860      -0.00027657      -0.00052477      -6.19334257
Si       5.36088306       5.46980282      26.20028458      -0.00047517       0.00047514      -0.00011779      -5.96401749
Si       6.73609040       6.80230542      27.55646732       0.00014800      -0.00012572       0.00054285      -6.30702906
Si       8.11265888       8.13336993      26.20027543      -0.00019912       0.00019916      -0.00022673      -5.96406124
Si       9.44372339       9.50993841      27.55646732       0.00012574      -0.00014797       0.00054285      -6.30702907
Si       5.38128736       8.15704431      28.91337342       0.00027655       0.00011858      -0.00052476      -6.19334257
Si       4.24360588       6.58707999      30.21536193      -0.00030362       0.00030360      -0.00053971      -6.40100663
Si      10.80057446       5.44545435      20.78803453       0.00037126      -0.00037121      -0.00002843      -5.85768524
Si       1.53590022       9.29478565      30.21796833      -0.00016393       0.00016392      -0.00017870      -6.40133231
Si       9.22683471       7.01919410      30.21825174      -0.00011809       0.00011810      -0.00065930      -6.40117259
Si       6.51914948       9.72687932      30.21540700      -0.00017316       0.00017320      -0.00026820      -6.40110101
