 vasp.6.5.0 16Dec24 (build Jan 20 2025 08:32:48) complex                         
 executed on        HPECrayEX_GCC date 2025.07.22  05:26:42
 running  128 mpi-ranks, with    1 threads/rank, on    1 nodes
 distrk:  each k-point on  128 cores,    1 groups
 distr:  one band on NCORE=  16 cores,    8 groups


--------------------------------------------------------------------------------------------------------


 INCAR:
   SYSTEM = a-Si SPC
   NCORE = 16
   ISTART = 1
   ICHARG = 1
   ISPIN = 1
   ISYM = 1
   EDIFF = 1E-6
   NELM = 150
   EDIFFG = -0.01
   NSW = 0
   ISIF = 2
   IBRION = -1
   PREC = Accurate
   ENCUT = 1200
   KSPACING = 0.23
   KGAMMA = .TRUE.
   METAGGA = SCAN
   LASPH = .TRUE.
   LDIAG = .FALSE.
   LMIXTAU = .TRUE.
   ADDGRID = .TRUE.
   ALGO = Normal
   ISMEAR = 0
   SIGMA = 0.1
   LORBIT = 11
   NEDOS = 2000
   LWAVE = .FALSE.
   LCHARG = .FALSE.

 POTCAR:    PAW_PBE H 15Jun2001                   
 POTCAR:    PAW_PBE Si 05Jan2001                  
 POTCAR:    PAW_PBE H 15Jun2001                   
   SHA256 =  030f79b5d3ab3cf0e668861823c8fb652ff669f3e15e46930bd03bfd63a607b6 H/POTCAR              
   COPYR  = (c) Copyright 15Jun2001 Georg Kresse                                                    
   COPYR  = This file is part of the software VASP. Any use, copying, and all other rights are regul
   COPYR  = If you do not have a valid VASP license, you may not use, copy or distribute this file. 
   VRHFIN =H: ultrasoft test                                                                        
   LEXCH  = PE                                                                                      
   EATOM  =    12.4884 eV,    0.9179 Ry                                                             
                                                                                                    
   TITEL  = PAW_PBE H 15Jun2001                                                                     
   LULTRA =        F    use ultrasoft PP ?                                                          
   IUNSCR =        0    unscreen: 0-lin 1-nonlin 2-no                                               
   RPACOR =    0.000    partial core radius                                                         
   POMASS =    1.000; ZVAL   =    1.000    mass and valenz                                          
   RCORE  =    1.100    outmost cutoff radius                                                       
   RWIGS  =    0.700; RWIGS  =    0.370    wigner-seitz radius (au A)                               
   ENMAX  =  250.000; ENMIN  =  200.000 eV                                                          
   RCLOC  =    0.701    cutoff for local pot                                                        
   LCOR   =        T    correct aug charges                                                         
   LPAW   =        T    paw PP                                                                      
   EAUG   =  400.000                                                                                
   RMAX   =    1.123    core radius for proj-oper                                                   
   RAUG   =    1.200    factor for augmentation sphere                                              
   RDEP   =    1.112    radius for radial grids                                                     
   RDEPT  =    0.926    core radius for aug-charge                                                  
                                                                                                    
   Atomic configuration                                                                             
    2 entries                                                                                       
     n  l   j            E        occ.                                                              
     1  0  0.50        -6.4927   1.0000                                                             
     2  1  0.50        -3.4015   0.0000                                                             
   Description                                                                                      
     l       E           TYP  RCUT    TYP  RCUT                                                     
     0     -6.4927494     23  1.100                                                                 
     0      6.8029130     23  1.100                                                                 
     1     -4.0817478     23  1.100                                                                 
  local pseudopotential read in
  atomic valenz-charges read in
  non local Contribution for L=           0  read in
    real space projection operators read in
  non local Contribution for L=           0  read in
    real space projection operators read in
  non local Contribution for L=           1  read in
    real space projection operators read in
    PAW grid and wavefunctions read in

   number of l-projection  operators is LMAX  =           3
   number of lm-projection operators is LMMAX =           5

 POTCAR:    PAW_PBE Si 05Jan2001                  
   SHA256 =  79d9987ad8750f624c4d6acb2a16d13abf6a777132adc04dc6c8399be72b42bb Si/POTCAR             
   COPYR  = (c) Copyright 05Jan2001 Georg Kresse                                                    
   COPYR  = This file is part of the software VASP. Any use, copying, and all other rights are regul
   COPYR  = If you do not have a valid VASP license, you may not use, copy or distribute this file. 
   VRHFIN =Si: s2p2                                                                                 
   LEXCH  = PE                                                                                      
   EATOM  =   103.0669 eV,    7.5752 Ry                                                             
                                                                                                    
   TITEL  = PAW_PBE Si 05Jan2001                                                                    
   LULTRA =        F    use ultrasoft PP ?                                                          
   IUNSCR =        1    unscreen: 0-lin 1-nonlin 2-no                                               
   RPACOR =    1.500    partial core radius                                                         
   POMASS =   28.085; ZVAL   =    4.000    mass and valenz                                          
   RCORE  =    1.900    outmost cutoff radius                                                       
   RWIGS  =    2.480; RWIGS  =    1.312    wigner-seitz radius (au A)                               
   ENMAX  =  245.345; ENMIN  =  184.009 eV                                                          
   ICORE  =        2    local potential                                                             
   LCOR   =        T    correct aug charges                                                         
   LPAW   =        T    paw PP                                                                      
   EAUG   =  322.069                                                                                
   DEXC   =    0.000                                                                                
   RMAX   =    1.950    core radius for proj-oper                                                   
   RAUG   =    1.300    factor for augmentation sphere                                              
   RDEP   =    1.993    radius for radial grids                                                     
   RDEPT  =    1.837    core radius for aug-charge                                                  
                                                                                                    
   Atomic configuration                                                                             
    6 entries                                                                                       
     n  l   j            E        occ.                                                              
     1  0  0.50     -1785.8828   2.0000                                                             
     2  0  0.50      -139.4969   2.0000                                                             
     2  1  1.50       -95.5546   6.0000                                                             
     3  0  0.50       -10.8127   2.0000                                                             
     3  1  0.50        -4.0811   2.0000                                                             
     3  2  1.50        -4.0817   0.0000                                                             
   Description                                                                                      
     l       E           TYP  RCUT    TYP  RCUT                                                     
     0    -10.8127223     23  1.900                                                                 
     0     -7.6451159     23  1.900                                                                 
     1     -4.0811372     23  1.900                                                                 
     1      2.4879257     23  1.900                                                                 
     2     -4.0817478      7  1.900                                                                 
  local pseudopotential read in
  partial core-charges read in
  partial kinetic energy density read in
  atomic valenz-charges read in
  non local Contribution for L=           0  read in
    real space projection operators read in
  non local Contribution for L=           0  read in
    real space projection operators read in
  non local Contribution for L=           1  read in
    real space projection operators read in
  non local Contribution for L=           1  read in
    real space projection operators read in
    PAW grid and wavefunctions read in

   number of l-projection  operators is LMAX  =           4
   number of lm-projection operators is LMMAX =           8

 -----------------------------------------------------------------------------
|                                                                             |
|               ----> ADVICE to this user running VASP <----                  |
|                                                                             |
|     You have a (more or less) 'large supercell' and for larger cells it     |
|     might be more efficient to use real-space projection operators.         |
|     Therefore, try LREAL= Auto in the INCAR file.                           |
|     Mind: For very accurate calculation, you might also keep the            |
|     reciprocal projection scheme (i.e. LREAL=.FALSE.).                      |
|                                                                             |
 -----------------------------------------------------------------------------

 -----------------------------------------------------------------------------
|                                                                             |
|               ----> ADVICE to this user running VASP <----                  |
|                                                                             |
|     You enforced a specific xc type in the INCAR file but a different       |
|     type was found in the POTCAR file.                                      |
|     I HOPE YOU KNOW WHAT YOU ARE DOING!                                     |
|                                                                             |
 -----------------------------------------------------------------------------

  PAW_PBE H 15Jun2001                   :
 energy of atom  1       EATOM=  -12.4884
 kinetic energy error for atom=    0.0000 (will be added to EATOM!!)
  PAW_PBE Si 05Jan2001                  :
 energy of atom  2       EATOM= -103.0669
 kinetic energy error for atom=    0.0001 (will be added to EATOM!!)


 POSCAR:  H Si
  positions in cartesian coordinates
  No initial velocities read in


 exchange-correlation table for SCAN
   RHO(1)=    0.500       N(1)  =     2000
   RHO(2)=  100.500       N(2)  =     4000



--------------------------------------------------------------------------------------------------------


 ion  position               nearest neighbor table
   1  0.701  0.978  0.545-  29 1.45
   2  0.722  0.142  0.467-  11 0.79
   3  0.624  0.942  0.458-  56 1.53
   4  0.930  0.035  0.399-  44 1.44
   5  0.966  0.830  0.424-  36 1.51
   6  0.590  0.050  0.399-
   7  0.925  0.934  0.498-  38 1.42
   8  0.597  0.070  0.479-  16 1.42
   9  0.836  0.859  0.428-
  10  0.803  0.128  0.552-  33 1.46
  11  0.733  0.195  0.464-   2 0.79
  12  0.855  0.080  0.476-  44 1.46
  13  0.583  0.609  0.450-  28 2.21  62 2.24  26 2.36
  14  0.336  0.818  0.539-  58 2.22  43 2.25  24 2.27  46 2.34
  15  0.074  0.073  0.493-  59 2.31  18 2.33  44 2.33  71 2.33
  16  0.515  0.114  0.498-   8 1.42  19 2.24  30 2.29  57 2.32
  17  0.258  0.581  0.579-  43 2.29  35 2.30
  18  0.148  0.029  0.415-  15 2.33  66 2.36  32 2.49
  19  0.535  0.259  0.471-  16 2.24  45 2.33  21 2.38
  20  0.927  0.625  0.439-  69 2.29  36 2.33  34 2.43
  21  0.644  0.361  0.510-  53 2.30  28 2.30  19 2.38  47 2.47
  22  0.630  0.663  0.581-  25 2.41  54 2.52  65 2.56
  23  0.285  0.264  0.404-  32 2.25  45 2.36  41 2.40
  24  0.184  0.846  0.527-  59 2.23  14 2.27  42 2.30  66 2.34
  25  0.509  0.550  0.578-  62 2.26  53 2.35  22 2.41
  26  0.689  0.730  0.443-  56 2.29  34 2.31  13 2.36
  27  0.983  0.252  0.425-  63 2.26  41 2.36  44 2.45
  28  0.676  0.491  0.462-  13 2.21  65 2.23  21 2.30  49 2.39
  29  0.703  0.910  0.586-   1 1.45  54 2.51  40 2.51
  30  0.504  0.139  0.587-  16 2.29  67 2.34
  31  0.392  0.459  0.435-  45 2.30  48 2.31  62 2.44
  32  0.297  0.111  0.411-  23 2.25  57 2.26  18 2.49
  33  0.783  0.197  0.593-  10 1.46  47 2.45
  34  0.809  0.685  0.498-  40 2.22  65 2.28  26 2.31  20 2.43
  35  0.205  0.443  0.548-  17 2.30  37 2.38  39 2.46  50 2.47
  36  0.021  0.754  0.449-   5 1.51  55 2.25  42 2.26  20 2.33
  37  0.323  0.330  0.555-  64 2.27  45 2.31  67 2.35  35 2.38
  38  0.933  0.879  0.545-   7 1.42  40 2.24  42 2.30
  39  0.145  0.441  0.456-  41 2.31  48 2.35  69 2.43  35 2.46
  40  0.816  0.785  0.564-  34 2.22  38 2.24  29 2.51
  41  0.138  0.283  0.446-  39 2.31  27 2.36  23 2.40  71 2.44
  42  0.046  0.770  0.537-  36 2.26  38 2.30  24 2.30  60 2.34
  43  0.333  0.668  0.517-  14 2.25  17 2.29  68 2.30  62 2.30
  44  0.939  0.093  0.445-   4 1.44  12 1.46  15 2.33  27 2.45
  45  0.385  0.315  0.471-  31 2.30  37 2.31  19 2.33  23 2.36
  46  0.437  0.881  0.601-  14 2.34  54 2.40
  47  0.805  0.331  0.535-  51 2.35  63 2.41  33 2.45  21 2.47
  48  0.254  0.513  0.402-  68 2.26  31 2.31  39 2.35
  49  0.770  0.417  0.397-  63 2.34  28 2.39
  50  0.062  0.365  0.574-  52 2.38  35 2.47  71 2.52
  51  0.834  0.465  0.584-  65 2.29  52 2.30  47 2.35
  52  0.981  0.506  0.561-  69 2.20  51 2.30  50 2.38  60 2.45
  53  0.567  0.400  0.587-  67 2.29  21 2.30  25 2.35
  54  0.568  0.818  0.556-  56 2.34  46 2.40  29 2.51  22 2.52
  55  0.153  0.753  0.402-  36 2.25  66 2.26  68 2.41
  56  0.587  0.844  0.464-   3 1.53  26 2.29  54 2.34  61 2.37
  57  0.375  0.045  0.479-  32 2.26  16 2.32  58 2.34  70 2.39
  58  0.372  0.887  0.463-  14 2.22  61 2.24  57 2.34  66 2.44
  59  0.149  0.986  0.557-  24 2.23  15 2.31  70 2.42
  60  0.022  0.655  0.601-  42 2.34  52 2.45
  61  0.465  0.818  0.404-  58 2.24  56 2.37
  62  0.455  0.574  0.495-  13 2.24  25 2.26  43 2.30  31 2.44
  63  0.886  0.362  0.454-  27 2.26  49 2.34  47 2.41  69 2.48
  64  0.237  0.211  0.585-  37 2.27  71 2.31  70 2.35
  65  0.742  0.557  0.532-  28 2.23  34 2.28  51 2.29  22 2.56
  66  0.210  0.883  0.437-  55 2.26  24 2.34  18 2.36  58 2.44
  67  0.457  0.290  0.603-  53 2.29  30 2.34  37 2.35
  68  0.277  0.657  0.432-  48 2.26  43 2.30  55 2.41
  69  0.989  0.493  0.474-  52 2.20  20 2.29  39 2.43  63 2.48
  70  0.294  0.066  0.561-  64 2.35  57 2.39  59 2.42
  71  0.107  0.214  0.532-  64 2.31  15 2.33  41 2.44  50 2.52

  LATTYP: Found a simple tetragonal cell.
 ALAT       =    14.5492154081
 C/A-ratio  =     1.7297914901
  
  Lattice vectors:
  
 A1 = (  14.5492154081,   0.0000000000,   0.0000000000)
 A2 = (   0.0000000000,  14.5492154081,   0.0000000000)
 A3 = (   0.0000000000,   0.0000000000,  25.1671090000)


Analysis of symmetry for initial positions (statically):
=====================================================================
 Subroutine PRICEL returns:
 Original cell was already a primitive cell.
 

 Routine SETGRP: Setting up the symmetry group for a 
 simple tetragonal supercell.


 Subroutine GETGRP returns: Found  1 space group operations
 (whereof  1 operations were pure point group operations)
 out of a pool of 16 trial point group operations.


The static configuration has the point symmetry C_1 .


Analysis of symmetry for dynamics (positions and initial velocities):
=====================================================================
 Subroutine PRICEL returns:
 Original cell was already a primitive cell.
 

 Routine SETGRP: Setting up the symmetry group for a 
 simple tetragonal supercell.


 Subroutine GETGRP returns: Found  1 space group operations
 (whereof  1 operations were pure point group operations)
 out of a pool of 16 trial point group operations.


The dynamic configuration has the point symmetry C_1 .


 Subroutine INISYM returns: Found  1 space group operations
 (whereof  1 operations are pure point group operations),
 and found     1 'primitive' translations


----------------------------------------------------------------------------------------

                                     Primitive cell                                     

  volume of cell :    5327.3653

  direct lattice vectors                    reciprocal lattice vectors
    14.549215408  0.000000000  0.000000000     0.068732229  0.000000000  0.000000000
     0.000000000 14.549215408  0.000000000     0.000000000  0.068732229  0.000000000
     0.000000000  0.000000000 25.167109000     0.000000000  0.000000000  0.039734401

  length of vectors
    14.549215408 14.549215408 25.167109000     0.068732229  0.068732229  0.039734401

  position of ions in fractional coordinates (direct lattice)
     0.700862535  0.978107726  0.544508271
     0.721860231  0.141718982  0.466622487
     0.623658372  0.942229503  0.457569799
     0.929960800  0.034553478  0.398920643
     0.965639700  0.829598000  0.424147088
     0.589557564  0.050286767  0.399275022
     0.924737151  0.933995382  0.498383386
     0.596670663  0.070192789  0.479488486
     0.835886999  0.858822943  0.427939141
     0.803438513  0.128273584  0.551760196
     0.732774909  0.194534889  0.464395771
     0.854554672  0.080471693  0.475638620
     0.582656849  0.609084391  0.450071917
     0.335679270  0.817796676  0.538556852
     0.073619090  0.072766123  0.493394335
     0.515380369  0.113580695  0.497658631
     0.257864077  0.581409359  0.579328718
     0.147617582  0.028582297  0.415366858
     0.534991735  0.259405053  0.470806520
     0.926957202  0.624762899  0.439403628
     0.643769422  0.360734916  0.510419731
     0.630271100  0.662595867  0.581179547
     0.284512249  0.264491238  0.403513491
     0.183583095  0.845921904  0.526537196
     0.509340868  0.549850269  0.578451780
     0.689494225  0.730341788  0.443391372
     0.982767771  0.251746908  0.424974716
     0.675957412  0.491190061  0.462020449
     0.703302530  0.909945975  0.586315218
     0.503662211  0.138811609  0.587391226
     0.392456214  0.459245383  0.434642732
     0.297342494  0.111095338  0.410613551
     0.783203745  0.196976257  0.592658815
     0.808510952  0.685334550  0.497965777
     0.205250930  0.442916667  0.547651262
     0.021165059  0.753538916  0.449130609
     0.323236674  0.330368330  0.555474171
     0.933486763  0.879408246  0.544791974
     0.145198208  0.440552279  0.456497367
     0.816298313  0.785478782  0.564228454
     0.137810180  0.283386415  0.445663783
     0.046130598  0.769560398  0.537314755
     0.333056448  0.667792024  0.517056568
     0.938689793  0.093051066  0.444871876
     0.384892233  0.314601844  0.471472071
     0.436873042  0.880686665  0.600810725
     0.805012482  0.330988295  0.535157971
     0.254327116  0.513042098  0.401808805
     0.770405804  0.416540675  0.397344010
     0.061535827  0.365253373  0.574006693
     0.833618835  0.465170788  0.584462403
     0.981104451  0.506049969  0.561297644
     0.566895861  0.399798191  0.586908055
     0.567816186  0.817810423  0.555515892
     0.152526438  0.753380831  0.401611882
     0.587201424  0.844114246  0.464379878
     0.374693057  0.045202575  0.478764128
     0.371826923  0.886693862  0.462835799
     0.148533095  0.985950073  0.556734546
     0.021681169  0.654796134  0.600792050
     0.464546012  0.818174703  0.404071123
     0.454794284  0.574316193  0.495414432
     0.886329581  0.362370743  0.453918207
     0.236720669  0.210767379  0.584992062
     0.742390548  0.556533103  0.532122263
     0.209963212  0.883456574  0.437303268
     0.456511902  0.290488516  0.602655990
     0.276888470  0.657291114  0.431971984
     0.989372938  0.493392929  0.474164474
     0.293840587  0.065952629  0.560606663
     0.106548014  0.214436993  0.532263320

  ion indices of the primitive-cell ions
   primitive index   ion index
                 1           1
                 2           2
                 3           3
                 4           4
                 5           5
                 6           6
                 7           7
                 8           8
                 9           9
                10          10
                11          11
                12          12
                13          13
                14          14
                15          15
                16          16
                17          17
                18          18
                19          19
                20          20
                21          21
                22          22
                23          23
                24          24
                25          25
                26          26
                27          27
                28          28
                29          29
                30          30
                31          31
                32          32
                33          33
                34          34
                35          35
                36          36
                37          37
                38          38
                39          39
                40          40
                41          41
                42          42
                43          43
                44          44
                45          45
                46          46
                47          47
                48          48
                49          49
                50          50
                51          51
                52          52
                53          53
                54          54
                55          55
                56          56
                57          57
                58          58
                59          59
                60          60
                61          61
                62          62
                63          63
                64          64
                65          65
                66          66
                67          67
                68          68
                69          69
                70          70
                71          71

----------------------------------------------------------------------------------------


 -----------------------------------------------------------------------------
|                                                                             |
|           W    W    AA    RRRRR   N    N  II  N    N   GGGG   !!!           |
|           W    W   A  A   R    R  NN   N  II  NN   N  G    G  !!!           |
|           W    W  A    A  R    R  N N  N  II  N N  N  G       !!!           |
|           W WW W  AAAAAA  RRRRR   N  N N  II  N  N N  G  GGG   !            |
|           WW  WW  A    A  R   R   N   NN  II  N   NN  G    G                |
|           W    W  A    A  R    R  N    N  II  N    N   GGGG   !!!           |
|                                                                             |
|     The requested file  could not be found or opened for reading            |
|     k-point information. Automatic k-point generation is used as a          |
|     fallback, which may lead to unwanted results.                           |
|                                                                             |
 -----------------------------------------------------------------------------



Automatic generation of k-mesh.
 Grid dimensions derived from KSPACING:
 generate k-points for:    2    2    2

 Generating k-lattice:

  Cartesian coordinates                     Fractional coordinates (reciprocal lattice)
     0.034366114  0.000000000  0.000000000     0.500000000  0.000000000  0.000000000
     0.000000000  0.034366114  0.000000000     0.000000000  0.500000000  0.000000000
     0.000000000  0.000000000  0.019867200     0.000000000  0.000000000  0.500000000

  Length of vectors
     0.034366114  0.034366114  0.019867200

  Shift w.r.t. Gamma in fractional coordinates (k-lattice)
     0.000000000  0.000000000  0.000000000

 
 Subroutine IBZKPT returns following result:
 ===========================================
 
 Found      8 irreducible k-points:
 
 Following reciprocal coordinates:
            Coordinates               Weight
  0.000000  0.000000  0.000000      1.000000
  0.500000  0.000000  0.000000      1.000000
  0.000000  0.500000  0.000000      1.000000
  0.500000  0.500000  0.000000      1.000000
  0.000000  0.000000  0.500000      1.000000
  0.500000  0.000000  0.500000      1.000000
  0.000000  0.500000  0.500000      1.000000
  0.500000  0.500000  0.500000      1.000000
 
 Following cartesian coordinates:
            Coordinates               Weight
  0.000000  0.000000  0.000000      1.000000
  0.034366  0.000000  0.000000      1.000000
  0.000000  0.034366  0.000000      1.000000
  0.034366  0.034366  0.000000      1.000000
  0.000000  0.000000  0.019867      1.000000
  0.034366  0.000000  0.019867      1.000000
  0.000000  0.034366  0.019867      1.000000
  0.034366  0.034366  0.019867      1.000000
 


--------------------------------------------------------------------------------------------------------




 Dimension of arrays:
   k-points           NKPTS =      8   k-points in BZ     NKDIM =      8   number of bands    NBANDS=    160
   number of dos      NEDOS =   2000   number of ions     NIONS =     71
   non local maximal  LDIM  =      4   non local SUM 2l+1 LMDIM =      8
   total plane-waves  NPLWV = ******
   max r-space proj   IRMAX =      1   max aug-charges    IRDMAX= 408273
   dimension x,y,z NGX =   168 NGY =  168 NGZ =  288
   dimension x,y,z NGXF=   336 NGYF=  336 NGZF=  576
   support grid    NGXF=   672 NGYF=  672 NGZF= 1152
   ions per type =              12  59
   NGX,Y,Z   is equivalent  to a cutoff of  19.20, 19.20, 19.02 a.u.
   NGXF,Y,Z  is equivalent  to a cutoff of  38.39, 38.39, 38.05 a.u.

 SYSTEM =  a-Si SPC                                
 POSCAR =   H Si                                   

 Startparameter for this run:
   NWRITE =      2    write-flag & timer
   PREC   = accura    normal or accurate (medium, high low for compatibility)
   ISTART =      1    job   : 0-new  1-cont  2-samecut
   ICHARG =      1    charge: 1-file 2-atom 10-const
   ISPIN  =      1    spin polarized calculation?
   LNONCOLLINEAR =      F non collinear calculations
   LSORBIT =      F    spin-orbit coupling
   INIWAV =      1    electr: 0-lowe 1-rand  2-diag
   LASPH  =      T    aspherical Exc in radial PAW
 Electronic Relaxation 1
   ENCUT  = 1200.0 eV  88.20 Ry    9.39 a.u.  41.09 41.09 71.09*2*pi/ulx,y,z
   ENINI  = 1200.0     initial cutoff
   ENAUG  =  400.0 eV  augmentation charge cutoff
   NELM   =    150;   NELMIN=  2; NELMDL=  0     # of ELM steps 
   EDIFF  = 0.1E-05   stopping-criterion for ELM
   LREAL  =      F    real-space projection
   NLSPLINE    = F    spline interpolate recip. space projectors
   LCOMPAT=      F    compatible to vasp.4.4
   GGA_COMPAT  = T    GGA compatible to vasp.4.4-vasp.4.6
   LMAXPAW     = -100 max onsite density
   LMAXMIX     =    2 max onsite mixed and CHGCAR
   VOSKOWN=      0    Vosko Wilk Nusair interpolation
   ROPT   =    0.00000   0.00000
 Ionic relaxation
   EDIFFG = -.1E-01   stopping-criterion for IOM
   NSW    =      0    number of steps for IOM
   NBLOCK =      1;   KBLOCK =      1    inner block; outer block 
   IBRION =     -1    ionic relax: 0-MD 1-quasi-New 2-CG
   NFREE  =      0    steps in history (QN), initial steepest desc. (CG)
   ISIF   =      2    stress and relaxation
   IWAVPR =     10    prediction:  0-non 1-charg 2-wave 3-comb
   ISYM   =      1    0-nonsym 1-usesym 2-fastsym
   LCORR  =      T    Harris-Foulkes like correction to forces

   POTIM  = 0.5000    time-step for ionic-motion
   TEIN   =    0.0    initial temperature
   TEBEG  =    0.0;   TEEND  =   0.0 temperature during run
   SMASS  =  -3.00    Nose mass-parameter (am)
   estimated Nose-frequenzy (Omega)   =  0.10E-29 period in steps = 0.13E+47 mass=  -0.484E-26a.u.
   SCALEE = 1.0000    scale energy and forces
   NPACO  =    256;   APACO  = 10.0  distance and # of slots for P.C.
   PSTRESS=    0.0 pullay stress

  Mass of Ions in am
   POMASS =   1.00 28.09
  Ionic Valenz
   ZVAL   =   1.00  4.00
  Atomic Wigner-Seitz radii
   RWIGS  =  -1.00 -1.00
  virtual crystal weights 
   VCA    =   1.00  1.00
   NELECT =     248.0000    total number of electrons
   NUPDOWN=      -1.0000    fix difference up-down

 DOS related values:
   EMIN   =  10.00;   EMAX   =-10.00  energy-range for DOS
   EFERMI =   0.00;   METHOD = LEGACY      
   ISMEAR =     0;   SIGMA  =   0.10  broadening in eV -4-tet -1-fermi 0-gaus
   EFERMI_NEDOS =   21; number of points for ismear=-14 and -15

 Electronic relaxation 2 (details)
   IALGO  =     38    algorithm
   LDIAG  =      F    sub-space diagonalisation (order eigenvalues)
   LSUBROT=      F    optimize rotation matrix (better conditioning)
   TURBO    =      0    0=normal 1=particle mesh
   IRESTART =      0    0=no restart 2=restart with 2 vectors
   NREBOOT  =      0    no. of reboots
   NMIN     =      0    reboot dimension
   EREF     =   0.00    reference energy to select bands
   IMIX   =      4    mixing-type and parameters
     AMIX     =   0.40;   BMIX     =  1.00
     AMIX_MAG =   1.60;   BMIX_MAG =  1.00
     AMIN     =   0.10
     WC   =   100.;   INIMIX=   1;  MIXPRE=   1;  MAXMIX= -45

 Intra band minimization:
   WEIMIN = 0.0000     energy-eigenvalue tresh-hold
   EBREAK =  0.16E-08  absolut break condition
   DEPER  =   0.30     relativ break condition  

   TIME   =   0.40     timestep for ELM

  volume/ion in A,a.u.               =      75.03       506.35
  Fermi-wavevector in a.u.,A,eV,Ry     =   0.588918  1.112893  4.718827  0.346824
  Thomas-Fermi vector in A             =   1.636369

 Write flags
   LWAVE        =      F    write WAVECAR
   LDOWNSAMPLE  =      F    k-point downsampling of WAVECAR
   LCHARG       =      F    write CHGCAR
   LVTOT        =      F    write LOCPOT, total local potential
   LVHAR        =      F    write LOCPOT, Hartree potential only
   WRT_POTENTIAL= false  ! write potential to hdf5 file
   LELF         =      F    write electronic localiz. function (ELF)
   LORBIT       =     11    0 simple, 1 ext, 2 COOP (PROOUT), +10 PAW based schemes


 Python interface
   PLUGINS active      =      F    recompile with -DPLUGINS to activate

 Dipole corrections
   LMONO      =      F    monopole corrections only (constant potential shift)
   LDIPOL     =      F    correct potential (dipole corrections)
   IDIPOL     =      0    1-x, 2-y, 3-z, 4-all directions 
   EPSILON    =  1.0000000 bulk dielectric constant
   LVACPOTAV  =      F  vacuum potentials using an averaging scheme for the charge density
   VACPOTFLAT =  0.1000000 required flatness to determine vacuum potential

Coulomb truncation method
  LTRUNCATE          =      F  Coulomb kernel truncation to be used
  IDIMENSIONALITY    =      3  Dimensionality of cutoff (0 molecules / 2 surfaces)
  ISURFACE           =     -1  Direction of surface normal
  LCOARSEN           =      F  Coarsen the charge grid before padding, preferred


 Exchange correlation treatment:
   METAGGA = SCAN    functional components
   XC_C    = 1    coefficients multiplying the functional components
   LIBXC   =     F    Libxc                    
   VOSKOWN =     0    Vosko Wilk Nusair interpolation
   LHFCALC =     F    Hartree Fock is set to
   LHFONE  =     F    Hartree Fock one center treatment
   AEXX    =    0.0000 exact exchange contribution

 Parameters of functionals:
   SCAN:
     P1 =  0.000000E+00
     P2 =  0.000000E+00
     P3 =  0.000000E+00

 Accuracy and mixing parameters for tau-dependent meta-GGA functionals:
   LMAXTAU = 6
   LMIXTAU = T

 Van der Waals corrections
   IVDW    =     0    specifies the selected vdW correction

 Linear response parameters
   LEPSILON=     F    determine dielectric tensor
   LRPA    =     F    only Hartree local field effects (RPA)
   LNABLA  =     F    use nabla operator in PAW spheres
   LVEL    =     F    velocity operator in full k-point grid
   CSHIFT  =0.1000    complex shift for real part using Kramers Kronig
   OMEGAMAX=  -1.0    maximum frequency
   DEG_THRESHOLD= 0.2000000E-02 threshold for treating states as degnerate
   RTIME   =   -0.100 relaxation time in fs
  (WPLASMAI=    0.000 imaginary part of plasma frequency in eV, 0.658/RTIME)
   DFIELD  = 0.0000000 0.0000000 0.0000000 field for delta impulse in time

  Optional k-point grid parameters
   LKPOINTS_OPT  =     F    use optional k-point grid
   KPOINTS_OPT_MODE=     1    mode for optional k-point grid

 Orbital magnetization related:
   ORBITALMAG=     F  switch on orbital magnetization
   LCHIMAG   =     F  perturbation theory with respect to B field
   DQ        =  0.001000  dq finite difference perturbation B field
   LLRAUG    =     F  two centre corrections for induced B field
   LBONE     =     F  B-component reconstruction in AE one-centre
   LVGVCALC  =     T  calculate vGv susceptibility
   LVGVAPPL  =     F  apply vGv susceptibility instead of pGv for G=0

 Random number generation:
   RANDOM_GENERATOR = DEFAULT
   PCG_SEED         = not used


--------------------------------------------------------------------------------------------------------


 Static calculation
 charge density and potential will be updated during run
 non-spin polarized calculation
 Variant of blocked Davidson
 perform Loewdin sub-space diagonalisation
    ordering is kept fixed
    before iterative eigenvector-optimisation
 modified Broyden-mixing scheme, WC =      100.0
 initial mixing is a Kerker type mixing with AMIX =  0.4000 and BMIX =      1.0000
 Hartree-type preconditioning will be used
 using additional bands           36
 reciprocal scheme for non local part
 use partial core corrections
 calculate Harris-corrections to forces   (improved forces if not selfconsistent)
 use gradient corrections 
 use of overlap-Matrix (Vanderbilt PP)
 Gauss-broadening in eV      SIGMA  =   0.10


--------------------------------------------------------------------------------------------------------


  energy-cutoff  :     1200.00
  volume of cell :     5327.37
      direct lattice vectors                 reciprocal lattice vectors
    14.549215408  0.000000000  0.000000000     0.068732229  0.000000000  0.000000000
     0.000000000 14.549215408  0.000000000     0.000000000  0.068732229  0.000000000
     0.000000000  0.000000000 25.167109000     0.000000000  0.000000000  0.039734401

  length of vectors
    14.549215408 14.549215408 25.167109000     0.068732229  0.068732229  0.039734401



 old parameters found on file WAVECAR:
  energy-cutoff  :     1200.00
  volume of cell :     5327.37
      direct lattice vectors                 reciprocal lattice vectors
    14.549215408  0.000000000  0.000000000     0.068732229  0.000000000  0.000000000
     0.000000000 14.549215408  0.000000000     0.000000000  0.068732229  0.000000000
     0.000000000  0.000000000 25.167109000     0.000000000  0.000000000  0.039734401

  length of vectors


 k-points in units of 2pi/SCALE and weight: read from INCAR                         
   0.00000000  0.00000000  0.00000000       0.125
   0.03436611  0.00000000  0.00000000       0.125
   0.00000000  0.03436611  0.00000000       0.125
   0.03436611  0.03436611  0.00000000       0.125
   0.00000000  0.00000000  0.01986720       0.125
   0.03436611  0.00000000  0.01986720       0.125
   0.00000000  0.03436611  0.01986720       0.125
   0.03436611  0.03436611  0.01986720       0.125

 k-points in reciprocal lattice and weights: read from INCAR                         
   0.00000000  0.00000000  0.00000000       0.125
   0.50000000  0.00000000  0.00000000       0.125
   0.00000000  0.50000000  0.00000000       0.125
   0.50000000  0.50000000  0.00000000       0.125
   0.00000000  0.00000000  0.50000000       0.125
   0.50000000  0.00000000  0.50000000       0.125
   0.00000000  0.50000000  0.50000000       0.125
   0.50000000  0.50000000  0.50000000       0.125

 position of ions in fractional coordinates (direct lattice) 
   0.70086254  0.97810773  0.54450827
   0.72186023  0.14171898  0.46662249
   0.62365837  0.94222950  0.45756980
   0.92996080  0.03455348  0.39892064
   0.96563970  0.82959800  0.42414709
   0.58955756  0.05028677  0.39927502
   0.92473715  0.93399538  0.49838339
   0.59667066  0.07019279  0.47948849
   0.83588700  0.85882294  0.42793914
   0.80343851  0.12827358  0.55176020
   0.73277491  0.19453489  0.46439577
   0.85455467  0.08047169  0.47563862
   0.58265685  0.60908439  0.45007192
   0.33567927  0.81779668  0.53855685
   0.07361909  0.07276612  0.49339433
   0.51538037  0.11358070  0.49765863
   0.25786408  0.58140936  0.57932872
   0.14761758  0.02858230  0.41536686
   0.53499174  0.25940505  0.47080652
   0.92695720  0.62476290  0.43940363
   0.64376942  0.36073492  0.51041973
   0.63027110  0.66259587  0.58117955
   0.28451225  0.26449124  0.40351349
   0.18358310  0.84592190  0.52653720
   0.50934087  0.54985027  0.57845178
   0.68949422  0.73034179  0.44339137
   0.98276777  0.25174691  0.42497472
   0.67595741  0.49119006  0.46202045
   0.70330253  0.90994598  0.58631522
   0.50366221  0.13881161  0.58739123
   0.39245621  0.45924538  0.43464273
   0.29734249  0.11109534  0.41061355
   0.78320375  0.19697626  0.59265882
   0.80851095  0.68533455  0.49796578
   0.20525093  0.44291667  0.54765126
   0.02116506  0.75353892  0.44913061
   0.32323667  0.33036833  0.55547417
   0.93348676  0.87940825  0.54479197
   0.14519821  0.44055228  0.45649737
   0.81629831  0.78547878  0.56422845
   0.13781018  0.28338642  0.44566378
   0.04613060  0.76956040  0.53731475
   0.33305645  0.66779202  0.51705657
   0.93868979  0.09305107  0.44487188
   0.38489223  0.31460184  0.47147207
   0.43687304  0.88068667  0.60081072
   0.80501248  0.33098829  0.53515797
   0.25432712  0.51304210  0.40180881
   0.77040580  0.41654067  0.39734401
   0.06153583  0.36525337  0.57400669
   0.83361884  0.46517079  0.58446240
   0.98110445  0.50604997  0.56129764
   0.56689586  0.39979819  0.58690806
   0.56781619  0.81781042  0.55551589
   0.15252644  0.75338083  0.40161188
   0.58720142  0.84411425  0.46437988
   0.37469306  0.04520257  0.47876413
   0.37182692  0.88669386  0.46283580
   0.14853310  0.98595007  0.55673455
   0.02168117  0.65479613  0.60079205
   0.46454601  0.81817470  0.40407112
   0.45479428  0.57431619  0.49541443
   0.88632958  0.36237074  0.45391821
   0.23672067  0.21076738  0.58499206
   0.74239055  0.55653310  0.53212226
   0.20996321  0.88345657  0.43730327
   0.45651190  0.29048852  0.60265599
   0.27688847  0.65729111  0.43197198
   0.98937294  0.49339293  0.47416447
   0.29384059  0.06595263  0.56060666
   0.10654801  0.21443699  0.53226332

 position of ions in cartesian coordinates  (Angst):
  10.19700000 14.23070000 13.70369900
  10.50250000  2.06190000 11.74353900
   9.07374000 13.70870000 11.51570900
  13.53020000  0.50272600 10.03967930
  14.04930000 12.07000000 10.67455600
   8.57760000  0.73163300 10.04859800
  13.45420000 13.58890000 12.54286900
   8.68109000  1.02125000 12.06733900
  12.16150000 12.49520000 10.76999100
  11.68940000  1.86628000 13.88620900
  10.66130000  2.83033000 11.68749900
  12.43310000  1.17080000 11.97044900
   8.47720000  8.86170000 11.32700900
   4.88387000 11.89830000 13.55391900
   1.07110000  1.05869000 12.41730900
   7.49838000  1.65251000 12.52462900
   3.75172000  8.45905000 14.58002900
   2.14772000  0.41585000 10.45358300
   7.78371000  3.77414000 11.84883900
  13.48650000  9.08981000 11.05851900
   9.36634000  5.24841000 12.84578900
   9.16995000  9.64025000 14.62660900
   4.13943000  3.84814000 10.15526800
   2.67099000 12.30750000 13.25141900
   7.41051000  7.99989000 14.55795900
  10.03160000 10.62590000 11.15887900
  14.29850000  3.66272000 10.69538500
   9.83465000  7.14643000 11.62771900
  10.23250000 13.23900000 14.75585900
   7.32789000  2.01960000 14.78293900
   5.70993000  6.68166000 10.93870100
   4.32610000  1.61635000 10.33395600
  11.39500000  2.86585000 14.91550900
  11.76320000  9.97108000 12.53235900
   2.98624000  6.44409000 13.78279900
   0.30793500 10.96340000 11.30331900
   4.70284000  4.80660000 13.97967900
  13.58150000 12.79470000 13.71083900
   2.11252000  6.40969000 11.48871900
  11.87650000 11.42810000 14.19999900
   2.00503000  4.12305000 11.21606900
   0.67116400 11.19650000 13.52265900
   4.84571000  9.71585000 13.01281900
  13.65720000  1.35382000 11.19613900
   5.59988000  4.57721000 11.86558900
   6.35616000 12.81330000 15.12066900
  11.71230000  4.81562000 13.46837900
   3.70026000  7.46436000 10.11236600
  11.20880000  6.06034000 10.00000000
   0.89529800  5.31415000 14.44608900
  12.12850000  6.76787000 14.70922900
  14.27430000  7.36263000 14.12623900
   8.24789000  5.81675000 14.77077900
   8.26128000 11.89850000 13.98072900
   2.21914000 10.96110000 10.10741000
   8.54332000 12.28120000 11.68709900
   5.45149000  0.65766200 12.04910900
   5.40979000 12.90070000 11.64823900
   2.16104000 14.34480000 14.01139900
   0.31544400  9.52677000 15.12019900
   6.75878000 11.90380000 10.16930200
   6.61690000  8.35585000 12.46814900
  12.89540000  5.27221000 11.42380900
   3.44410000  3.06650000 14.72255900
  10.80120000  8.09712000 13.39197900
   3.05480000 12.85360000 11.00565900
   6.64189000  4.22638000 15.16710900
   4.02851000  9.56307000 10.87148600
  14.39460000  7.17848000 11.93334900
   4.27515000  0.95955900 14.10884900
   1.55019000  3.11989000 13.39552900



--------------------------------------------------------------------------------------------------------


 k-point     1 :   0.0000 0.0000 0.0000  plane waves:  502639
 k-point     2 :   0.5000 0.0000 0.0000  plane waves:  502910
 k-point     3 :   0.0000 0.5000 0.0000  plane waves:  502910
 k-point     4 :   0.5000 0.5000 0.0000  plane waves:  502900
 k-point     5 :   0.0000 0.0000 0.5000  plane waves:  502798
 k-point     6 :   0.5000 0.0000 0.5000  plane waves:  502860
 k-point     7 :   0.0000 0.5000 0.5000  plane waves:  502860
 k-point     8 :   0.5000 0.5000 0.5000  plane waves:  503056

 maximum and minimum number of plane-waves per node :     31519    31341

 maximum number of plane-waves:    503056
 maximum index in each direction: 
   IXMAX=   41   IYMAX=   41   IZMAX=   71
   IXMIN=  -41   IYMIN=  -41   IZMIN=  -71


 parallel 3D FFT for wavefunctions:
    minimum data exchange during FFTs selected (reduces bandwidth)
 parallel 3D FFT for charge:
    minimum data exchange during FFTs selected (reduces bandwidth)


 total amount of memory used by VASP MPI-rank0   352113. kBytes
=======================================================================

   base                                    :      30000. kBytes
   nonl-proj                               :      67910. kBytes
   fftplans                                :      97995. kBytes
   grid                                    :      75605. kBytes
   one-center                              :         15. kBytes
   wavefun                                 :      80588. kBytes

     INWAV:  cpu time     24.5736: real time     24.5874
 Broyden mixing: mesh for mixing (old mesh)
   NGX = 83   NGY = 83   NGZ =143
  (NGX  =336   NGY  =336   NGZ  =576)
  gives a total of 985127 points

 initial charge density was supplied:
 number of electron     247.9999999 magnetization 
 keeping initial charge density in first step


--------------------------------------------------------------------------------------------------------


 Maximum index for augmentation-charges        11333 (set IRDMAX)


--------------------------------------------------------------------------------------------------------


 First call to EWALD:  gamma=   0.101
 Maximum number of real-space cells   3x   3x   2
 Maximum number of reciprocal cells   2x   2x   4

    FEWALD:  cpu time      0.0112: real time      0.0113


--------------------------------------- Ionic step        1  -------------------------------------------




--------------------------------------- Iteration      1(   1)  ---------------------------------------


    POTLOK:  cpu time      1.9165: real time      1.9178
    SETDIJ:  cpu time      1.3906: real time      1.3916
    EDDIAG:  cpu time     47.9549: real time     47.9815
     EDDAV:  cpu time    211.0417: real time    211.1528
       DOS:  cpu time      0.0079: real time      0.0080
    CHARGE:  cpu time     27.3735: real time     27.4074
    MIXING:  cpu time      0.0469: real time      0.0477
    --------------------------------------------
      LOOP:  cpu time    289.7321: real time    289.9068

 eigenvalue-minimisations  :  2560
 total energy-change (2. order) :-0.6153497E+03  (-0.7125279E+00)
 number of electron     247.9999999 magnetization 
 augmentation part      -13.4501154 magnetization 

 Broyden mixing:
  rms(total) = 0.91461E+00    rms(broyden)= 0.23189E+02
  rms(prec ) = 0.94761E+00
  weight for this iteration     100.00
  WARNING: grid for Broyden might be to small

 Free energy of the ion-electron system (eV)
  ---------------------------------------------------
  alpha Z        PSCENC =        24.47546949
  Ewald energy   TEWEN  =     27173.67246882
  -Hartree energ DENC   =    -32484.64404675
  -exchange      EXHF   =         0.00000000
  -V(xc)+E(xc)   XCENC  =      -261.94539513
  PAW double counting   =     21471.30175509   -20883.15658668
  entropy T*S    EENTRO =        -0.15818885
  eigenvalues    EBANDS =     -1885.69881204
  atomic energy  EATOM  =      6230.80365586
  Solvation  Ediel_sol  =         0.00000000
  ---------------------------------------------------
  free energy    TOTEN  =      -615.34968017 eV

  energy without entropy =     -615.19149133  energy(sigma->0) =     -615.27058575


--------------------------------------------------------------------------------------------------------




--------------------------------------- Iteration      1(   2)  ---------------------------------------


    POTLOK:  cpu time      1.8819: real time      1.9069
    SETDIJ:  cpu time      1.3881: real time      1.3889
    EDDIAG:  cpu time     48.2353: real time     48.2609
     EDDAV:  cpu time    211.0252: real time    211.1341
       DOS:  cpu time      0.0027: real time      0.0027
    CHARGE:  cpu time     27.2751: real time     27.2978
    MIXING:  cpu time      0.0399: real time      0.0401
    --------------------------------------------
      LOOP:  cpu time    289.8482: real time    290.0313

 eigenvalue-minimisations  :  2560
 total energy-change (2. order) : 0.4427072E+02  (-0.6951402E+00)
 number of electron     247.9999999 magnetization 
 augmentation part      -13.4593501 magnetization 

 Broyden mixing:
  rms(total) = 0.68278E+00    rms(broyden)= 0.13557E+02
  rms(prec ) = 0.72215E+00
  weight for this iteration     100.00
  WARNING: grid for Broyden might be to small

 eigenvalues of (default mixing * dielectric matrix)
  average eigenvalue GAMMA=   0.6315
  0.6315

 Free energy of the ion-electron system (eV)
  ---------------------------------------------------
  alpha Z        PSCENC =        24.47546949
  Ewald energy   TEWEN  =     27173.67246882
  -Hartree energ DENC   =    -32474.32400134
  -exchange      EXHF   =         0.00000000
  -V(xc)+E(xc)   XCENC  =      -255.92793047
  PAW double counting   =     25502.61676886   -24914.31366917
  entropy T*S    EENTRO =        -0.15214121
  eigenvalues    EBANDS =     -1857.92958122
  atomic energy  EATOM  =      6230.80365586
  Solvation  Ediel_sol  =         0.00000000
  ---------------------------------------------------
  free energy    TOTEN  =      -571.07896038 eV

  energy without entropy =     -570.92681916  energy(sigma->0) =     -571.00288977


--------------------------------------------------------------------------------------------------------




--------------------------------------- Iteration      1(   3)  ---------------------------------------


    POTLOK:  cpu time      1.8863: real time      1.9129
    SETDIJ:  cpu time      1.3880: real time      1.3888
    EDDIAG:  cpu time     48.3207: real time     48.3456
     EDDAV:  cpu time    214.3851: real time    214.4983
       DOS:  cpu time      0.0038: real time      0.0038
    CHARGE:  cpu time     27.2511: real time     27.2747
    MIXING:  cpu time      0.0379: real time      0.0379
    --------------------------------------------
      LOOP:  cpu time    293.2728: real time    293.4620

 eigenvalue-minimisations  :  2640
 total energy-change (2. order) :-0.1951124E+01  (-0.8430991E+00)
 number of electron     247.9999999 magnetization 
 augmentation part      -13.3525250 magnetization 

 Broyden mixing:
  rms(total) = 0.49197E+00    rms(broyden)= 0.74231E+01
  rms(prec ) = 0.53465E+00
  weight for this iteration     100.00
  WARNING: grid for Broyden might be to small

 eigenvalues of (default mixing * dielectric matrix)
  average eigenvalue GAMMA=   0.5186
  0.6391  0.3981

 Free energy of the ion-electron system (eV)
  ---------------------------------------------------
  alpha Z        PSCENC =        24.47546949
  Ewald energy   TEWEN  =     27173.67246882
  -Hartree energ DENC   =    -32478.08030382
  -exchange      EXHF   =         0.00000000
  -V(xc)+E(xc)   XCENC  =      -258.28265258
  PAW double counting   =     28371.53340669   -27783.34955026
  entropy T*S    EENTRO =        -0.14264196
  eigenvalues    EBANDS =     -1853.65993702
  atomic energy  EATOM  =      6230.80365586
  Solvation  Ediel_sol  =         0.00000000
  ---------------------------------------------------
  free energy    TOTEN  =      -573.03008478 eV

  energy without entropy =     -572.88744282  energy(sigma->0) =     -572.95876380


--------------------------------------------------------------------------------------------------------




--------------------------------------- Iteration      1(   4)  ---------------------------------------


    POTLOK:  cpu time      1.8839: real time      1.9084
    SETDIJ:  cpu time      1.3813: real time      1.3822
    EDDIAG:  cpu time     48.2867: real time     48.3116
     EDDAV:  cpu time    216.5959: real time    216.7165
       DOS:  cpu time      0.0048: real time      0.0048
    CHARGE:  cpu time     27.2906: real time     27.3138
    MIXING:  cpu time      0.0385: real time      0.0385
    --------------------------------------------
      LOOP:  cpu time    295.4817: real time    295.6760

 eigenvalue-minimisations  :  2688
 total energy-change (2. order) :-0.3849204E-01  (-0.7394898E-01)
 number of electron     247.9999999 magnetization 
 augmentation part      -13.3471945 magnetization 

 Broyden mixing:
  rms(total) = 0.30529E+00    rms(broyden)= 0.10158E+02
  rms(prec ) = 0.36978E+00
  weight for this iteration     100.00
  WARNING: grid for Broyden might be to small

 eigenvalues of (default mixing * dielectric matrix)
  average eigenvalue GAMMA=   0.7567
  1.0353  0.6311  0.6038

 Free energy of the ion-electron system (eV)
  ---------------------------------------------------
  alpha Z        PSCENC =        24.47546949
  Ewald energy   TEWEN  =     27173.67246882
  -Hartree energ DENC   =    -32478.50132218
  -exchange      EXHF   =         0.00000000
  -V(xc)+E(xc)   XCENC  =      -258.37763724
  PAW double counting   =     32926.99092063   -32338.86986216
  entropy T*S    EENTRO =        -0.15120243
  eigenvalues    EBANDS =     -1853.11106761
  atomic energy  EATOM  =      6230.80365586
  Solvation  Ediel_sol  =         0.00000000
  ---------------------------------------------------
  free energy    TOTEN  =      -573.06857682 eV

  energy without entropy =     -572.91737439  energy(sigma->0) =     -572.99297560


--------------------------------------------------------------------------------------------------------




--------------------------------------- Iteration      1(   5)  ---------------------------------------


    POTLOK:  cpu time      1.8814: real time      1.9085
    SETDIJ:  cpu time      1.3784: real time      1.3794
    EDDIAG:  cpu time     48.3065: real time     48.3312
     EDDAV:  cpu time    233.3628: real time    233.4914
       DOS:  cpu time      0.0028: real time      0.0028
    CHARGE:  cpu time     27.2530: real time     27.2784
    MIXING:  cpu time      0.0378: real time      0.0378
    --------------------------------------------
      LOOP:  cpu time    312.2226: real time    312.4295

 eigenvalue-minimisations  :  3056
 total energy-change (2. order) : 0.5818773E+00  (-0.7668853E-01)
 number of electron     247.9999999 magnetization 
 augmentation part      -13.4062411 magnetization 

 Broyden mixing:
  rms(total) = 0.37196E+00    rms(broyden)= 0.25581E+01
  rms(prec ) = 0.44056E+00
  weight for this iteration     100.00
  WARNING: grid for Broyden might be to small

 eigenvalues of (default mixing * dielectric matrix)
  average eigenvalue GAMMA=   0.8044
  1.7186  0.6339  0.4326  0.4326

 Free energy of the ion-electron system (eV)
  ---------------------------------------------------
  alpha Z        PSCENC =        24.47546949
  Ewald energy   TEWEN  =     27173.67246882
  -Hartree energ DENC   =    -32476.70573777
  -exchange      EXHF   =         0.00000000
  -V(xc)+E(xc)   XCENC  =      -258.79565989
  PAW double counting   =     33535.95115154   -32947.81542625
  entropy T*S    EENTRO =        -0.15258323
  eigenvalues    EBANDS =     -1853.92003809
  atomic energy  EATOM  =      6230.80365586
  Solvation  Ediel_sol  =         0.00000000
  ---------------------------------------------------
  free energy    TOTEN  =      -572.48669952 eV

  energy without entropy =     -572.33411629  energy(sigma->0) =     -572.41040790


--------------------------------------------------------------------------------------------------------




--------------------------------------- Iteration      1(   6)  ---------------------------------------


    POTLOK:  cpu time      1.8876: real time      1.9167
    SETDIJ:  cpu time      1.3890: real time      1.3896
    EDDIAG:  cpu time     48.2858: real time     48.3111
     EDDAV:  cpu time    219.0158: real time    219.1394
       DOS:  cpu time      0.0028: real time      0.0028
    CHARGE:  cpu time     27.3589: real time     27.3813
    MIXING:  cpu time      0.0392: real time      0.0392
    --------------------------------------------
      LOOP:  cpu time    297.9792: real time    298.1802

 eigenvalue-minimisations  :  2744
 total energy-change (2. order) :-0.2316352E+00  (-0.4793347E-01)
 number of electron     247.9999999 magnetization 
 augmentation part      -13.3858913 magnetization 

 Broyden mixing:
  rms(total) = 0.88387E-01    rms(broyden)= 0.86991E+00
  rms(prec ) = 0.10400E+00
  weight for this iteration     100.00
  WARNING: grid for Broyden might be to small

 eigenvalues of (default mixing * dielectric matrix)
  average eigenvalue GAMMA=   0.9160
  2.3163  0.7163  0.6151  0.4663  0.4663

 Free energy of the ion-electron system (eV)
  ---------------------------------------------------
  alpha Z        PSCENC =        24.47546949
  Ewald energy   TEWEN  =     27173.67246882
  -Hartree energ DENC   =    -32477.77332146
  -exchange      EXHF   =         0.00000000
  -V(xc)+E(xc)   XCENC  =      -258.92438876
  PAW double counting   =     33797.60042573   -33209.47025387
  entropy T*S    EENTRO =        -0.15483946
  eigenvalues    EBANDS =     -1852.94755105
  atomic energy  EATOM  =      6230.80365586
  Solvation  Ediel_sol  =         0.00000000
  ---------------------------------------------------
  free energy    TOTEN  =      -572.71833468 eV

  energy without entropy =     -572.56349522  energy(sigma->0) =     -572.64091495


--------------------------------------------------------------------------------------------------------




--------------------------------------- Iteration      1(   7)  ---------------------------------------


    POTLOK:  cpu time      1.8718: real time      1.9008
    SETDIJ:  cpu time      1.3857: real time      1.3863
    EDDIAG:  cpu time     48.2778: real time     48.3029
     EDDAV:  cpu time    220.8850: real time    221.0126
       DOS:  cpu time      0.0039: real time      0.0039
    CHARGE:  cpu time     27.3603: real time     27.3835
    MIXING:  cpu time      0.0391: real time      0.0391
    --------------------------------------------
      LOOP:  cpu time    299.8235: real time    300.0292

 eigenvalue-minimisations  :  2784
 total energy-change (2. order) :-0.1060754E+00  (-0.1055553E-01)
 number of electron     247.9999999 magnetization 
 augmentation part      -13.3710064 magnetization 

 Broyden mixing:
  rms(total) = 0.60494E-01    rms(broyden)= 0.83868E+00
  rms(prec ) = 0.72378E-01
  weight for this iteration     100.00
  WARNING: grid for Broyden might be to small

 eigenvalues of (default mixing * dielectric matrix)
  average eigenvalue GAMMA=   0.8936
  2.5134  0.8484  0.4414  0.4414  0.6242  0.4930

 Free energy of the ion-electron system (eV)
  ---------------------------------------------------
  alpha Z        PSCENC =        24.47546949
  Ewald energy   TEWEN  =     27173.67246882
  -Hartree energ DENC   =    -32477.99858982
  -exchange      EXHF   =         0.00000000
  -V(xc)+E(xc)   XCENC  =      -259.08121268
  PAW double counting   =     33745.69710099   -33157.56352843
  entropy T*S    EENTRO =        -0.15108611
  eigenvalues    EBANDS =     -1852.67868817
  atomic energy  EATOM  =      6230.80365586
  Solvation  Ediel_sol  =         0.00000000
  ---------------------------------------------------
  free energy    TOTEN  =      -572.82441005 eV

  energy without entropy =     -572.67332394  energy(sigma->0) =     -572.74886700


--------------------------------------------------------------------------------------------------------




--------------------------------------- Iteration      1(   8)  ---------------------------------------


    POTLOK:  cpu time      1.8771: real time      1.9087
    SETDIJ:  cpu time      1.3857: real time      1.3864
    EDDIAG:  cpu time     48.3060: real time     48.3336
     EDDAV:  cpu time    215.8363: real time    215.9600
       DOS:  cpu time      0.0028: real time      0.0028
    CHARGE:  cpu time     27.3672: real time     27.3918
    MIXING:  cpu time      0.0405: real time      0.0404
    --------------------------------------------
      LOOP:  cpu time    294.8156: real time    295.0237

 eigenvalue-minimisations  :  2672
 total energy-change (2. order) :-0.2971801E-01  (-0.4909337E-02)
 number of electron     247.9999999 magnetization 
 augmentation part      -13.3680815 magnetization 

 Broyden mixing:
  rms(total) = 0.92964E-01    rms(broyden)= 0.48512E+00
  rms(prec ) = 0.11153E+00
  weight for this iteration     100.00
  WARNING: grid for Broyden might be to small

 eigenvalues of (default mixing * dielectric matrix)
  average eigenvalue GAMMA=   0.8559
  2.5404  0.9022  0.4734  0.4734  0.6168  0.5693  0.4159

 Free energy of the ion-electron system (eV)
  ---------------------------------------------------
  alpha Z        PSCENC =        24.47546949
  Ewald energy   TEWEN  =     27173.67246882
  -Hartree energ DENC   =    -32477.42603276
  -exchange      EXHF   =         0.00000000
  -V(xc)+E(xc)   XCENC  =      -259.02183109
  PAW double counting   =     33659.72955618   -33071.58454876
  entropy T*S    EENTRO =        -0.15564958
  eigenvalues    EBANDS =     -1853.34721622
  atomic energy  EATOM  =      6230.80365586
  Solvation  Ediel_sol  =         0.00000000
  ---------------------------------------------------
  free energy    TOTEN  =      -572.85412806 eV

  energy without entropy =     -572.69847848  energy(sigma->0) =     -572.77630327


--------------------------------------------------------------------------------------------------------




--------------------------------------- Iteration      1(   9)  ---------------------------------------


    POTLOK:  cpu time      1.8889: real time      1.9184
    SETDIJ:  cpu time      1.3854: real time      1.3860
    EDDIAG:  cpu time     48.2233: real time     48.2471
     EDDAV:  cpu time    223.9764: real time    224.0969
       DOS:  cpu time      0.0029: real time      0.0029
    CHARGE:  cpu time     27.3853: real time     27.4083
    MIXING:  cpu time      0.0402: real time      0.0402
    --------------------------------------------
      LOOP:  cpu time    302.9025: real time    303.0999

 eigenvalue-minimisations  :  2848
 total energy-change (2. order) : 0.5543086E-02  (-0.1864783E-02)
 number of electron     247.9999999 magnetization 
 augmentation part      -13.3758126 magnetization 

 Broyden mixing:
  rms(total) = 0.18275E-01    rms(broyden)= 0.12330E+00
  rms(prec ) = 0.22255E-01
  weight for this iteration     100.00
  WARNING: grid for Broyden might be to small

 eigenvalues of (default mixing * dielectric matrix)
  average eigenvalue GAMMA=   0.8722
  2.5787  1.1558  0.4898  0.4898  0.7076  0.6264  0.4649  0.4649

 Free energy of the ion-electron system (eV)
  ---------------------------------------------------
  alpha Z        PSCENC =        24.47546949
  Ewald energy   TEWEN  =     27173.67246882
  -Hartree energ DENC   =    -32476.69259175
  -exchange      EXHF   =         0.00000000
  -V(xc)+E(xc)   XCENC  =      -258.91627175
  PAW double counting   =     33661.94436978   -33073.79170749
  entropy T*S    EENTRO =        -0.15431029
  eigenvalues    EBANDS =     -1854.18966765
  atomic energy  EATOM  =      6230.80365586
  Solvation  Ediel_sol  =         0.00000000
  ---------------------------------------------------
  free energy    TOTEN  =      -572.84858497 eV

  energy without entropy =     -572.69427468  energy(sigma->0) =     -572.77142982


--------------------------------------------------------------------------------------------------------




--------------------------------------- Iteration      1(  10)  ---------------------------------------


    POTLOK:  cpu time      1.8789: real time      1.9072
    SETDIJ:  cpu time      1.3894: real time      1.3898
    EDDIAG:  cpu time     48.2561: real time     48.2797
     EDDAV:  cpu time    220.2664: real time    220.3952
       DOS:  cpu time      0.0026: real time      0.0026
    CHARGE:  cpu time     27.3802: real time     27.4034
    MIXING:  cpu time      0.0411: real time      0.0411
    --------------------------------------------
      LOOP:  cpu time    299.2145: real time    299.4191

 eigenvalue-minimisations  :  2768
 total energy-change (2. order) :-0.2148579E-02  (-0.8814247E-03)
 number of electron     247.9999999 magnetization 
 augmentation part      -13.3789885 magnetization 

 Broyden mixing:
  rms(total) = 0.33941E-01    rms(broyden)= 0.13497E+00
  rms(prec ) = 0.38266E-01
  weight for this iteration     100.00
  WARNING: grid for Broyden might be to small

 eigenvalues of (default mixing * dielectric matrix)
  average eigenvalue GAMMA=   0.8686
  2.5981  1.2819  0.5707  0.5707  0.7439  0.5209  0.5209  0.6200  0.3901

 Free energy of the ion-electron system (eV)
  ---------------------------------------------------
  alpha Z        PSCENC =        24.47546949
  Ewald energy   TEWEN  =     27173.67246882
  -Hartree energ DENC   =    -32476.35636658
  -exchange      EXHF   =         0.00000000
  -V(xc)+E(xc)   XCENC  =      -258.87252448
  PAW double counting   =     33662.53883645   -33074.38197628
  entropy T*S    EENTRO =        -0.15479318
  eigenvalues    EBANDS =     -1854.57550365
  atomic energy  EATOM  =      6230.80365586
  Solvation  Ediel_sol  =         0.00000000
  ---------------------------------------------------
  free energy    TOTEN  =      -572.85073355 eV

  energy without entropy =     -572.69594037  energy(sigma->0) =     -572.77333696


--------------------------------------------------------------------------------------------------------




--------------------------------------- Iteration      1(  11)  ---------------------------------------


    POTLOK:  cpu time      1.8809: real time      1.9124
    SETDIJ:  cpu time      1.3910: real time      1.3921
    EDDIAG:  cpu time     48.1967: real time     48.2215
     EDDAV:  cpu time    217.7761: real time    217.8977
       DOS:  cpu time      0.0027: real time      0.0027
    CHARGE:  cpu time     27.3214: real time     27.3458
    MIXING:  cpu time      0.0418: real time      0.0418
    --------------------------------------------
      LOOP:  cpu time    296.6106: real time    296.8141

 eigenvalue-minimisations  :  2720
 total energy-change (2. order) :-0.2826173E-02  (-0.4557630E-03)
 number of electron     247.9999999 magnetization 
 augmentation part      -13.3785247 magnetization 

 Broyden mixing:
  rms(total) = 0.29859E-01    rms(broyden)= 0.13498E+00
  rms(prec ) = 0.34094E-01
  weight for this iteration     100.00
  WARNING: grid for Broyden might be to small

 eigenvalues of (default mixing * dielectric matrix)
  average eigenvalue GAMMA=   0.8531
  2.6040  1.1989  0.7828  0.7828  0.4932  0.4932  0.7149  0.6316  0.4148  0.4148

 Free energy of the ion-electron system (eV)
  ---------------------------------------------------
  alpha Z        PSCENC =        24.47546949
  Ewald energy   TEWEN  =     27173.67246882
  -Hartree energ DENC   =    -32476.14490501
  -exchange      EXHF   =         0.00000000
  -V(xc)+E(xc)   XCENC  =      -258.85060734
  PAW double counting   =     33661.21553285   -33073.05532782
  entropy T*S    EENTRO =        -0.15518477
  eigenvalues    EBANDS =     -1854.81466181
  atomic energy  EATOM  =      6230.80365586
  Solvation  Ediel_sol  =         0.00000000
  ---------------------------------------------------
  free energy    TOTEN  =      -572.85355972 eV

  energy without entropy =     -572.69837495  energy(sigma->0) =     -572.77596734


--------------------------------------------------------------------------------------------------------




--------------------------------------- Iteration      1(  12)  ---------------------------------------


    POTLOK:  cpu time      1.8879: real time      1.9128
    SETDIJ:  cpu time      1.3873: real time      1.3881
    EDDIAG:  cpu time     48.2651: real time     48.2880
     EDDAV:  cpu time    222.7227: real time    222.8496
       DOS:  cpu time      0.0033: real time      0.0033
    CHARGE:  cpu time     27.3671: real time     27.3898
    MIXING:  cpu time      0.0431: real time      0.0431
    --------------------------------------------
      LOOP:  cpu time    301.6765: real time    301.8746

 eigenvalue-minimisations  :  2832
 total energy-change (2. order) :-0.2018991E-03  (-0.1797212E-03)
 number of electron     247.9999999 magnetization 
 augmentation part      -13.3741188 magnetization 

 Broyden mixing:
  rms(total) = 0.18075E-01    rms(broyden)= 0.66969E-01
  rms(prec ) = 0.22202E-01
  weight for this iteration     100.00
  WARNING: grid for Broyden might be to small

 eigenvalues of (default mixing * dielectric matrix)
  average eigenvalue GAMMA=   0.9114
  2.6046  1.3850  1.3850  0.6725  0.6725  0.7979  0.4945  0.4945  0.6301  0.3878
  0.5008

 Free energy of the ion-electron system (eV)
  ---------------------------------------------------
  alpha Z        PSCENC =        24.47546949
  Ewald energy   TEWEN  =     27173.67246882
  -Hartree energ DENC   =    -32475.99127071
  -exchange      EXHF   =         0.00000000
  -V(xc)+E(xc)   XCENC  =      -258.84763885
  PAW double counting   =     33661.19025769   -33073.02843880
  entropy T*S    EENTRO =        -0.15460150
  eigenvalues    EBANDS =     -1854.97366363
  atomic energy  EATOM  =      6230.80365586
  Solvation  Ediel_sol  =         0.00000000
  ---------------------------------------------------
  free energy    TOTEN  =      -572.85376162 eV

  energy without entropy =     -572.69916012  energy(sigma->0) =     -572.77646087


--------------------------------------------------------------------------------------------------------




--------------------------------------- Iteration      1(  13)  ---------------------------------------


    POTLOK:  cpu time      1.8783: real time      1.9039
    SETDIJ:  cpu time      1.3861: real time      1.3867
    EDDIAG:  cpu time     48.3142: real time     48.3371
     EDDAV:  cpu time    216.2639: real time    216.3826
       DOS:  cpu time      0.0104: real time      0.0108
    CHARGE:  cpu time     27.3981: real time     27.4243
    MIXING:  cpu time      0.0574: real time      0.0577
    --------------------------------------------
      LOOP:  cpu time    295.3085: real time    295.5031

 eigenvalue-minimisations  :  2688
 total energy-change (2. order) : 0.1389722E-02  (-0.2492278E-03)
 number of electron     247.9999999 magnetization 
 augmentation part      -13.3740249 magnetization 

 Broyden mixing:
  rms(total) = 0.22052E-01    rms(broyden)= 0.11960E+00
  rms(prec ) = 0.26726E-01
  weight for this iteration     100.00
  WARNING: grid for Broyden might be to small

 eigenvalues of (default mixing * dielectric matrix)
  average eigenvalue GAMMA=   0.9757
  2.6486  2.6486  0.7948  0.7948  0.8777  0.4956  0.4956  0.3894  0.6713  0.6713
  0.6512  0.5690

 Free energy of the ion-electron system (eV)
  ---------------------------------------------------
  alpha Z        PSCENC =        24.47546949
  Ewald energy   TEWEN  =     27173.67246882
  -Hartree energ DENC   =    -32475.76624409
  -exchange      EXHF   =         0.00000000
  -V(xc)+E(xc)   XCENC  =      -258.85366849
  PAW double counting   =     33653.94398688   -33065.78131271
  entropy T*S    EENTRO =        -0.15461988
  eigenvalues    EBANDS =     -1855.19210777
  atomic energy  EATOM  =      6230.80365586
  Solvation  Ediel_sol  =         0.00000000
  ---------------------------------------------------
  free energy    TOTEN  =      -572.85237190 eV

  energy without entropy =     -572.69775202  energy(sigma->0) =     -572.77506196


--------------------------------------------------------------------------------------------------------




--------------------------------------- Iteration      1(  14)  ---------------------------------------


    POTLOK:  cpu time      1.8835: real time      1.9095
    SETDIJ:  cpu time      1.4604: real time      1.4616
    EDDIAG:  cpu time     48.2919: real time     48.3146
     EDDAV:  cpu time    221.9199: real time    222.0343
       DOS:  cpu time      0.0033: real time      0.0033
    CHARGE:  cpu time     27.3757: real time     27.4017
    MIXING:  cpu time      0.0452: real time      0.0451
    --------------------------------------------
      LOOP:  cpu time    300.9798: real time    301.1701

 eigenvalue-minimisations  :  2816
 total energy-change (2. order) : 0.1523478E-03  (-0.7211152E-04)
 number of electron     247.9999999 magnetization 
 augmentation part      -13.3758915 magnetization 

 Broyden mixing:
  rms(total) = 0.29636E-02    rms(broyden)= 0.22450E-01
  rms(prec ) = 0.38950E-02
  weight for this iteration     100.00
  WARNING: grid for Broyden might be to small

 eigenvalues of (default mixing * dielectric matrix)
  average eigenvalue GAMMA=   1.0543
  3.4730  2.5840  1.1096  1.1096  0.7224  0.7224  0.8514  0.4918  0.4918  0.3903
  0.6070  0.6070  0.5452

 Free energy of the ion-electron system (eV)
  ---------------------------------------------------
  alpha Z        PSCENC =        24.47546949
  Ewald energy   TEWEN  =     27173.67246882
  -Hartree energ DENC   =    -32475.46048638
  -exchange      EXHF   =         0.00000000
  -V(xc)+E(xc)   XCENC  =      -258.83984719
  PAW double counting   =     33653.36746050   -33065.20389457
  entropy T*S    EENTRO =        -0.15498198
  eigenvalues    EBANDS =     -1855.51206412
  atomic energy  EATOM  =      6230.80365586
  Solvation  Ediel_sol  =         0.00000000
  ---------------------------------------------------
  free energy    TOTEN  =      -572.85221955 eV

  energy without entropy =     -572.69723757  energy(sigma->0) =     -572.77472856


--------------------------------------------------------------------------------------------------------




--------------------------------------- Iteration      1(  15)  ---------------------------------------


    POTLOK:  cpu time      1.8979: real time      1.9301
    SETDIJ:  cpu time      1.3878: real time      1.3883
    EDDIAG:  cpu time     48.2003: real time     48.2398
     EDDAV:  cpu time    216.1748: real time    216.2977
       DOS:  cpu time      0.0036: real time      0.0036
    CHARGE:  cpu time     27.3089: real time     27.3327
    MIXING:  cpu time      0.0447: real time      0.0447
    --------------------------------------------
      LOOP:  cpu time    295.0180: real time    295.2370

 eigenvalue-minimisations  :  2688
 total energy-change (2. order) : 0.3959869E-03  (-0.9446252E-04)
 number of electron     247.9999999 magnetization 
 augmentation part      -13.3768386 magnetization 

 Broyden mixing:
  rms(total) = 0.87515E-02    rms(broyden)= 0.47118E-01
  rms(prec ) = 0.10278E-01
  weight for this iteration     100.00
  WARNING: grid for Broyden might be to small

 eigenvalues of (default mixing * dielectric matrix)
  average eigenvalue GAMMA=   1.1231
  4.5701  2.5777  1.5566  0.7589  0.7589  0.8556  0.8556  0.4934  0.4934  0.3896
  0.6385  0.6385  0.6306  0.5063

 Free energy of the ion-electron system (eV)
  ---------------------------------------------------
  alpha Z        PSCENC =        24.47546949
  Ewald energy   TEWEN  =     27173.67246882
  -Hartree energ DENC   =    -32475.28072347
  -exchange      EXHF   =         0.00000000
  -V(xc)+E(xc)   XCENC  =      -258.83625590
  PAW double counting   =     33653.53722159   -33065.37322551
  entropy T*S    EENTRO =        -0.15507273
  eigenvalues    EBANDS =     -1855.69536172
  atomic energy  EATOM  =      6230.80365586
  Solvation  Ediel_sol  =         0.00000000
  ---------------------------------------------------
  free energy    TOTEN  =      -572.85182357 eV

  energy without entropy =     -572.69675083  energy(sigma->0) =     -572.77428720


--------------------------------------------------------------------------------------------------------




--------------------------------------- Iteration      1(  16)  ---------------------------------------


    POTLOK:  cpu time      1.8797: real time      1.9131
    SETDIJ:  cpu time      1.3860: real time      1.3868
    EDDIAG:  cpu time     48.1815: real time     48.2038
     EDDAV:  cpu time    216.8854: real time    216.9965
       DOS:  cpu time      0.0026: real time      0.0026
    CHARGE:  cpu time     27.3632: real time     27.3864
    MIXING:  cpu time      0.0454: real time      0.0454
    --------------------------------------------
      LOOP:  cpu time    295.7437: real time    295.9345

 eigenvalue-minimisations  :  2704
 total energy-change (2. order) :-0.2778765E-03  (-0.5092205E-04)
 number of electron     247.9999999 magnetization 
 augmentation part      -13.3759247 magnetization 

 Broyden mixing:
  rms(total) = 0.23450E-02    rms(broyden)= 0.18702E-01
  rms(prec ) = 0.29040E-02
  weight for this iteration     100.00
  WARNING: grid for Broyden might be to small

 eigenvalues of (default mixing * dielectric matrix)
  average eigenvalue GAMMA=   1.2161
  5.9399  2.5807  1.5604  1.0493  1.0493  0.7535  0.7535  0.4939  0.4939  0.3897
  0.6943  0.6943  0.6807  0.6108  0.4978

 Free energy of the ion-electron system (eV)
  ---------------------------------------------------
  alpha Z        PSCENC =        24.47546949
  Ewald energy   TEWEN  =     27173.67246882
  -Hartree energ DENC   =    -32475.17103498
  -exchange      EXHF   =         0.00000000
  -V(xc)+E(xc)   XCENC  =      -258.84474664
  PAW double counting   =     33653.13461063   -33064.97097314
  entropy T*S    EENTRO =        -0.15498138
  eigenvalues    EBANDS =     -1855.79657012
  atomic energy  EATOM  =      6230.80365586
  Solvation  Ediel_sol  =         0.00000000
  ---------------------------------------------------
  free energy    TOTEN  =      -572.85210144 eV

  energy without entropy =     -572.69712007  energy(sigma->0) =     -572.77461075


--------------------------------------------------------------------------------------------------------




--------------------------------------- Iteration      1(  17)  ---------------------------------------


    POTLOK:  cpu time      1.8850: real time      1.9162
    SETDIJ:  cpu time      1.3898: real time      1.3905
    EDDIAG:  cpu time     48.2508: real time     48.2745
     EDDAV:  cpu time    216.2619: real time    216.3781
       DOS:  cpu time      0.0026: real time      0.0026
    CHARGE:  cpu time     27.3347: real time     27.3577
    MIXING:  cpu time      0.0460: real time      0.0460
    --------------------------------------------
      LOOP:  cpu time    295.1708: real time    295.3656

 eigenvalue-minimisations  :  2688
 total energy-change (2. order) : 0.1236746E-03  (-0.3112969E-04)
 number of electron     247.9999999 magnetization 
 augmentation part      -13.3761688 magnetization 

 Broyden mixing:
  rms(total) = 0.12470E-02    rms(broyden)= 0.13453E-01
  rms(prec ) = 0.16390E-02
  weight for this iteration     100.00
  WARNING: grid for Broyden might be to small

 eigenvalues of (default mixing * dielectric matrix)
  average eigenvalue GAMMA=   1.3518
  7.6832  2.5508  1.7167  1.7167  0.9466  0.9466  0.7423  0.7423  0.4941  0.4941
  0.7178  0.7178  0.3897  0.6476  0.6163  0.5057

 Free energy of the ion-electron system (eV)
  ---------------------------------------------------
  alpha Z        PSCENC =        24.47546949
  Ewald energy   TEWEN  =     27173.67246882
  -Hartree energ DENC   =    -32475.03605118
  -exchange      EXHF   =         0.00000000
  -V(xc)+E(xc)   XCENC  =      -258.85359648
  PAW double counting   =     33651.31064117   -33063.14728358
  entropy T*S    EENTRO =        -0.15497275
  eigenvalues    EBANDS =     -1855.92230913
  atomic energy  EATOM  =      6230.80365586
  Solvation  Ediel_sol  =         0.00000000
  ---------------------------------------------------
  free energy    TOTEN  =      -572.85197777 eV

  energy without entropy =     -572.69700502  energy(sigma->0) =     -572.77449139


--------------------------------------------------------------------------------------------------------




--------------------------------------- Iteration      1(  18)  ---------------------------------------


[...]
   0.664E+01 -.119E+02 0.480E+02   -.704E+01 0.114E+02 -.479E+02   -.331E-01 -.172E+00 0.809E-01   -.747E-05 0.119E-04 -.987E-05
   -.447E+01 0.187E+02 -.186E+02   0.538E+01 -.215E+02 0.158E+02   -.603E+00 0.220E+01 0.230E+01   -.739E-05 0.227E-06 -.111E-04
   -.399E+01 -.701E+01 0.303E+02   0.466E+01 0.102E+02 -.306E+02   -.972E+00 -.451E+01 0.361E+00   -.170E-04 -.123E-04 -.213E-04
   0.235E+02 0.692E+01 0.559E+01   -.266E+02 -.718E+01 -.364E+01   0.280E+01 0.490E+00 -.178E+01   -.137E-04 -.458E-05 -.161E-04
   0.833E+01 -.142E+02 0.176E+03   -.785E+01 0.134E+02 -.173E+03   -.379E+00 0.197E+01 -.276E+01   0.182E-04 0.660E-05 -.157E-04
   -.909E+01 0.268E+01 -.136E+03   0.947E+01 -.249E+01 0.135E+03   -.152E+00 -.610E+00 0.325E+01   0.753E-06 0.394E-05 -.187E-04
   0.515E+02 0.901E+01 -.685E+01   -.504E+02 -.927E+01 0.544E+01   -.151E+01 0.578E+00 0.146E+01   -.787E-06 -.964E-05 -.295E-04
   -.400E+02 0.210E+02 0.244E+02   0.432E+02 -.212E+02 -.251E+02   -.349E+01 -.620E-01 0.150E+00   0.379E-04 0.205E-04 -.646E-04
   0.918E+01 -.154E+02 -.222E+03   -.952E+01 0.167E+02 0.223E+03   -.336E+00 -.116E+01 0.146E+00   -.801E-05 0.120E-05 0.112E-04
   0.321E+02 -.117E+01 0.229E+03   -.334E+02 0.933E+00 -.229E+03   0.261E+01 0.730E+00 -.696E+00   0.234E-04 0.888E-05 -.358E-04
   -.461E+02 0.132E+02 0.125E+03   0.446E+02 -.157E+02 -.123E+03   0.131E+01 0.288E+01 -.113E+01   0.176E-04 -.377E-04 -.360E-04
   0.166E+02 -.426E+01 0.193E+03   -.158E+02 0.442E+01 -.193E+03   -.132E+01 0.411E+00 0.106E+00   -.599E-05 0.111E-04 -.478E-04
   -.944E+01 0.478E+02 -.145E+01   0.875E+01 -.450E+02 0.254E+01   0.918E+00 -.317E+01 -.104E+01   -.418E-04 -.381E-04 -.322E-04
   -.896E+01 -.205E+02 -.214E+03   0.957E+01 0.195E+02 0.215E+03   -.856E+00 0.891E+00 -.132E+01   -.434E-05 -.178E-04 -.241E-04
   -.154E+02 -.671E+01 0.255E+03   0.154E+02 0.622E+01 -.255E+03   -.312E+00 0.581E+00 -.104E+00   0.418E-04 -.284E-04 -.304E-04
   0.188E+02 0.132E+02 -.101E+03   -.187E+02 -.107E+02 0.101E+03   -.417E+00 -.302E+01 0.465E+00   -.679E-05 -.419E-05 -.128E-04
   0.182E+02 -.801E+01 -.216E+03   -.177E+02 0.843E+01 0.214E+03   -.221E+00 -.529E+00 0.304E+01   0.327E-04 -.210E-04 -.504E-05
   -.264E+02 -.355E+02 0.193E+03   0.251E+02 0.365E+02 -.189E+03   0.163E+01 -.291E+00 -.363E+01   -.528E-05 0.304E-04 -.268E-04
   0.344E+02 0.206E+02 0.201E+03   -.350E+02 -.193E+02 -.201E+03   0.101E+01 -.241E+01 -.384E+00   -.238E-04 -.194E-04 -.420E-04
   0.538E+01 0.191E+02 0.145E+03   -.432E+01 -.180E+02 -.143E+03   -.467E+00 -.250E+01 -.311E+01   -.105E-04 -.295E-04 -.238E-04
   -.206E+02 -.401E+02 -.206E+03   0.188E+02 0.405E+02 0.206E+03   0.102E+01 -.251E+01 0.344E+00   -.180E-04 0.198E-05 -.619E-04
   -.362E+02 0.363E+02 -.215E+03   0.398E+02 -.377E+02 0.215E+03   -.339E+01 0.105E+01 0.102E+01   0.570E-05 0.346E-04 -.198E-04
   -.429E+02 0.102E+01 0.188E+03   0.405E+02 -.253E+01 -.187E+03   0.222E+01 0.196E+01 -.521E+00   0.350E-04 -.537E-04 -.387E-04
   -.248E+02 0.112E+02 0.237E+03   0.245E+02 -.977E+01 -.234E+03   -.108E+01 -.196E+01 -.269E+01   0.511E-04 -.120E-05 -.479E-04
   -.659E+01 0.318E+02 -.213E+03   0.552E+01 -.324E+02 0.217E+03   0.568E+00 0.176E+01 -.297E+01   -.410E-04 -.175E-05 -.961E-05
   -.172E+02 -.286E+02 0.283E+02   0.154E+02 0.276E+02 -.276E+02   0.248E+01 0.183E+00 -.221E+01   -.206E-04 0.138E-04 -.281E-04
   0.274E+01 -.138E+02 -.133E+03   -.227E+01 0.149E+02 0.132E+03   -.568E+00 -.144E+01 0.558E+00   0.169E-04 0.119E-04 0.209E-05
   0.252E+02 -.425E+01 0.140E+03   -.264E+02 0.507E+01 -.140E+03   -.864E-01 -.124E+01 -.363E+00   -.656E-05 0.173E-04 -.384E-04
   -.598E+01 -.164E+02 -.146E+03   0.450E+01 0.135E+02 0.145E+03   0.112E+01 0.311E+01 0.156E+01   0.671E-04 -.157E-04 0.170E-04
   0.170E+02 -.603E+02 -.134E+03   -.182E+02 0.567E+02 0.131E+03   0.196E+01 0.255E+01 0.389E+01   0.321E-05 0.177E-04 -.304E-04
   0.174E+02 -.213E+02 0.125E+03   -.167E+02 0.191E+02 -.125E+03   -.825E+00 0.278E+01 0.128E+00   0.594E-05 0.303E-05 -.446E-04
   0.373E+01 -.249E+02 -.177E+03   -.254E+01 0.257E+02 0.174E+03   -.205E+01 0.351E+00 0.472E+01   0.507E-05 -.115E-04 -.251E-04
   0.143E+02 0.159E+02 0.151E+03   -.145E+02 -.133E+02 -.150E+03   0.230E+00 -.265E+01 -.162E+01   0.279E-04 -.174E-04 -.473E-04
   0.245E+01 0.980E+00 -.117E+03   -.328E+01 -.100E+00 0.116E+03   0.129E+01 -.124E+01 0.195E+01   0.120E-04 0.221E-04 -.141E-04
   -.617E+00 -.310E+01 -.598E+02   0.198E+00 0.267E+01 0.590E+02   0.652E+00 0.647E-01 0.433E+00   -.319E-05 0.233E-04 -.651E-05
   0.515E+02 0.801E+01 0.130E+03   -.538E+02 -.110E+02 -.129E+03   0.252E+01 0.369E+01 0.139E-01   -.557E-04 -.254E-04 -.427E-04
   -.254E+02 0.152E+02 0.853E+02   0.254E+02 -.132E+02 -.859E+02   0.398E+00 -.179E+01 -.337E+00   0.570E-04 -.413E-04 -.400E-04
   -.707E+01 -.217E+02 -.249E+03   0.693E+01 0.216E+02 0.252E+03   0.198E-01 0.264E+00 -.328E+01   0.110E-04 0.157E-04 -.114E-04
   -.806E+01 0.563E+02 -.831E+02   0.825E+01 -.564E+02 0.853E+02   -.386E+00 -.645E+00 -.160E+01   -.495E-04 -.231E-04 -.234E-04
   0.129E+02 0.182E+01 0.261E+03   -.122E+02 -.757E+00 -.259E+03   -.372E+00 -.156E+01 -.231E+01   -.228E-04 -.694E-05 -.690E-04
   0.124E+02 0.181E+02 0.263E+03   -.132E+02 -.191E+02 -.268E+03   0.633E+00 0.131E+01 0.431E+01   -.300E-04 -.182E-04 -.339E-04
   0.277E+02 0.328E+02 -.207E+03   -.276E+02 -.311E+02 0.208E+03   0.704E+00 -.141E+01 -.141E+01   0.559E-05 0.239E-05 0.526E-05
   0.367E+01 0.126E+02 -.239E+03   -.365E+01 -.130E+02 0.238E+03   -.669E+00 -.238E-01 0.160E+01   -.308E-04 0.608E-05 0.147E-05
   -.700E+01 -.114E+02 -.171E+03   0.564E+01 0.113E+02 0.168E+03   0.125E+01 0.783E+00 0.446E+01   0.342E-05 0.165E-04 0.566E-05
   -.228E+02 0.891E+01 -.221E+03   0.227E+02 -.874E+01 0.219E+03   0.228E-01 0.340E+00 0.219E+01   -.316E-04 -.455E-04 -.119E-04
   -.763E+01 -.158E+02 -.137E+03   0.746E+01 0.186E+02 0.136E+03   0.852E+00 -.250E+01 0.165E+01   -.932E-05 -.387E-05 -.508E-04
   0.178E+02 0.136E+02 0.262E+03   -.183E+02 -.125E+02 -.260E+03   0.185E+01 -.183E+01 -.260E+01   -.334E-05 0.540E-05 -.364E-04
   -.273E+02 -.373E+02 0.107E+03   0.284E+02 0.381E+02 -.108E+03   -.659E+00 -.173E-02 0.598E+00   -.182E-05 0.502E-04 -.563E-04
   -.351E+02 -.147E+01 0.601E+02   0.344E+02 0.200E+01 -.610E+02   0.108E+01 -.514E+00 0.968E+00   0.478E-04 0.283E-04 -.646E-04
   -.334E+02 -.153E+02 0.110E+03   0.338E+02 0.138E+02 -.111E+03   -.996E+00 0.262E+01 -.416E+00   0.390E-04 0.185E-04 -.537E-04
   0.414E+02 -.798E+01 -.192E+03   -.409E+02 0.529E+01 0.190E+03   -.275E+00 0.305E+01 0.257E+01   0.153E-04 -.230E-05 -.110E-04
   -.494E+01 -.110E+02 -.244E+03   0.454E+01 0.123E+02 0.250E+03   0.508E+00 -.164E+01 -.497E+01   0.732E-05 0.560E-05 0.383E-04
   -.252E+02 0.291E+01 0.257E+03   0.252E+02 -.232E+01 -.259E+03   0.304E+00 -.124E+01 0.137E+01   0.300E-04 0.596E-04 -.369E-04
   -.125E+01 0.157E+01 0.254E+02   0.155E+01 -.122E+01 -.248E+02   -.123E+01 -.770E+00 -.126E+01   0.397E-04 -.522E-05 -.855E-05
   0.136E+02 0.277E+02 0.127E+03   -.141E+02 -.275E+02 -.127E+03   0.552E+00 0.610E+00 0.111E+01   -.375E-04 -.123E-04 -.497E-04
   0.174E+02 0.160E+02 -.238E+03   -.174E+02 -.151E+02 0.236E+03   0.957E-02 -.162E+01 0.169E+01   0.423E-04 -.168E-04 -.101E-05
   -.341E+01 -.303E+01 -.948E+02   0.664E+01 0.328E+01 0.924E+02   -.311E+01 0.601E+00 0.372E+01   -.378E-04 0.244E-05 -.921E-05
   0.754E+01 -.141E+02 0.178E+03   -.750E+01 0.126E+02 -.177E+03   0.344E+00 0.245E+01 -.391E+00   0.812E-05 0.448E-05 -.389E-04
   -.867E+01 0.890E+01 -.250E+03   0.862E+01 -.918E+01 0.248E+03   0.252E-01 0.212E+00 0.183E+01   0.169E-04 -.518E-05 0.456E-04
   -.855E+01 -.104E+02 0.182E+03   0.677E+01 0.814E+01 -.180E+03   0.815E+00 0.294E+01 -.266E+01   -.665E-05 0.262E-04 -.478E-04
   -.291E+00 -.305E+01 0.977E+02   -.440E+00 0.467E+01 -.956E+02   0.939E+00 -.262E+01 -.371E+01   -.413E-05 0.145E-04 -.414E-04
   -.140E+02 0.145E+02 -.175E+03   0.123E+02 -.134E+02 0.174E+03   0.166E+01 -.835E+00 0.136E+01   0.222E-04 0.870E-05 -.431E-05
   0.540E+02 0.154E+02 -.107E+03   -.500E+02 -.178E+02 0.106E+03   -.375E+01 0.319E+01 0.634E+00   0.979E-05 -.226E-04 -.175E-04
 -----------------------------------------------------------------------------------------------
   -.520E+01 0.259E+01 -.157E+02   -.142E-13 0.114E-12 0.156E-12   0.520E+01 -.259E+01 0.157E+02   0.145E-03 -.741E-05 -.176E-02


 POSITION                                       TOTAL-FORCE (eV/Angst)
 -----------------------------------------------------------------------------------
     10.19700     14.23070     13.70370         0.421172      0.791463     -0.763339
     10.50250      2.06190     11.74354         0.216826      1.307584     -0.208203
      9.07374     13.70870     11.51571        -0.306520     -0.740310     -0.050598
     13.53020      0.50273     10.03968         0.114387     -0.399685     -0.627682
     14.04930     12.07000     10.67456        -0.083305      0.019853      0.128851
      8.57760      0.73163     10.04860        -0.318167      0.181688      0.287131
     13.45420     13.58890     12.54287        -0.202628      1.030946     -0.981542
      8.68109      1.02125     12.06734         1.130392     -1.031286     -0.007791
     12.16150     12.49520     10.76999        -0.432018     -0.615666      0.140290
     11.68940      1.86628     13.88621         0.304573     -0.579747     -0.507676
     10.66130      2.83033     11.68750        -0.305959     -1.304518      0.016390
     12.43310      1.17080     11.97045        -0.299703      0.228311      0.171466
      8.47720      8.86170     11.32701         0.153713      1.204861     -0.437788
      4.88387     11.89830     13.55392         0.180962     -0.469862      1.750544
      1.07110      1.05869     12.41731        -0.489370      0.375860      0.130907
      7.49838      1.65251     12.52463        -0.437841     -0.182597     -0.607757
      3.75172      8.45905     14.58003        -0.668043     -0.000420      0.578815
      2.14772      0.41585     10.45358         1.601213      0.505440     -0.212712
      7.78371      3.77414     11.84884        -0.245692      0.497371      0.536544
     13.48650      9.08981     11.05852        -0.595378      0.639977      0.308858
      9.36634      5.24841     12.84579         0.251191     -0.552030     -0.010706
      9.16995      9.64025     14.62661        -0.435391     -0.095761     -0.885944
      4.13943      3.84814     10.15527        -0.369427     -0.055001      0.323932
      2.67099     12.30750     13.25142        -0.380862     -0.603830      0.291424
      7.41051      7.99989     14.55796         0.421709     -0.171539      0.905605
     10.03160     10.62590     11.15888         0.281884      0.571552      0.005986
     14.29850      3.66272     10.69539         0.474824     -1.230579      0.046819
      9.83465      7.14643     11.62772         0.553263     -1.582214     -0.966084
     10.23250     13.23900     14.75586        -0.710282     -2.260691      0.190495
      7.32789      2.01960     14.78294        -0.091115     -0.063345      0.725259
      5.70993      6.68166     10.93870        -0.162556      0.589359      0.776676
      4.32610      1.61635     10.33396        -1.504229     -0.578832      0.168300
     11.39500      2.86585     14.91551        -0.393751      1.085405      0.011642
     11.76320      9.97108     12.53236         0.775097     -0.773851     -1.552398
      2.98624      6.44409     13.78280        -0.106569     -0.417531     -0.120751
      0.30794     10.96340     11.30332        -1.222718     -0.463028     -1.311182
      4.70284      4.80660     13.97968        -0.293578      0.322120      0.423442
     13.58150     12.79470     13.71084         0.863002     -1.003616      0.720297
      2.11252      6.40969     11.48872        -0.144301      0.643251      0.514066
     11.87650     11.42810     14.20000        -0.904918      1.302084      1.378061
      2.00503      4.12305     11.21607        -0.026748     -0.163461     -0.262049
      0.67116     11.19650     13.52266         0.528354     -0.367732      0.888712
      4.84571      9.71585     13.01282         0.269492     -0.392449     -0.375480
     13.65720      1.35382     11.19614         0.230964      0.854824      0.505244
      5.59988      4.57721     11.86559         0.344660      0.149379     -1.003416
      6.35616     12.81330     15.12067        -0.120558     -0.010518     -0.293641
     11.71230      4.81562     13.46838        -0.253221     -0.659568      0.461764
      3.70026      7.46436     10.11237         0.449506     -0.540823      0.092247
     11.20880      6.06034     10.00000        -0.084502      0.388377      0.032355
      0.89530      5.31415     14.44609         0.966338      0.344552     -0.561582
     12.12850      6.76787     14.70923        -0.664795     -0.383808     -0.027167
     14.27430      7.36263     14.12624        -0.080652      0.649389      1.717937
      8.24789      5.81675     14.77078        -0.218517      0.505651      0.129282
      8.26128     11.89850     13.98073         0.774093      0.174139      1.089247
      2.21914     10.96110     10.10741         1.585693     -0.669004      0.139307
      8.54332     12.28120     11.68710         0.428118      0.793163     -0.219702
      5.45149      0.65766     12.04911         0.439748      0.005433      0.057085
      5.40979     12.90070     11.64824        -0.689651      1.291138     -1.187745
      2.16104     14.34480     14.01140         0.385083      0.552895      0.059749
      0.31544      9.52677     15.12020         0.133111     -0.506119      0.222124
      6.75878     11.90380     10.16930         0.239980     -0.604312     -0.315161
      6.61690      8.35585     12.46815        -0.964988     -0.434583     -0.764492
     12.89540      5.27221     11.42381         0.105487      0.816120      0.491675
      3.44410      3.06650     14.72256        -0.005425     -0.797183     -0.278084
     10.80120      8.09712     13.39198        -0.092041      0.897810      1.447858
      3.05480     12.85360     11.00566         0.375995      1.055735     -0.059309
      6.64189      4.22638     15.16711         0.049077     -0.031755     -0.628020
      4.02851      9.56307     10.87149        -1.008541      0.787451     -0.756942
     14.39460      7.17848     11.93335         0.245076     -1.158924     -1.739184
      4.27515      0.95956     14.10885        -0.029725      0.368149      0.075446
      1.55019      3.11989     13.39553         0.048701      0.964842     -0.217700
 -----------------------------------------------------------------------------------
    total drift:                               -0.002139      0.001939     -0.004349


--------------------------------------------------------------------------------------------------------



  FREE ENERGIE OF THE ION-ELECTRON SYSTEM (eV)
  ---------------------------------------------------
  free  energy   TOTEN  =      -572.85226191 eV

  energy  without entropy=     -572.69724471  energy(sigma->0) =     -572.77475331



--------------------------------------------------------------------------------------------------------


    POTLOK:  cpu time      3.2582: real time      3.2620


--------------------------------------------------------------------------------------------------------


     LOOP+:  cpu time   8128.2123: real time   8133.7433
    4ORBIT:  cpu time      0.0000: real time      0.0000



 total charge

# of ion       s       p       d       tot
------------------------------------------
    1        0.585   0.018   0.000   0.603
    2        0.577   0.028   0.000   0.605
    3        0.536   0.016   0.000   0.551
    4        0.588   0.018   0.000   0.605
    5        0.544   0.017   0.000   0.561
    6        0.390   0.001   0.000   0.391
    7        0.590   0.021   0.000   0.611
    8        0.588   0.022   0.000   0.610
    9        0.391   0.001   0.000   0.392
   10        0.589   0.018   0.000   0.607
   11        0.590   0.027   0.000   0.616
   12        0.584   0.017   0.000   0.601
   13        0.803   0.890   0.000   1.693
   14        0.768   1.008   0.000   1.776
   15        0.764   0.936   0.000   1.700
   16        0.762   1.011   0.000   1.773
   17        0.836   0.780   0.000   1.616
   18        0.822   0.820   0.000   1.641
   19        0.802   0.860   0.000   1.661
   20        0.806   0.853   0.000   1.659
   21        0.761   0.908   0.000   1.669
   22        0.827   0.736   0.000   1.563
   23        0.805   0.862   0.000   1.668
   24        0.773   0.984   0.000   1.757
   25        0.800   0.853   0.000   1.653
   26        0.807   0.844   0.000   1.651
   27        0.787   0.863   0.000   1.650
   28        0.763   1.010   0.000   1.773
   29        0.815   0.824   0.000   1.639
   30        0.858   0.744   0.000   1.601
   31        0.804   0.847   0.000   1.651
   32        0.801   0.865   0.000   1.666
   33        0.878   0.727   0.000   1.605
   34        0.771   0.941   0.000   1.712
   35        0.763   0.896   0.000   1.660
   36        0.767   0.976   0.000   1.743
   37        0.765   0.930   0.000   1.695
   38        0.799   0.923   0.000   1.722
   39        0.770   0.885   0.000   1.655
   40        0.788   0.885   0.000   1.673
   41        0.763   0.894   0.000   1.657
   42        0.769   0.970   0.000   1.738
   43        0.771   0.965   0.000   1.736
   44        0.743   0.993   0.000   1.737
   45        0.761   0.947   0.000   1.708
   46        0.880   0.701   0.000   1.581
   47        0.772   0.879   0.000   1.651
   48        0.791   0.892   0.000   1.682
   49        0.881   0.707   0.000   1.588
   50        0.827   0.763   0.000   1.590
   51        0.804   0.880   0.000   1.683
   52        0.772   0.926   0.000   1.699
   53        0.797   0.871   0.000   1.668
   54        0.766   0.871   0.000   1.638
   55        0.811   0.882   0.000   1.692
   56        0.756   0.946   0.000   1.701
   57        0.769   0.931   0.000   1.700
   58        0.772   0.968   0.000   1.740
   59        0.814   0.850   0.000   1.664
   60        0.861   0.716   0.000   1.578
   61        0.870   0.747   0.000   1.617
   62        0.770   0.941   0.000   1.712
   63        0.759   0.933   0.000   1.692
   64        0.807   0.877   0.000   1.684
   65        0.785   0.927   0.000   1.711
   66        0.776   0.922   0.000   1.699
   67        0.796   0.856   0.000   1.652
   68        0.795   0.858   0.000   1.653
   69        0.773   0.920   0.000   1.693
   70        0.788   0.834   0.000   1.622
   71        0.775   0.870   0.000   1.645
--------------------------------------------------
tot         53.388  52.102   0.000 105.490


 total amount of memory used by VASP MPI-rank0   352113. kBytes
=======================================================================

   base                                    :      30000. kBytes
   nonl-proj                               :      67910. kBytes
   fftplans                                :      97995. kBytes
   grid                                    :      75605. kBytes
   one-center                              :         15. kBytes
   wavefun                                 :      80588. kBytes

  
  
 General timing and accounting informations for this job:
 ========================================================
  
                  Total CPU time used (sec):     8267.679
                            User time (sec):     7277.672
                          System time (sec):      990.006
                         Elapsed time (sec):     8273.388
  
                   Maximum memory used (kb):      608428.
                   Average memory used (kb):          N/A
  
                          Minor page faults:     14697700
                          Major page faults:         1190
                 Voluntary context switches:         4277
