 vasp.6.5.0 16Dec24 (build Jan 20 2025 08:32:48) complex                         
 executed on        HPECrayEX_GCC date 2025.07.22  11:02:28
 running  128 mpi-ranks, with    1 threads/rank, on    1 nodes
 distrk:  each k-point on  128 cores,    1 groups
 distr:  one band on NCORE=  16 cores,    8 groups


--------------------------------------------------------------------------------------------------------


 INCAR:
   SYSTEM = a-Si SPC
   NCORE = 16
   ISTART = 1
   ICHARG = 1
   ISPIN = 1
   ISYM = 1
   EDIFF = 1E-6
   NELM = 150
   EDIFFG = -0.01
   NSW = 0
   ISIF = 2
   IBRION = -1
   PREC = Accurate
   ENCUT = 1200
   KSPACING = 0.23
   KGAMMA = .TRUE.
   METAGGA = SCAN
   LASPH = .TRUE.
   LDIAG = .FALSE.
   LMIXTAU = .TRUE.
   ADDGRID = .TRUE.
   ALGO = Normal
   ISMEAR = 0
   SIGMA = 0.1
   LORBIT = 11
   NEDOS = 2000
   LWAVE = .FALSE.
   LCHARG = .FALSE.

 POTCAR:    PAW_PBE H 15Jun2001                   
 POTCAR:    PAW_PBE Si 05Jan2001                  
 POTCAR:    PAW_PBE H 15Jun2001                   
   SHA256 =  030f79b5d3ab3cf0e668861823c8fb652ff669f3e15e46930bd03bfd63a607b6 H/POTCAR              
   COPYR  = (c) Copyright 15Jun2001 Georg Kresse                                                    
   COPYR  = This file is part of the software VASP. Any use, copying, and all other rights are regul
   COPYR  = If you do not have a valid VASP license, you may not use, copy or distribute this file. 
   VRHFIN =H: ultrasoft test                                                                        
   LEXCH  = PE                                                                                      
   EATOM  =    12.4884 eV,    0.9179 Ry                                                             
                                                                                                    
   TITEL  = PAW_PBE H 15Jun2001                                                                     
   LULTRA =        F    use ultrasoft PP ?                                                          
   IUNSCR =        0    unscreen: 0-lin 1-nonlin 2-no                                               
   RPACOR =    0.000    partial core radius                                                         
   POMASS =    1.000; ZVAL   =    1.000    mass and valenz                                          
   RCORE  =    1.100    outmost cutoff radius                                                       
   RWIGS  =    0.700; RWIGS  =    0.370    wigner-seitz radius (au A)                               
   ENMAX  =  250.000; ENMIN  =  200.000 eV                                                          
   RCLOC  =    0.701    cutoff for local pot                                                        
   LCOR   =        T    correct aug charges                                                         
   LPAW   =        T    paw PP                                                                      
   EAUG   =  400.000                                                                                
   RMAX   =    1.123    core radius for proj-oper                                                   
   RAUG   =    1.200    factor for augmentation sphere                                              
   RDEP   =    1.112    radius for radial grids                                                     
   RDEPT  =    0.926    core radius for aug-charge                                                  
                                                                                                    
   Atomic configuration                                                                             
    2 entries                                                                                       
     n  l   j            E        occ.                                                              
     1  0  0.50        -6.4927   1.0000                                                             
     2  1  0.50        -3.4015   0.0000                                                             
   Description                                                                                      
     l       E           TYP  RCUT    TYP  RCUT                                                     
     0     -6.4927494     23  1.100                                                                 
     0      6.8029130     23  1.100                                                                 
     1     -4.0817478     23  1.100                                                                 
  local pseudopotential read in
  atomic valenz-charges read in
  non local Contribution for L=           0  read in
    real space projection operators read in
  non local Contribution for L=           0  read in
    real space projection operators read in
  non local Contribution for L=           1  read in
    real space projection operators read in
    PAW grid and wavefunctions read in

   number of l-projection  operators is LMAX  =           3
   number of lm-projection operators is LMMAX =           5

 POTCAR:    PAW_PBE Si 05Jan2001                  
   SHA256 =  79d9987ad8750f624c4d6acb2a16d13abf6a777132adc04dc6c8399be72b42bb Si/POTCAR             
   COPYR  = (c) Copyright 05Jan2001 Georg Kresse                                                    
   COPYR  = This file is part of the software VASP. Any use, copying, and all other rights are regul
   COPYR  = If you do not have a valid VASP license, you may not use, copy or distribute this file. 
   VRHFIN =Si: s2p2                                                                                 
   LEXCH  = PE                                                                                      
   EATOM  =   103.0669 eV,    7.5752 Ry                                                             
                                                                                                    
   TITEL  = PAW_PBE Si 05Jan2001                                                                    
   LULTRA =        F    use ultrasoft PP ?                                                          
   IUNSCR =        1    unscreen: 0-lin 1-nonlin 2-no                                               
   RPACOR =    1.500    partial core radius                                                         
   POMASS =   28.085; ZVAL   =    4.000    mass and valenz                                          
   RCORE  =    1.900    outmost cutoff radius                                                       
   RWIGS  =    2.480; RWIGS  =    1.312    wigner-seitz radius (au A)                               
   ENMAX  =  245.345; ENMIN  =  184.009 eV                                                          
   ICORE  =        2    local potential                                                             
   LCOR   =        T    correct aug charges                                                         
   LPAW   =        T    paw PP                                                                      
   EAUG   =  322.069                                                                                
   DEXC   =    0.000                                                                                
   RMAX   =    1.950    core radius for proj-oper                                                   
   RAUG   =    1.300    factor for augmentation sphere                                              
   RDEP   =    1.993    radius for radial grids                                                     
   RDEPT  =    1.837    core radius for aug-charge                                                  
                                                                                                    
   Atomic configuration                                                                             
    6 entries                                                                                       
     n  l   j            E        occ.                                                              
     1  0  0.50     -1785.8828   2.0000                                                             
     2  0  0.50      -139.4969   2.0000                                                             
     2  1  1.50       -95.5546   6.0000                                                             
     3  0  0.50       -10.8127   2.0000                                                             
     3  1  0.50        -4.0811   2.0000                                                             
     3  2  1.50        -4.0817   0.0000                                                             
   Description                                                                                      
     l       E           TYP  RCUT    TYP  RCUT                                                     
     0    -10.8127223     23  1.900                                                                 
     0     -7.6451159     23  1.900                                                                 
     1     -4.0811372     23  1.900                                                                 
     1      2.4879257     23  1.900                                                                 
     2     -4.0817478      7  1.900                                                                 
  local pseudopotential read in
  partial core-charges read in
  partial kinetic energy density read in
  atomic valenz-charges read in
  non local Contribution for L=           0  read in
    real space projection operators read in
  non local Contribution for L=           0  read in
    real space projection operators read in
  non local Contribution for L=           1  read in
    real space projection operators read in
  non local Contribution for L=           1  read in
    real space projection operators read in
    PAW grid and wavefunctions read in

   number of l-projection  operators is LMAX  =           4
   number of lm-projection operators is LMMAX =           8

 -----------------------------------------------------------------------------
|                                                                             |
|               ----> ADVICE to this user running VASP <----                  |
|                                                                             |
|     You have a (more or less) 'large supercell' and for larger cells it     |
|     might be more efficient to use real-space projection operators.         |
|     Therefore, try LREAL= Auto in the INCAR file.                           |
|     Mind: For very accurate calculation, you might also keep the            |
|     reciprocal projection scheme (i.e. LREAL=.FALSE.).                      |
|                                                                             |
 -----------------------------------------------------------------------------

 -----------------------------------------------------------------------------
|                                                                             |
|               ----> ADVICE to this user running VASP <----                  |
|                                                                             |
|     You enforced a specific xc type in the INCAR file but a different       |
|     type was found in the POTCAR file.                                      |
|     I HOPE YOU KNOW WHAT YOU ARE DOING!                                     |
|                                                                             |
 -----------------------------------------------------------------------------

  PAW_PBE H 15Jun2001                   :
 energy of atom  1       EATOM=  -12.4884
 kinetic energy error for atom=    0.0000 (will be added to EATOM!!)
  PAW_PBE Si 05Jan2001                  :
 energy of atom  2       EATOM= -103.0669
 kinetic energy error for atom=    0.0001 (will be added to EATOM!!)


 POSCAR:  H Si
  positions in cartesian coordinates
  No initial velocities read in


 exchange-correlation table for SCAN
   RHO(1)=    0.500       N(1)  =     2000
   RHO(2)=  100.500       N(2)  =     4000



--------------------------------------------------------------------------------------------------------


 ion  position               nearest neighbor table
   1  0.626  0.999  0.208-  18 0.83
   2  0.514  0.181  0.207-  22 0.79
   3  0.687  0.168  0.642-  38 0.69
   4  0.860  0.158  0.448-  33 0.78
   5  0.817  0.111  0.003-  10 0.74
   6  0.486  0.083  0.670-  44 0.78
   7  0.382  0.177  0.064-  92 1.56
   8  0.706  0.313  0.133-  30 0.76
   9  0.801  0.077  0.284-  20 0.72
  10  0.812  0.073  0.954-   5 0.74
  11  0.951  0.206  0.292- 103 1.51
  12  0.942  0.120  0.216-  90 1.44
  13  0.601  0.425  0.244-  78 1.49
  14  0.445  0.281  0.583-  60 1.54
  15  0.371  0.202  0.769-  84 1.50
  16  0.881  0.927  0.671-  46 1.48
  17  0.575  0.261  0.387-  35 0.72
  18  0.635  0.028  0.138-   1 0.83
  19  0.464  0.015  0.067-  67 1.46
  20  0.780  0.087  0.220-   9 0.72
  21  0.616  0.882  0.635-  23 0.75
  22  0.479  0.141  0.214-   2 0.79
  23  0.575  0.912  0.631-  21 0.75
  24  0.691  0.319  0.617-  72 1.56
  25  0.004  0.995  0.515-  98 1.53
  26  0.882  0.400  0.096-  74 1.37
  27  0.723  0.979  0.565-  32 0.85
  28  0.401  0.074  0.455-  94 1.51
  29  0.675  0.934  0.980- 122 1.47
  30  0.660  0.329  0.107-   8 0.76
  31  0.351  0.581  0.589- 119 1.55
  32  0.749  0.032  0.563-  27 0.85
  33  0.834  0.151  0.516-   4 0.78
  34  0.857  0.114  0.692-  42 0.77
  35  0.607  0.298  0.375-  17 0.72
  36  0.460  0.326  0.274- 100 1.47
  37  0.667  0.903  0.385-  64 1.43
  38  0.655  0.197  0.669-   3 0.69
  39  0.760  0.424  0.294-  96 1.43
  40  0.505  0.262  0.795-  43 0.79
  41  0.851  0.911  0.284-  66 1.50
  42  0.839  0.133  0.759-  34 0.77
  43  0.522  0.272  0.869-  40 0.79
  44  0.526  0.119  0.667-   6 0.78
  45  0.480  0.953  0.495-  55 1.51
  46  0.952  0.857  0.700-  16 1.48  50 2.38  70 2.42 120 2.43
  47  0.324  0.753  0.129-  83 2.32  88 2.33 105 2.37 109 2.40  67 3.03
  48  0.966  0.608  0.755- 104 2.25 106 2.27  50 2.32  65 2.36
  49  0.251  0.286  0.240-  58 2.29  92 2.35 100 2.35 116 2.38
  50  0.881  0.735  0.819-  48 2.32  46 2.38 117 2.47  87 2.53
  51  0.219  0.605  0.909-  86 2.33 106 2.39 105 2.39  85 2.46
  52  0.658  0.703  0.497- 102 2.32 117 2.33  62 2.34  64 2.43
  53  0.156  0.697  0.538-  89 2.34 106 2.39  91 2.40 120 2.40
  54  0.399  0.782  0.627-  80 2.26 119 2.29  91 2.32  55 2.40
  55  0.445  0.866  0.432-  45 1.51  88 2.27  64 2.37  54 2.40
  56  0.185  0.911  0.298-  77 2.24  76 2.33 115 2.33  88 2.43
  57  0.395  0.511  0.200-  83 2.29  85 2.42 100 2.42  78 2.53
  58  0.111  0.357  0.251-  49 2.29  82 2.30  99 2.39 103 2.45
  59  0.281  0.990  0.898- 121 2.36  61 2.39  67 2.45  84 2.61
  60  0.398  0.375  0.566-  14 1.54  68 2.36  71 2.37 100 2.43
  61  0.191  0.857  0.852- 105 2.30  70 2.30  91 2.34  59 2.39
  62  0.787  0.622  0.422-  65 2.30  52 2.34  96 2.39  73 2.40 117 2.94
  63  0.112  0.445  0.629-  95 2.33  71 2.38 106 2.38  82 2.46
  64  0.599  0.833  0.372-  37 1.43  97 2.31  55 2.37  52 2.43
  65  0.924  0.644  0.533- 120 2.28  62 2.30  81 2.33  48 2.36 117 3.15
  66  0.925  0.905  0.182-  41 1.50  90 2.37  87 2.41 115 2.43
  67  0.404  0.936  0.046-  19 1.46 109 2.37  88 2.40  59 2.45  47 3.03
  68  0.522  0.473  0.618- 102 2.28  72 2.33  60 2.36 113 2.48
  69  0.045  0.093  0.925- 121 2.28  90 2.36 110 2.37  70 2.41
  70  0.068  0.952  0.805-  61 2.30  98 2.35  69 2.41  46 2.42
  71  0.255  0.375  0.681-  79 2.34  60 2.37  63 2.38 108 2.41
  72  0.675  0.425  0.611-  24 1.56  68 2.33  96 2.38  93 2.41
  73  0.803  0.668  0.192- 114 2.23  75 2.39  62 2.40  87 2.42
  74  0.936  0.465  0.033-  26 1.37 104 2.27  99 2.31  75 2.38
  75  0.947  0.590  0.186-  81 2.33  74 2.38  73 2.39 118 2.44
  76  0.149  0.057  0.220- 116 2.32 121 2.33  56 2.33  90 2.48
  77  0.215  0.947  0.512-  56 2.24  91 2.30  98 2.32  94 2.36
  78  0.561  0.517  0.274-  13 1.49 102 2.23 114 2.44  57 2.53
  79  0.300  0.372  0.907-  71 2.34  86 2.40  92 2.41  85 2.44
  80  0.479  0.725  0.802-  54 2.26 109 2.30 101 2.38 113 2.42
  81  0.987  0.532  0.395-  82 2.26  65 2.33  75 2.33 107 2.47
  82  0.133  0.481  0.391-  81 2.26  89 2.28  58 2.30  63 2.46
  83  0.327  0.638  0.291-  89 2.25  57 2.29 119 2.30  47 2.32
  84  0.298  0.132  0.741-  15 1.50 108 2.35  94 2.44  59 2.61 121 3.10
  85  0.362  0.523  0.963- 113 2.38  57 2.42  79 2.44  51 2.46  86 2.90
  86  0.173  0.462  0.990-  99 2.25  51 2.33  79 2.40  85 2.90
  87  0.841  0.796  0.048- 122 2.28  66 2.41  73 2.42  50 2.53
  88  0.347  0.884  0.258-  55 2.27  47 2.33  67 2.40  56 2.43
  89  0.176  0.626  0.330-  83 2.25  82 2.28  53 2.34 118 2.36
  90  0.989  0.051  0.138-  12 1.44  69 2.36  66 2.37  76 2.48
  91  0.244  0.817  0.638-  77 2.30  54 2.32  61 2.34  53 2.40
  92  0.291  0.229  0.028-   7 1.56  49 2.35 121 2.36  79 2.41
  93  0.741  0.533  0.765- 112 2.30 104 2.33 117 2.33  72 2.41
  94  0.304  0.081  0.508-  28 1.51 116 2.30  77 2.36  84 2.44
  95  0.979  0.369  0.696- 107 2.30  63 2.33 104 2.44 110 2.48
  96  0.773  0.459  0.427-  39 1.43  72 2.38  62 2.39 107 2.40
  97  0.586  0.777  0.157- 109 2.29  64 2.31 122 2.36 114 2.47
  98  0.088  0.024  0.597-  25 1.53  77 2.32  70 2.35 111 2.42
  99  0.057  0.363  0.025-  86 2.25  74 2.31  58 2.39 110 2.47
 100  0.376  0.370  0.324-  36 1.47  49 2.35  57 2.42  60 2.43
 101  0.639  0.754  0.833- 122 2.22 117 2.29  80 2.38 112 2.39 109 3.14
 102  0.549  0.589  0.470-  78 2.23  68 2.28  52 2.32 119 2.44
 103  0.997  0.274  0.384-  11 1.51 107 2.30 111 2.35  58 2.45
 104  0.888  0.482  0.818-  48 2.25  74 2.27  93 2.33  95 2.44
 105  0.181  0.747  0.016-  61 2.30  47 2.37  51 2.39 118 2.47
 106  0.120  0.596  0.719-  48 2.27  63 2.38  53 2.39  51 2.39
 107  0.917  0.390  0.486- 103 2.30  95 2.30  96 2.40  81 2.47
 108  0.174  0.232  0.703- 111 2.27  84 2.35  71 2.41 110 2.49
 109  0.464  0.787  0.013-  97 2.29  80 2.30  67 2.37  47 2.40 101 3.14
 110  0.036  0.247  0.848-  69 2.37  99 2.47  95 2.48 108 2.49
 111  0.086  0.183  0.530- 108 2.27 116 2.29 103 2.35  98 2.42
 112  0.639  0.599  0.912-  93 2.30 113 2.39 101 2.39 114 2.44 117 2.95
 113  0.491  0.560  0.827-  85 2.38 112 2.39  80 2.42  68 2.48
 114  0.659  0.624  0.152-  73 2.23  78 2.44 112 2.44  97 2.47
 115  0.047  0.830  0.308- 118 2.22 120 2.24  56 2.33  66 2.43
 116  0.202  0.162  0.377- 111 2.29  94 2.30  76 2.32  49 2.38
 117  0.743  0.686  0.694- 101 2.29  52 2.33  93 2.33  50 2.47  62 2.94 112 2.95  65 3.15
 118  0.070  0.703  0.191- 115 2.22  89 2.36  75 2.44 105 2.47
 119  0.396  0.653  0.496-  31 1.55  54 2.29  83 2.30 102 2.44
 120  0.012  0.772  0.509- 115 2.24  65 2.28  53 2.40  46 2.43
 121  0.191  0.103  0.006-  69 2.28  76 2.33  92 2.36  59 2.36  84 3.10
 122  0.694  0.836  0.002-  29 1.47 101 2.22  87 2.28  97 2.36

  LATTYP: Found a simple tetragonal cell.
 ALAT       =    14.5768472423
 C/A-ratio  =     0.6848117103
  
  Lattice vectors:
  
 A1 = (  14.5768472423,   0.0000000000,   0.0000000000)
 A2 = (   0.0000000000,  14.5768472423,   0.0000000000)
 A3 = (   0.0000000000,   0.0000000000,   9.9823956913)


Analysis of symmetry for initial positions (statically):
=====================================================================
 Subroutine PRICEL returns:
 Original cell was already a primitive cell.
 

 Routine SETGRP: Setting up the symmetry group for a 
 simple tetragonal supercell.


 Subroutine GETGRP returns: Found  1 space group operations
 (whereof  1 operations were pure point group operations)
 out of a pool of 16 trial point group operations.


The static configuration has the point symmetry C_1 .


Analysis of symmetry for dynamics (positions and initial velocities):
=====================================================================
 Subroutine PRICEL returns:
 Original cell was already a primitive cell.
 

 Routine SETGRP: Setting up the symmetry group for a 
 simple tetragonal supercell.


 Subroutine GETGRP returns: Found  1 space group operations
 (whereof  1 operations were pure point group operations)
 out of a pool of 16 trial point group operations.


The dynamic configuration has the point symmetry C_1 .


 Subroutine INISYM returns: Found  1 space group operations
 (whereof  1 operations are pure point group operations),
 and found     1 'primitive' translations


----------------------------------------------------------------------------------------

                                     Primitive cell                                     

  volume of cell :    2121.1041

  direct lattice vectors                    reciprocal lattice vectors
    14.576847242  0.000000000  0.000000000     0.068601940  0.000000000  0.000000000
     0.000000000 14.576847242  0.000000000     0.000000000  0.068601940  0.000000000
     0.000000000  0.000000000  9.982395691     0.000000000  0.000000000  0.100176354

  length of vectors
    14.576847242 14.576847242  9.982395691     0.068601940  0.068601940  0.100176354

  position of ions in fractional coordinates (direct lattice)
     0.626183416  0.998901717  0.207902999
     0.514447320  0.181368437  0.206658809
     0.686815183  0.168181772  0.642141446
     0.860268328  0.157615015  0.448464491
     0.816932482  0.110779785  0.002955634
     0.485976829  0.083100960  0.669768080
     0.381951591  0.177196067  0.063782184
     0.705872802  0.313203529  0.133464956
     0.800920789  0.077355548  0.283689416
     0.811554090  0.072945129  0.953617778
     0.950617083  0.206207141  0.291790677
     0.941602788  0.120102102  0.215891061
     0.601186927  0.425102212  0.243640913
     0.445194348  0.281234339  0.583182653
     0.371376602  0.202091711  0.768942670
     0.880821469  0.927182660  0.671328828
     0.575090063  0.261409750  0.387473120
     0.635061193  0.028153344  0.137808603
     0.463852017  0.015315572  0.066849284
     0.779722790  0.087143672  0.220397995
     0.616003574  0.881630972  0.635275358
     0.478559587  0.140916617  0.213964670
     0.574706578  0.911623740  0.631164121
     0.690869557  0.319023718  0.617396885
     0.004181477  0.995153362  0.515420362
     0.882138626  0.400391107  0.095631953
     0.723146770  0.979498499  0.565096814
     0.400993432  0.074475638  0.454822684
     0.674995754  0.934056574  0.980499101
     0.660106389  0.329083506  0.106654758
     0.350601877  0.580987772  0.588878680
     0.749119464  0.031678386  0.562941019
     0.834000645  0.151127330  0.515540574
     0.856790209  0.113551989  0.692319781
     0.607233502  0.298116590  0.375379830
     0.459794213  0.326023860  0.273847089
     0.666678455  0.903096519  0.384955688
     0.654583247  0.197411001  0.668907566
     0.760178097  0.424158249  0.293947474
     0.505288961  0.262200731  0.795410265
     0.850808120  0.911376773  0.284354587
     0.839372177  0.132958792  0.759429924
     0.522298812  0.271687007  0.868865578
     0.525546428  0.119401677  0.666519361
     0.480072946  0.953429762  0.495275899
     0.951824477  0.857373326  0.700092464
     0.324499525  0.752954313  0.128783715
     0.966169142  0.607808386  0.754674552
     0.251100937  0.286123599  0.239907340
     0.881040995  0.734617014  0.818602092
     0.219003461  0.604909268  0.909485086
     0.658146432  0.702929778  0.496981902
     0.156175747  0.696666421  0.538019146
     0.399336009  0.781828869  0.627481638
     0.444996774  0.865996590  0.432019541
     0.184920645  0.910862258  0.298355234
     0.394800735  0.511358861  0.199729610
     0.111277149  0.357285764  0.251306408
     0.281125948  0.990371907  0.898499747
     0.397931041  0.374806699  0.565949315
     0.190526796  0.857428207  0.851613206
     0.787371906  0.622356800  0.421895718
     0.111906229  0.444613975  0.629492177
     0.598898366  0.832882433  0.372045961
     0.923965229  0.643779128  0.532717813
     0.925200064  0.904914470  0.181568639
     0.404444795  0.936073471  0.045791012
     0.521959233  0.472584358  0.618472779
     0.044911769  0.093328823  0.925251842
     0.067704901  0.951790176  0.805143399
     0.255474311  0.375213509  0.681389539
     0.674630106  0.424863477  0.610519778
     0.802683859  0.667765796  0.192178317
     0.935709881  0.464704739  0.032757567
     0.946528407  0.589789401  0.185642811
     0.149470593  0.057271987  0.220483145
     0.214775524  0.946562708  0.512436108
     0.560930623  0.516543795  0.273956281
     0.299500978  0.372211488  0.906683153
     0.479448668  0.724546250  0.801982835
     0.986619381  0.531518913  0.394729895
     0.133360799  0.481065616  0.390504456
     0.327113945  0.638386329  0.290717789
     0.298417067  0.132488869  0.741133715
     0.361844363  0.523045887  0.962929170
     0.173346126  0.461933221  0.989708313
     0.841457676  0.795590419  0.048466923
     0.346915208  0.883819374  0.257934075
     0.175778751  0.625933705  0.329971893
     0.989253695  0.051278098  0.138380609
     0.244190664  0.817350954  0.638163443
     0.291453970  0.229397341  0.027952008
     0.740866651  0.533275123  0.764956653
     0.304215303  0.081464804  0.508063411
     0.978716437  0.369176538  0.696453057
     0.773329089  0.458984710  0.426785326
     0.586282470  0.776553380  0.156885186
     0.088199456  0.023650450  0.596953896
     0.057186646  0.362725212  0.025298737
     0.375716361  0.370237810  0.324474214
     0.638602425  0.753969622  0.833374097
     0.549395892  0.588571716  0.470313955
     0.997457434  0.273808179  0.384436774
     0.887976651  0.482323776  0.817708519
     0.181490548  0.747301513  0.015671689
     0.119710385  0.595923786  0.719037816
     0.917249099  0.390196172  0.485956493
     0.174321646  0.232140047  0.703460393
     0.464448168  0.786624145  0.012687335
     0.035515773  0.246889464  0.847699316
     0.086115329  0.182985385  0.530163316
     0.638769128  0.599073987  0.912278002
     0.490864717  0.559633360  0.827088031
     0.658957307  0.623600553  0.152308128
     0.046845932  0.830248119  0.307532390
     0.201715086  0.161965750  0.377403393
     0.743089354  0.685715493  0.693540931
     0.070184587  0.702792574  0.190780857
     0.396001955  0.653340866  0.496290685
     0.011549685  0.772437264  0.509035121
     0.190790913  0.103331672  0.005810660
     0.693771419  0.836243928  0.002374611

  ion indices of the primitive-cell ions
   primitive index   ion index
                 1           1
                 2           2
                 3           3
                 4           4
                 5           5
                 6           6
                 7           7
                 8           8
                 9           9
                10          10
                11          11
                12          12
                13          13
                14          14
                15          15
                16          16
                17          17
                18          18
                19          19
                20          20
                21          21
                22          22
                23          23
                24          24
                25          25
                26          26
                27          27
                28          28
                29          29
                30          30
                31          31
                32          32
                33          33
                34          34
                35          35
                36          36
                37          37
                38          38
                39          39
                40          40
                41          41
                42          42
                43          43
                44          44
                45          45
                46          46
                47          47
                48          48
                49          49
                50          50
                51          51
                52          52
                53          53
                54          54
                55          55
                56          56
                57          57
                58          58
                59          59
                60          60
                61          61
                62          62
                63          63
                64          64
                65          65
                66          66
                67          67
                68          68
                69          69
                70          70
                71          71
                72          72
                73          73
                74          74
                75          75
                76          76
                77          77
                78          78
                79          79
                80          80
                81          81
                82          82
                83          83
                84          84
                85          85
                86          86
                87          87
                88          88
                89          89
                90          90
                91          91
                92          92
                93          93
                94          94
                95          95
                96          96
                97          97
                98          98
                99          99
               100         100
               101         101
               102         102
               103         103
               104         104
               105         105
               106         106
               107         107
               108         108
               109         109
               110         110
               111         111
               112         112
               113         113
               114         114
               115         115
               116         116
               117         117
               118         118
               119         119
               120         120
               121         121
               122         122

----------------------------------------------------------------------------------------


 -----------------------------------------------------------------------------
|                                                                             |
|           W    W    AA    RRRRR   N    N  II  N    N   GGGG   !!!           |
|           W    W   A  A   R    R  NN   N  II  NN   N  G    G  !!!           |
|           W    W  A    A  R    R  N N  N  II  N N  N  G       !!!           |
|           W WW W  AAAAAA  RRRRR   N  N N  II  N  N N  G  GGG   !            |
|           WW  WW  A    A  R   R   N   NN  II  N   NN  G    G                |
|           W    W  A    A  R    R  N    N  II  N    N   GGGG   !!!           |
|                                                                             |
|     The requested file  could not be found or opened for reading            |
|     k-point information. Automatic k-point generation is used as a          |
|     fallback, which may lead to unwanted results.                           |
|                                                                             |
 -----------------------------------------------------------------------------



Automatic generation of k-mesh.
 Grid dimensions derived from KSPACING:
 generate k-points for:    2    2    3

 Generating k-lattice:

  Cartesian coordinates                     Fractional coordinates (reciprocal lattice)
     0.034300970  0.000000000  0.000000000     0.500000000  0.000000000  0.000000000
     0.000000000  0.034300970  0.000000000     0.000000000  0.500000000  0.000000000
     0.000000000  0.000000000  0.033392118     0.000000000  0.000000000  0.333333333

  Length of vectors
     0.034300970  0.034300970  0.033392118

  Shift w.r.t. Gamma in fractional coordinates (k-lattice)
     0.000000000  0.000000000  0.000000000

 
 Subroutine IBZKPT returns following result:
 ===========================================
 
 Found      8 irreducible k-points:
 
 Following reciprocal coordinates:
            Coordinates               Weight
  0.000000  0.000000  0.000000      1.000000
  0.500000  0.000000  0.000000      1.000000
  0.000000  0.500000  0.000000      1.000000
  0.500000  0.500000  0.000000      1.000000
  0.000000  0.000000  0.333333      2.000000
  0.500000  0.000000  0.333333      2.000000
  0.000000  0.500000  0.333333      2.000000
  0.500000  0.500000  0.333333      2.000000
 
 Following cartesian coordinates:
            Coordinates               Weight
  0.000000  0.000000  0.000000      1.000000
  0.034301  0.000000  0.000000      1.000000
  0.000000  0.034301  0.000000      1.000000
  0.034301  0.034301  0.000000      1.000000
  0.000000  0.000000  0.033392      2.000000
  0.034301  0.000000  0.033392      2.000000
  0.000000  0.034301  0.033392      2.000000
  0.034301  0.034301  0.033392      2.000000
 


--------------------------------------------------------------------------------------------------------




 Dimension of arrays:
   k-points           NKPTS =      8   k-points in BZ     NKDIM =      8   number of bands    NBANDS=    240
   number of dos      NEDOS =   2000   number of ions     NIONS =    122
   non local maximal  LDIM  =      4   non local SUM 2l+1 LMDIM =      8
   total plane-waves  NPLWV = ******
   max r-space proj   IRMAX =      1   max aug-charges    IRDMAX= 427248
   dimension x,y,z NGX =   168 NGY =  168 NGZ =  120
   dimension x,y,z NGXF=   336 NGYF=  336 NGZF=  240
   support grid    NGXF=   672 NGYF=  672 NGZF=  480
   ions per type =              45  77
   NGX,Y,Z   is equivalent  to a cutoff of  19.16, 19.16, 19.98 a.u.
   NGXF,Y,Z  is equivalent  to a cutoff of  38.32, 38.32, 39.97 a.u.

 SYSTEM =  a-Si SPC                                
 POSCAR =   H Si                                   

 Startparameter for this run:
   NWRITE =      2    write-flag & timer
   PREC   = accura    normal or accurate (medium, high low for compatibility)
   ISTART =      1    job   : 0-new  1-cont  2-samecut
   ICHARG =      1    charge: 1-file 2-atom 10-const
   ISPIN  =      1    spin polarized calculation?
   LNONCOLLINEAR =      F non collinear calculations
   LSORBIT =      F    spin-orbit coupling
   INIWAV =      1    electr: 0-lowe 1-rand  2-diag
   LASPH  =      T    aspherical Exc in radial PAW
 Electronic Relaxation 1
   ENCUT  = 1200.0 eV  88.20 Ry    9.39 a.u.  41.17 41.17 28.20*2*pi/ulx,y,z
   ENINI  = 1200.0     initial cutoff
   ENAUG  =  400.0 eV  augmentation charge cutoff
   NELM   =    150;   NELMIN=  2; NELMDL=  0     # of ELM steps 
   EDIFF  = 0.1E-05   stopping-criterion for ELM
   LREAL  =      F    real-space projection
   NLSPLINE    = F    spline interpolate recip. space projectors
   LCOMPAT=      F    compatible to vasp.4.4
   GGA_COMPAT  = T    GGA compatible to vasp.4.4-vasp.4.6
   LMAXPAW     = -100 max onsite density
   LMAXMIX     =    2 max onsite mixed and CHGCAR
   VOSKOWN=      0    Vosko Wilk Nusair interpolation
   ROPT   =    0.00000   0.00000
 Ionic relaxation
   EDIFFG = -.1E-01   stopping-criterion for IOM
   NSW    =      0    number of steps for IOM
   NBLOCK =      1;   KBLOCK =      1    inner block; outer block 
   IBRION =     -1    ionic relax: 0-MD 1-quasi-New 2-CG
   NFREE  =      0    steps in history (QN), initial steepest desc. (CG)
   ISIF   =      2    stress and relaxation
   IWAVPR =     10    prediction:  0-non 1-charg 2-wave 3-comb
   ISYM   =      1    0-nonsym 1-usesym 2-fastsym
   LCORR  =      T    Harris-Foulkes like correction to forces

   POTIM  = 0.5000    time-step for ionic-motion
   TEIN   =    0.0    initial temperature
   TEBEG  =    0.0;   TEEND  =   0.0 temperature during run
   SMASS  =  -3.00    Nose mass-parameter (am)
   estimated Nose-frequenzy (Omega)   =  0.10E-29 period in steps = 0.13E+47 mass=  -0.486E-26a.u.
   SCALEE = 1.0000    scale energy and forces
   NPACO  =    256;   APACO  = 10.0  distance and # of slots for P.C.
   PSTRESS=    0.0 pullay stress

  Mass of Ions in am
   POMASS =   1.00 28.09
  Ionic Valenz
   ZVAL   =   1.00  4.00
  Atomic Wigner-Seitz radii
   RWIGS  =  -1.00 -1.00
  virtual crystal weights 
   VCA    =   1.00  1.00
   NELECT =     353.0000    total number of electrons
   NUPDOWN=      -1.0000    fix difference up-down

 DOS related values:
   EMIN   =  10.00;   EMAX   =-10.00  energy-range for DOS
   EFERMI =   0.00;   METHOD = LEGACY      
   ISMEAR =     0;   SIGMA  =   0.10  broadening in eV -4-tet -1-fermi 0-gaus
   EFERMI_NEDOS =   21; number of points for ismear=-14 and -15

 Electronic relaxation 2 (details)
   IALGO  =     38    algorithm
   LDIAG  =      F    sub-space diagonalisation (order eigenvalues)
   LSUBROT=      F    optimize rotation matrix (better conditioning)
   TURBO    =      0    0=normal 1=particle mesh
   IRESTART =      0    0=no restart 2=restart with 2 vectors
   NREBOOT  =      0    no. of reboots
   NMIN     =      0    reboot dimension
   EREF     =   0.00    reference energy to select bands
   IMIX   =      4    mixing-type and parameters
     AMIX     =   0.40;   BMIX     =  1.00
     AMIX_MAG =   1.60;   BMIX_MAG =  1.00
     AMIN     =   0.10
     WC   =   100.;   INIMIX=   1;  MIXPRE=   1;  MAXMIX= -45

 Intra band minimization:
   WEIMIN = 0.0000     energy-eigenvalue tresh-hold
   EBREAK =  0.10E-08  absolut break condition
   DEPER  =   0.30     relativ break condition  

   TIME   =   0.40     timestep for ELM

  volume/ion in A,a.u.               =      17.39       117.33
  Fermi-wavevector in a.u.,A,eV,Ry     =   0.900490  1.701680 11.032732  0.810883
  Thomas-Fermi vector in A             =   2.023454

 Write flags
   LWAVE        =      F    write WAVECAR
   LDOWNSAMPLE  =      F    k-point downsampling of WAVECAR
   LCHARG       =      F    write CHGCAR
   LVTOT        =      F    write LOCPOT, total local potential
   LVHAR        =      F    write LOCPOT, Hartree potential only
   WRT_POTENTIAL= false  ! write potential to hdf5 file
   LELF         =      F    write electronic localiz. function (ELF)
   LORBIT       =     11    0 simple, 1 ext, 2 COOP (PROOUT), +10 PAW based schemes


 Python interface
   PLUGINS active      =      F    recompile with -DPLUGINS to activate

 Dipole corrections
   LMONO      =      F    monopole corrections only (constant potential shift)
   LDIPOL     =      F    correct potential (dipole corrections)
   IDIPOL     =      0    1-x, 2-y, 3-z, 4-all directions 
   EPSILON    =  1.0000000 bulk dielectric constant
   LVACPOTAV  =      F  vacuum potentials using an averaging scheme for the charge density
   VACPOTFLAT =  0.1000000 required flatness to determine vacuum potential

Coulomb truncation method
  LTRUNCATE          =      F  Coulomb kernel truncation to be used
  IDIMENSIONALITY    =      3  Dimensionality of cutoff (0 molecules / 2 surfaces)
  ISURFACE           =     -1  Direction of surface normal
  LCOARSEN           =      F  Coarsen the charge grid before padding, preferred


 Exchange correlation treatment:
   METAGGA = SCAN    functional components
   XC_C    = 1    coefficients multiplying the functional components
   LIBXC   =     F    Libxc                    
   VOSKOWN =     0    Vosko Wilk Nusair interpolation
   LHFCALC =     F    Hartree Fock is set to
   LHFONE  =     F    Hartree Fock one center treatment
   AEXX    =    0.0000 exact exchange contribution

 Parameters of functionals:
   SCAN:
     P1 =  0.000000E+00
     P2 =  0.000000E+00
     P3 =  0.000000E+00

 Accuracy and mixing parameters for tau-dependent meta-GGA functionals:
   LMAXTAU = 6
   LMIXTAU = T

 Van der Waals corrections
   IVDW    =     0    specifies the selected vdW correction

 Linear response parameters
   LEPSILON=     F    determine dielectric tensor
   LRPA    =     F    only Hartree local field effects (RPA)
   LNABLA  =     F    use nabla operator in PAW spheres
   LVEL    =     F    velocity operator in full k-point grid
   CSHIFT  =0.1000    complex shift for real part using Kramers Kronig
   OMEGAMAX=  -1.0    maximum frequency
   DEG_THRESHOLD= 0.2000000E-02 threshold for treating states as degnerate
   RTIME   =   -0.100 relaxation time in fs
  (WPLASMAI=    0.000 imaginary part of plasma frequency in eV, 0.658/RTIME)
   DFIELD  = 0.0000000 0.0000000 0.0000000 field for delta impulse in time

  Optional k-point grid parameters
   LKPOINTS_OPT  =     F    use optional k-point grid
   KPOINTS_OPT_MODE=     1    mode for optional k-point grid

 Orbital magnetization related:
   ORBITALMAG=     F  switch on orbital magnetization
   LCHIMAG   =     F  perturbation theory with respect to B field
   DQ        =  0.001000  dq finite difference perturbation B field
   LLRAUG    =     F  two centre corrections for induced B field
   LBONE     =     F  B-component reconstruction in AE one-centre
   LVGVCALC  =     T  calculate vGv susceptibility
   LVGVAPPL  =     F  apply vGv susceptibility instead of pGv for G=0

 Random number generation:
   RANDOM_GENERATOR = DEFAULT
   PCG_SEED         = not used


--------------------------------------------------------------------------------------------------------


 Static calculation
 charge density and potential will be updated during run
 non-spin polarized calculation
 Variant of blocked Davidson
 perform Loewdin sub-space diagonalisation
    ordering is kept fixed
    before iterative eigenvector-optimisation
 modified Broyden-mixing scheme, WC =      100.0
 initial mixing is a Kerker type mixing with AMIX =  0.4000 and BMIX =      1.0000
 Hartree-type preconditioning will be used
 using additional bands           63
 reciprocal scheme for non local part
 use partial core corrections
 calculate Harris-corrections to forces   (improved forces if not selfconsistent)
 use gradient corrections 
 use of overlap-Matrix (Vanderbilt PP)
 Gauss-broadening in eV      SIGMA  =   0.10


--------------------------------------------------------------------------------------------------------


  energy-cutoff  :     1200.00
  volume of cell :     2121.10
      direct lattice vectors                 reciprocal lattice vectors
    14.576847242  0.000000000  0.000000000     0.068601940  0.000000000  0.000000000
     0.000000000 14.576847242  0.000000000     0.000000000  0.068601940  0.000000000
     0.000000000  0.000000000  9.982395691     0.000000000  0.000000000  0.100176354

  length of vectors
    14.576847242 14.576847242  9.982395691     0.068601940  0.068601940  0.100176354



 old parameters found on file WAVECAR:
  energy-cutoff  :     1200.00
  volume of cell :     2121.10
      direct lattice vectors                 reciprocal lattice vectors
    14.576847242  0.000000000  0.000000000     0.068601940  0.000000000  0.000000000
     0.000000000 14.576847242  0.000000000     0.000000000  0.068601940  0.000000000
     0.000000000  0.000000000  9.982395691     0.000000000  0.000000000  0.100176354

  length of vectors


 k-points in units of 2pi/SCALE and weight: read from INCAR                         
   0.00000000  0.00000000  0.00000000       0.083
   0.03430097  0.00000000  0.00000000       0.083
   0.00000000  0.03430097  0.00000000       0.083
   0.03430097  0.03430097  0.00000000       0.083
   0.00000000  0.00000000  0.03339212       0.167
   0.03430097  0.00000000  0.03339212       0.167
   0.00000000  0.03430097  0.03339212       0.167
   0.03430097  0.03430097  0.03339212       0.167

 k-points in reciprocal lattice and weights: read from INCAR                         
   0.00000000  0.00000000  0.00000000       0.083
   0.50000000  0.00000000  0.00000000       0.083
   0.00000000  0.50000000  0.00000000       0.083
   0.50000000  0.50000000  0.00000000       0.083
   0.00000000  0.00000000  0.33333333       0.167
   0.50000000  0.00000000  0.33333333       0.167
   0.00000000  0.50000000  0.33333333       0.167
   0.50000000  0.50000000  0.33333333       0.167

 position of ions in fractional coordinates (direct lattice) 
   0.62618342  0.99890172  0.20790300
   0.51444732  0.18136844  0.20665881
   0.68681518  0.16818177  0.64214145
   0.86026833  0.15761502  0.44846449
   0.81693248  0.11077978  0.00295563
   0.48597683  0.08310096  0.66976808
   0.38195159  0.17719607  0.06378218
   0.70587280  0.31320353  0.13346496
   0.80092079  0.07735555  0.28368942
   0.81155409  0.07294513  0.95361778
   0.95061708  0.20620714  0.29179068
   0.94160279  0.12010210  0.21589106
   0.60118693  0.42510221  0.24364091
   0.44519435  0.28123434  0.58318265
   0.37137660  0.20209171  0.76894267
   0.88082147  0.92718266  0.67132883
   0.57509006  0.26140975  0.38747312
   0.63506119  0.02815334  0.13780860
   0.46385202  0.01531557  0.06684928
   0.77972279  0.08714367  0.22039800
   0.61600357  0.88163097  0.63527536
   0.47855959  0.14091662  0.21396467
   0.57470658  0.91162374  0.63116412
   0.69086956  0.31902372  0.61739688
   0.00418148  0.99515336  0.51542036
   0.88213863  0.40039111  0.09563195
   0.72314677  0.97949850  0.56509681
   0.40099343  0.07447564  0.45482268
   0.67499575  0.93405657  0.98049910
   0.66010639  0.32908351  0.10665476
   0.35060188  0.58098777  0.58887868
   0.74911946  0.03167839  0.56294102
   0.83400064  0.15112733  0.51554057
   0.85679021  0.11355199  0.69231978
   0.60723350  0.29811659  0.37537983
   0.45979421  0.32602386  0.27384709
   0.66667846  0.90309652  0.38495569
   0.65458325  0.19741100  0.66890757
   0.76017810  0.42415825  0.29394747
   0.50528896  0.26220073  0.79541026
   0.85080812  0.91137677  0.28435459
   0.83937218  0.13295879  0.75942992
   0.52229881  0.27168701  0.86886558
   0.52554643  0.11940168  0.66651936
   0.48007295  0.95342976  0.49527590
   0.95182448  0.85737333  0.70009246
   0.32449952  0.75295431  0.12878371
   0.96616914  0.60780839  0.75467455
   0.25110094  0.28612360  0.23990734
   0.88104100  0.73461701  0.81860209
   0.21900346  0.60490927  0.90948509
   0.65814643  0.70292978  0.49698190
   0.15617575  0.69666642  0.53801915
   0.39933601  0.78182887  0.62748164
   0.44499677  0.86599659  0.43201954
   0.18492065  0.91086226  0.29835523
   0.39480073  0.51135886  0.19972961
   0.11127715  0.35728576  0.25130641
   0.28112595  0.99037191  0.89849975
   0.39793104  0.37480670  0.56594931
   0.19052680  0.85742821  0.85161321
   0.78737191  0.62235680  0.42189572
   0.11190623  0.44461398  0.62949218
   0.59889837  0.83288243  0.37204596
   0.92396523  0.64377913  0.53271781
   0.92520006  0.90491447  0.18156864
   0.40444480  0.93607347  0.04579101
   0.52195923  0.47258436  0.61847278
   0.04491177  0.09332882  0.92525184
   0.06770490  0.95179018  0.80514340
   0.25547431  0.37521351  0.68138954
   0.67463011  0.42486348  0.61051978
   0.80268386  0.66776580  0.19217832
   0.93570988  0.46470474  0.03275757
   0.94652841  0.58978940  0.18564281
   0.14947059  0.05727199  0.22048315
   0.21477552  0.94656271  0.51243611
   0.56093062  0.51654380  0.27395628
   0.29950098  0.37221149  0.90668315
   0.47944867  0.72454625  0.80198284
   0.98661938  0.53151891  0.39472989
   0.13336080  0.48106562  0.39050446
   0.32711394  0.63838633  0.29071779
   0.29841707  0.13248887  0.74113371
   0.36184436  0.52304589  0.96292917
   0.17334613  0.46193322  0.98970831
   0.84145768  0.79559042  0.04846692
   0.34691521  0.88381937  0.25793408
   0.17577875  0.62593370  0.32997189
   0.98925370  0.05127810  0.13838061
   0.24419066  0.81735095  0.63816344
   0.29145397  0.22939734  0.02795201
   0.74086665  0.53327512  0.76495665
   0.30421530  0.08146480  0.50806341
   0.97871644  0.36917654  0.69645306
   0.77332909  0.45898471  0.42678533
   0.58628247  0.77655338  0.15688519
   0.08819946  0.02365045  0.59695390
   0.05718665  0.36272521  0.02529874
   0.37571636  0.37023781  0.32447421
   0.63860243  0.75396962  0.83337410
   0.54939589  0.58857172  0.47031396
   0.99745743  0.27380818  0.38443677
   0.88797665  0.48232378  0.81770852
   0.18149055  0.74730151  0.01567169
   0.11971039  0.59592379  0.71903782
   0.91724910  0.39019617  0.48595649
   0.17432165  0.23214005  0.70346039
   0.46444817  0.78662415  0.01268734
   0.03551577  0.24688946  0.84769932
   0.08611533  0.18298538  0.53016332
   0.63876913  0.59907399  0.91227800
   0.49086472  0.55963336  0.82708803
   0.65895731  0.62360055  0.15230813
   0.04684593  0.83024812  0.30753239
   0.20171509  0.16196575  0.37740339
   0.74308935  0.68571549  0.69354093
   0.07018459  0.70279257  0.19078086
   0.39600195  0.65334087  0.49629069
   0.01154969  0.77243726  0.50903512
   0.19079091  0.10333167  0.00581066
   0.69377142  0.83624393  0.00237461

 position of ions in cartesian coordinates  (Angst):
   9.12778000 14.56083774  2.07537000
   7.49902000  2.64378000  2.06295000
  10.01160000  2.45156000  6.41011000
  12.54000000  2.29753000  4.47675000
  11.90830000  1.61482000  0.02950431
   7.08401000  1.21135000  6.68589000
   5.56765000  2.58296000  0.63669900
  10.28940000  4.56552000  1.33230000
  11.67490000  1.12760000  2.83190000
  11.82990000  1.06331000  9.51939000
  13.85700000  3.00585000  2.91277000
  13.72560000  1.75071000  2.15511000
   8.76341000  6.19665000  2.43212000
   6.48953000  4.09951000  5.82156000
   5.41350000  2.94586000  7.67589000
  12.83960000 13.51540000  6.70147000
   8.38300000  3.81053000  3.86791000
   9.25719000  0.41038700  1.37566000
   6.76150000  0.22325276  0.66731600
  11.36590000  1.27028000  2.20010000
   8.97939000 12.85140000  6.34157000
   6.97589000  2.05412000  2.13588000
   8.37741000 13.28860000  6.30053000
  10.07070000  4.65036000  6.16310000
   0.06095276 14.50619854  5.14513000
  12.85880000  5.83644000  0.95463600
  10.54120000 14.27800000  5.64102000
   5.84522000  1.08562000  4.54022000
   9.83931000 13.61560000  9.78773000
   9.62227000  4.79700000  1.06467000
   5.11067000  8.46897000  5.87842000
  10.91980000  0.46177100  5.61950000
  12.15710000  2.20296000  5.14633000
  12.48930000  1.65523000  6.91101000
   8.85155000  4.34560000  3.74719000
   6.70235000  4.75240000  2.73365000
   9.71807000 13.16430000  3.84278000
   9.54176000  2.87763000  6.67730000
  11.08100000  6.18289000  2.93430000
   7.36552000  3.82206000  7.94010000
  12.40210000 13.28500000  2.83854000
  12.23540000  1.93812000  7.58093000
   7.61347000  3.96034000  8.67336000
   7.66081000  1.74050000  6.65346000
   6.99795000 13.89800000  4.94404000
  13.87460000 12.49780000  6.98860000
   4.73018000 10.97570000  1.28557000
  14.08370000  8.85993000  7.53346000
   3.66026000  4.17078000  2.39485000
  12.84280000 10.70840000  8.17161000
   3.19238000  8.81767000  9.07884000
   9.59370000 10.24650000  4.96107000
   2.27655000 10.15520000  5.37072000
   5.82106000 11.39660000  6.26377000
   6.48665000 12.62350000  4.31259000
   2.69556000 13.27750000  2.97830000
   5.75495000  7.45400000  1.99378000
   1.62207000  5.20810000  2.50864000
   4.09793000 14.43650000  8.96918000
   5.80058000  5.46350000  5.64953000
   2.77728000 12.49860000  8.50114000
  11.47740000  9.07200000  4.21153000
   1.63124000  6.48107000  6.28384000
   8.73005000 12.14080000  3.71391000
  13.46850000  9.38427000  5.31780000
  13.48650000 13.19080000  1.81249000
   5.89553000 13.64500000  0.45710400
   7.60852000  6.88879000  6.17384000
   0.65467200  1.36044000  9.23623000
   0.98692400 13.87410000  8.03726000
   3.72401000  5.46943000  6.80190000
   9.83398000  6.19317000  6.09445000
  11.70060000  9.73392000  1.91840000
  13.63970000  6.77393000  0.32699900
  13.79740000  8.59727000  1.85316000
   2.17881000  0.83484500  2.20095000
   3.13075000 13.79790000  5.11534000
   8.17660000  7.52958000  2.73474000
   4.36578000  5.42567000  9.05087000
   6.98885000 10.56160000  8.00571000
  14.38180000  7.74787000  3.94035000
   1.94398000  7.01242000  3.89817000
   4.76829000  9.30566000  2.90206000
   4.34998000  1.93127000  7.39829000
   5.27455000  7.62436000  9.61234000
   2.52684000  6.73353000  9.87966000
  12.26580000 11.59720000  0.48381600
   5.05693000 12.88330000  2.57480000
   2.56230000  9.12414000  3.29391000
  14.42020000  0.74747300  1.38137000
   3.55953000 11.91440000  6.37040000
   4.24848000  3.34389000  0.27902800
  10.79950000  7.77347000  7.63610000
   4.43450000  1.18750000  5.07169000
  14.26660000  5.38143000  6.95227000
  11.27270000  6.69055000  4.26034000
   8.54615000 11.31970000  1.56609000
   1.28567000  0.34474900  5.95903000
   0.83360100  5.28739000  0.25254200
   5.47676000  5.39690000  3.23903000
   9.30881000 10.99050000  8.31907000
   8.00846000  8.57952000  4.69486000
  14.53978464  3.99126000  3.83760000
  12.94390000  7.03076000  8.16269000
   2.64556000 10.89330000  0.15644100
   1.74500000  8.68669000  7.17772000
  13.37060000  5.68783000  4.85101000
   2.54106000  3.38387000  7.02222000
   6.77019000 11.46650000  0.12665000
   0.51770800  3.59887000  8.46207000
   1.25529000  2.66735000  5.29230000
   9.31124000  8.73261000  9.10672000
   7.15526000  8.15769000  8.25632000
   9.60552000  9.09013000  1.52040000
   0.68286600 12.10240000  3.06991000
   2.94037000  2.36095000  3.76739000
  10.83190000  9.99557000  6.92320000
   1.02307000 10.24450000  1.90445000
   5.77246000  9.52365000  4.95417000
   0.16835800 11.25970000  5.08139000
   2.78113000  1.50625000  0.05800431
  10.11300000 12.18980000  0.02370431



--------------------------------------------------------------------------------------------------------


 k-point     1 :   0.0000 0.0000 0.0000  plane waves:  200161
 k-point     2 :   0.5000 0.0000 0.0000  plane waves:  200170
 k-point     3 :   0.0000 0.5000 0.0000  plane waves:  200170
 k-point     4 :   0.5000 0.5000 0.0000  plane waves:  200316
 k-point     5 :   0.0000 0.0000 0.3333  plane waves:  200200
 k-point     6 :   0.5000 0.0000 0.3333  plane waves:  200226
 k-point     7 :   0.0000 0.5000 0.3333  plane waves:  200226
 k-point     8 :   0.5000 0.5000 0.3333  plane waves:  200268

 maximum and minimum number of plane-waves per node :     12578    12448

 maximum number of plane-waves:    200316
 maximum index in each direction: 
   IXMAX=   41   IYMAX=   41   IZMAX=   28
   IXMIN=  -41   IYMIN=  -41   IZMIN=  -28


 parallel 3D FFT for wavefunctions:
    minimum data exchange during FFTs selected (reduces bandwidth)
 parallel 3D FFT for charge:
    minimum data exchange during FFTs selected (reduces bandwidth)


 total amount of memory used by VASP MPI-rank0   188030. kBytes
=======================================================================

   base                                    :      30000. kBytes
   nonl-proj                               :      37235. kBytes
   fftplans                                :      40935. kBytes
   grid                                    :      31575. kBytes
   one-center                              :         24. kBytes
   wavefun                                 :      48261. kBytes

     INWAV:  cpu time      9.2395: real time      9.2441
 Broyden mixing: mesh for mixing (old mesh)
   NGX = 83   NGY = 83   NGZ = 57
  (NGX  =336   NGY  =336   NGZ  =240)
  gives a total of 392673 points

 initial charge density was supplied:
 number of electron     352.9999999 magnetization 
 keeping initial charge density in first step


--------------------------------------------------------------------------------------------------------


 Maximum index for augmentation-charges        11935 (set IRDMAX)


--------------------------------------------------------------------------------------------------------


 First call to EWALD:  gamma=   0.138
 Maximum number of real-space cells   2x   2x   3
 Maximum number of reciprocal cells   3x   3x   2

    FEWALD:  cpu time      0.0199: real time      0.0202


--------------------------------------- Ionic step        1  -------------------------------------------




--------------------------------------- Iteration      1(   1)  ---------------------------------------


    POTLOK:  cpu time      0.7238: real time      0.7245
    SETDIJ:  cpu time      1.5697: real time      1.5705
    EDDIAG:  cpu time     20.3194: real time     20.3367
     EDDAV:  cpu time    102.0162: real time    102.1035
       DOS:  cpu time      0.0098: real time      0.0102
    CHARGE:  cpu time      9.0707: real time      9.0786
    MIXING:  cpu time      0.0245: real time      0.0247
    --------------------------------------------
      LOOP:  cpu time    133.7342: real time    133.8488

 eigenvalue-minimisations  :  4232
 total energy-change (2. order) :-0.9599559E+03  (-0.1004820E+01)
 number of electron     352.9999999 magnetization 
 augmentation part      -16.2273898 magnetization 

 Broyden mixing:
  rms(total) = 0.11596E+01    rms(broyden)= 0.45218E+02
  rms(prec ) = 0.12510E+01
  weight for this iteration     100.00
  WARNING: grid for Broyden might be to small

 Free energy of the ion-electron system (eV)
  ---------------------------------------------------
  alpha Z        PSCENC =       126.08900651
  Ewald energy   TEWEN  =     -5844.01197645
  -Hartree energ DENC   =     -3477.46045742
  -exchange      EXHF   =         0.00000000
  -V(xc)+E(xc)   XCENC  =      -226.04798439
  PAW double counting   =     32806.47464210   -32040.44957584
  entropy T*S    EENTRO =        -0.05436518
  eigenvalues    EBANDS =      -802.61783866
  atomic energy  EATOM  =      8498.12264875
  Solvation  Ediel_sol  =         0.00000000
  ---------------------------------------------------
  free energy    TOTEN  =      -959.95590056 eV

  energy without entropy =     -959.90153538  energy(sigma->0) =     -959.92871797


--------------------------------------------------------------------------------------------------------




--------------------------------------- Iteration      1(   2)  ---------------------------------------


    POTLOK:  cpu time      0.7202: real time      0.7210
    SETDIJ:  cpu time      1.5643: real time      1.5658
    EDDIAG:  cpu time     20.3356: real time     20.3523
     EDDAV:  cpu time     97.7628: real time     97.8491
       DOS:  cpu time      0.0041: real time      0.0041
    CHARGE:  cpu time      9.1035: real time      9.1113
    MIXING:  cpu time      0.0167: real time      0.0169
    --------------------------------------------
      LOOP:  cpu time    129.5071: real time    129.6206

 eigenvalue-minimisations  :  3952
 total energy-change (2. order) : 0.6295120E+02  (-0.1026897E+01)
 number of electron     352.9999999 magnetization 
 augmentation part      -16.1616258 magnetization 

 Broyden mixing:
  rms(total) = 0.77193E+00    rms(broyden)= 0.25910E+02
  rms(prec ) = 0.81716E+00
  weight for this iteration     100.00
  WARNING: grid for Broyden might be to small

 eigenvalues of (default mixing * dielectric matrix)
  average eigenvalue GAMMA=   0.6358
  0.6358

 Free energy of the ion-electron system (eV)
  ---------------------------------------------------
  alpha Z        PSCENC =       126.08900651
  Ewald energy   TEWEN  =     -5844.01197645
  -Hartree energ DENC   =     -3466.94786722
  -exchange      EXHF   =         0.00000000
  -V(xc)+E(xc)   XCENC  =      -219.71043274
  PAW double counting   =     39154.76608145   -38388.48737043
  entropy T*S    EENTRO =        -0.05255454
  eigenvalues    EBANDS =      -756.77223527
  atomic energy  EATOM  =      8498.12264875
  Solvation  Ediel_sol  =         0.00000000
  ---------------------------------------------------
  free energy    TOTEN  =      -897.00469994 eV

  energy without entropy =     -896.95214540  energy(sigma->0) =     -896.97842267


--------------------------------------------------------------------------------------------------------




--------------------------------------- Iteration      1(   3)  ---------------------------------------


    POTLOK:  cpu time      0.7016: real time      0.7222
    SETDIJ:  cpu time      1.5630: real time      1.5638
    EDDIAG:  cpu time     20.4594: real time     20.4747
     EDDAV:  cpu time     96.6810: real time     96.7671
       DOS:  cpu time      0.0040: real time      0.0040
    CHARGE:  cpu time      9.1742: real time      9.1820
    MIXING:  cpu time      0.0145: real time      0.0145
    --------------------------------------------
      LOOP:  cpu time    128.5977: real time    128.7282

 eigenvalue-minimisations  :  3856
 total energy-change (2. order) :-0.2434849E+01  (-0.7198606E+00)
 number of electron     352.9999999 magnetization 
 augmentation part      -16.1159212 magnetization 

 Broyden mixing:
  rms(total) = 0.44480E+00    rms(broyden)= 0.20695E+02
  rms(prec ) = 0.49348E+00
  weight for this iteration     100.00
  WARNING: grid for Broyden might be to small

 eigenvalues of (default mixing * dielectric matrix)
  average eigenvalue GAMMA=   0.7277
  0.8300  0.6253

 Free energy of the ion-electron system (eV)
  ---------------------------------------------------
  alpha Z        PSCENC =       126.08900651
  Ewald energy   TEWEN  =     -5844.01197645
  -Hartree energ DENC   =     -3471.12855329
  -exchange      EXHF   =         0.00000000
  -V(xc)+E(xc)   XCENC  =      -223.17470093
  PAW double counting   =     44462.45074240   -43696.24996927
  entropy T*S    EENTRO =        -0.05183447
  eigenvalues    EBANDS =      -751.48491236
  atomic energy  EATOM  =      8498.12264875
  Solvation  Ediel_sol  =         0.00000000
  ---------------------------------------------------
  free energy    TOTEN  =      -899.43954912 eV

  energy without entropy =     -899.38771465  energy(sigma->0) =     -899.41363189


--------------------------------------------------------------------------------------------------------




--------------------------------------- Iteration      1(   4)  ---------------------------------------


    POTLOK:  cpu time      0.7068: real time      0.7244
    SETDIJ:  cpu time      1.5613: real time      1.5620
    EDDIAG:  cpu time     20.4235: real time     20.4402
     EDDAV:  cpu time    102.8160: real time    102.9100
       DOS:  cpu time      0.0036: real time      0.0036
    CHARGE:  cpu time      9.1218: real time      9.1303
    MIXING:  cpu time      0.0147: real time      0.0148
    --------------------------------------------
      LOOP:  cpu time    134.6478: real time    134.7853

 eigenvalue-minimisations  :  4288
 total energy-change (2. order) :-0.1664700E+00  (-0.6793017E-01)
 number of electron     352.9999999 magnetization 
 augmentation part      -16.1082922 magnetization 

 Broyden mixing:
  rms(total) = 0.31142E-01    rms(broyden)= 0.27480E+01
  rms(prec ) = 0.44976E-01
  weight for this iteration     100.00
  WARNING: grid for Broyden might be to small

 eigenvalues of (default mixing * dielectric matrix)
  average eigenvalue GAMMA=   1.0716
  1.8927  0.7032  0.6188

 Free energy of the ion-electron system (eV)
  ---------------------------------------------------
  alpha Z        PSCENC =       126.08900651
  Ewald energy   TEWEN  =     -5844.01197645
  -Hartree energ DENC   =     -3478.13105634
  -exchange      EXHF   =         0.00000000
  -V(xc)+E(xc)   XCENC  =      -222.91732256
  PAW double counting   =     52025.11460078   -51258.97457197
  entropy T*S    EENTRO =        -0.05200677
  eigenvalues    EBANDS =      -744.84534105
  atomic energy  EATOM  =      8498.12264875
  Solvation  Ediel_sol  =         0.00000000
  ---------------------------------------------------
  free energy    TOTEN  =      -899.60601909 eV

  energy without entropy =     -899.55401233  energy(sigma->0) =     -899.58001571


--------------------------------------------------------------------------------------------------------




--------------------------------------- Iteration      1(   5)  ---------------------------------------


    POTLOK:  cpu time      0.7010: real time      0.7186
    SETDIJ:  cpu time      1.5610: real time      1.5616
    EDDIAG:  cpu time     20.4562: real time     20.4747
     EDDAV:  cpu time    109.9047: real time    110.0040
       DOS:  cpu time      0.0037: real time      0.0247
    CHARGE:  cpu time      9.1041: real time      9.1120
    MIXING:  cpu time      0.0146: real time      0.0146
    --------------------------------------------
      LOOP:  cpu time    141.7453: real time    141.9102

 eigenvalue-minimisations  :  4776
 total energy-change (2. order) :-0.2827192E-01  (-0.4100462E-02)
 number of electron     352.9999999 magnetization 
 augmentation part      -16.1100941 magnetization 

 Broyden mixing:
  rms(total) = 0.21647E-01    rms(broyden)= 0.41767E+00
  rms(prec ) = 0.24732E-01
  weight for this iteration     100.00
  WARNING: grid for Broyden might be to small

 eigenvalues of (default mixing * dielectric matrix)
  average eigenvalue GAMMA=   1.1973
  2.5727  0.9472  0.6347  0.6347

 Free energy of the ion-electron system (eV)
  ---------------------------------------------------
  alpha Z        PSCENC =       126.08900651
  Ewald energy   TEWEN  =     -5844.01197645
  -Hartree energ DENC   =     -3478.40419729
  -exchange      EXHF   =         0.00000000
  -V(xc)+E(xc)   XCENC  =      -223.90389113
  PAW double counting   =     51747.55978864   -50981.39549144
  entropy T*S    EENTRO =        -0.05199571
  eigenvalues    EBANDS =      -743.63818290
  atomic energy  EATOM  =      8498.12264875
  Solvation  Ediel_sol  =         0.00000000
  ---------------------------------------------------
  free energy    TOTEN  =      -899.63429102 eV

  energy without entropy =     -899.58229530  energy(sigma->0) =     -899.60829316


--------------------------------------------------------------------------------------------------------




--------------------------------------- Iteration      1(   6)  ---------------------------------------


    POTLOK:  cpu time      0.7067: real time      0.7217
    SETDIJ:  cpu time      1.5623: real time      1.5639
    EDDIAG:  cpu time     20.4548: real time     20.4720
     EDDAV:  cpu time    102.4354: real time    102.5295
       DOS:  cpu time      0.0049: real time      0.0049
    CHARGE:  cpu time      9.1511: real time      9.1595
    MIXING:  cpu time      0.0148: real time      0.0149
    --------------------------------------------
      LOOP:  cpu time    134.3300: real time    134.4663

 eigenvalue-minimisations  :  4264
 total energy-change (2. order) :-0.5229073E-02  (-0.8961820E-03)
 number of electron     352.9999999 magnetization 
 augmentation part      -16.1080025 magnetization 

 Broyden mixing:
  rms(total) = 0.93369E-02    rms(broyden)= 0.51333E+00
  rms(prec ) = 0.11578E-01
  weight for this iteration     100.00
  WARNING: grid for Broyden might be to small

 eigenvalues of (default mixing * dielectric matrix)
  average eigenvalue GAMMA=   1.1339
  2.5765  1.0389  0.7943  0.6299  0.6299

 Free energy of the ion-electron system (eV)
  ---------------------------------------------------
  alpha Z        PSCENC =       126.08900651
  Ewald energy   TEWEN  =     -5844.01197645
  -Hartree energ DENC   =     -3479.21970007
  -exchange      EXHF   =         0.00000000
  -V(xc)+E(xc)   XCENC  =      -224.00853687
  PAW double counting   =     51684.58361291   -50918.39944238
  entropy T*S    EENTRO =        -0.05197779
  eigenvalues    EBANDS =      -742.74315470
  atomic energy  EATOM  =      8498.12264875
  Solvation  Ediel_sol  =         0.00000000
  ---------------------------------------------------
  free energy    TOTEN  =      -899.63952009 eV

  energy without entropy =     -899.58754230  energy(sigma->0) =     -899.61353120


--------------------------------------------------------------------------------------------------------




--------------------------------------- Iteration      1(   7)  ---------------------------------------


    POTLOK:  cpu time      0.7006: real time      0.7200
    SETDIJ:  cpu time      1.5640: real time      1.5647
    EDDIAG:  cpu time     20.4158: real time     20.4348
     EDDAV:  cpu time    104.0835: real time    104.1811
       DOS:  cpu time      0.0042: real time      0.0042
    CHARGE:  cpu time      9.1108: real time      9.1189
    MIXING:  cpu time      0.0149: real time      0.0150
    --------------------------------------------
      LOOP:  cpu time    135.8939: real time    136.0386

 eigenvalue-minimisations  :  4376
 total energy-change (2. order) :-0.4781123E-03  (-0.1978953E-03)
 number of electron     352.9999999 magnetization 
 augmentation part      -16.1073738 magnetization 

 Broyden mixing:
  rms(total) = 0.35853E-02    rms(broyden)= 0.16588E+00
  rms(prec ) = 0.45390E-02
  weight for this iteration     100.00
  WARNING: grid for Broyden might be to small

 eigenvalues of (default mixing * dielectric matrix)
  average eigenvalue GAMMA=   1.1445
  2.5781  1.3984  0.9429  0.6956  0.6157  0.6364

 Free energy of the ion-electron system (eV)
  ---------------------------------------------------
  alpha Z        PSCENC =       126.08900651
  Ewald energy   TEWEN  =     -5844.01197645
  -Hartree energ DENC   =     -3479.63098545
  -exchange      EXHF   =         0.00000000
  -V(xc)+E(xc)   XCENC  =      -224.02251761
  PAW double counting   =     51709.23921492   -50943.04541438
  entropy T*S    EENTRO =        -0.05197168
  eigenvalues    EBANDS =      -742.32800281
  atomic energy  EATOM  =      8498.12264875
  Solvation  Ediel_sol  =         0.00000000
  ---------------------------------------------------
  free energy    TOTEN  =      -899.63999820 eV

  energy without entropy =     -899.58802652  energy(sigma->0) =     -899.61401236


--------------------------------------------------------------------------------------------------------




--------------------------------------- Iteration      1(   8)  ---------------------------------------


    POTLOK:  cpu time      0.7013: real time      0.7193
    SETDIJ:  cpu time      1.5604: real time      1.5613
    EDDIAG:  cpu time     20.4496: real time     20.4673
     EDDAV:  cpu time    106.9087: real time    107.0033
       DOS:  cpu time      0.0036: real time      0.0036
    CHARGE:  cpu time      8.9447: real time      8.9523
    MIXING:  cpu time      0.0152: real time      0.0152
    --------------------------------------------
      LOOP:  cpu time    138.5834: real time    138.7221

 eigenvalue-minimisations  :  4560
 total energy-change (2. order) :-0.1024197E-03  (-0.3873380E-04)
 number of electron     352.9999999 magnetization 
 augmentation part      -16.1074865 magnetization 

 Broyden mixing:
  rms(total) = 0.16709E-02    rms(broyden)= 0.48886E-01
  rms(prec ) = 0.19151E-02
  weight for this iteration     100.00
  WARNING: grid for Broyden might be to small

 eigenvalues of (default mixing * dielectric matrix)
  average eigenvalue GAMMA=   1.2505
  2.4907  2.4907  0.9870  0.8900  0.6520  0.6126  0.6307

 Free energy of the ion-electron system (eV)
  ---------------------------------------------------
  alpha Z        PSCENC =       126.08900651
  Ewald energy   TEWEN  =     -5844.01197645
  -Hartree energ DENC   =     -3479.75543634
  -exchange      EXHF   =         0.00000000
  -V(xc)+E(xc)   XCENC  =      -224.04480432
  PAW double counting   =     51729.06443292   -50962.86669986
  entropy T*S    EENTRO =        -0.05197442
  eigenvalues    EBANDS =      -742.18529742
  atomic energy  EATOM  =      8498.12264875
  Solvation  Ediel_sol  =         0.00000000
  ---------------------------------------------------
  free energy    TOTEN  =      -899.64010062 eV

  energy without entropy =     -899.58812620  energy(sigma->0) =     -899.61411341


--------------------------------------------------------------------------------------------------------




--------------------------------------- Iteration      1(   9)  ---------------------------------------


    POTLOK:  cpu time      0.7020: real time      0.7205
    SETDIJ:  cpu time      1.5621: real time      1.5628
    EDDIAG:  cpu time     20.4605: real time     20.4790
     EDDAV:  cpu time    101.8834: real time    101.9761
       DOS:  cpu time      0.0056: real time      0.0056
    CHARGE:  cpu time      9.0306: real time      9.0382
    MIXING:  cpu time      0.0151: real time      0.0152
    --------------------------------------------
      LOOP:  cpu time    133.6596: real time    133.7975

 eigenvalue-minimisations  :  4216
 total energy-change (2. order) :-0.3922326E-04  (-0.1104079E-04)
 number of electron     352.9999999 magnetization 
 augmentation part      -16.1074403 magnetization 

 Broyden mixing:
  rms(total) = 0.64450E-03    rms(broyden)= 0.32878E-01
  rms(prec ) = 0.83028E-03
  weight for this iteration     100.00
  WARNING: grid for Broyden might be to small

 eigenvalues of (default mixing * dielectric matrix)
  average eigenvalue GAMMA=   1.2609
  2.6647  2.6647  1.0716  1.0228  0.7793  0.6533  0.6264  0.6042

 Free energy of the ion-electron system (eV)
  ---------------------------------------------------
  alpha Z        PSCENC =       126.08900651
  Ewald energy   TEWEN  =     -5844.01197645
  -Hartree energ DENC   =     -3479.81844093
  -exchange      EXHF   =         0.00000000
  -V(xc)+E(xc)   XCENC  =      -224.05054594
  PAW double counting   =     51716.51227572   -50950.31205879
  entropy T*S    EENTRO =        -0.05197347
  eigenvalues    EBANDS =      -742.11907525
  atomic energy  EATOM  =      8498.12264875
  Solvation  Ediel_sol  =         0.00000000
  ---------------------------------------------------
  free energy    TOTEN  =      -899.64013984 eV

  energy without entropy =     -899.58816637  energy(sigma->0) =     -899.61415311


--------------------------------------------------------------------------------------------------------




--------------------------------------- Iteration      1(  10)  ---------------------------------------


    POTLOK:  cpu time      0.7048: real time      0.7215
    SETDIJ:  cpu time      1.5610: real time      1.5624
    EDDIAG:  cpu time     20.4789: real time     20.4969
     EDDAV:  cpu time    103.0137: real time    103.1025
       DOS:  cpu time      0.0036: real time      0.0036
    CHARGE:  cpu time      9.0204: real time      9.0279
    MIXING:  cpu time      0.0159: real time      0.0159
    --------------------------------------------
      LOOP:  cpu time    134.7980: real time    134.9305

 eigenvalue-minimisations  :  4288
 total energy-change (2. order) :-0.5760427E-05  (-0.3329135E-05)
 number of electron     352.9999999 magnetization 
 augmentation part      -16.1074858 magnetization 

 Broyden mixing:
  rms(total) = 0.34170E-03    rms(broyden)= 0.18708E-01
  rms(prec ) = 0.46469E-03
  weight for this iteration     100.00
  WARNING: grid for Broyden might be to small

 eigenvalues of (default mixing * dielectric matrix)
  average eigenvalue GAMMA=   1.3026
  3.0200  2.6458  1.5115  1.0400  0.9624  0.6947  0.6333  0.6247  0.5910

 Free energy of the ion-electron system (eV)
  ---------------------------------------------------
  alpha Z        PSCENC =       126.08900651
  Ewald energy   TEWEN  =     -5844.01197645
  -Hartree energ DENC   =     -3479.83893061
  -exchange      EXHF   =         0.00000000
  -V(xc)+E(xc)   XCENC  =      -224.05782761
  PAW double counting   =     51714.47008604   -50948.26917678
  entropy T*S    EENTRO =        -0.05197261
  eigenvalues    EBANDS =      -742.09200286
  atomic energy  EATOM  =      8498.12264875
  Solvation  Ediel_sol  =         0.00000000
  ---------------------------------------------------
  free energy    TOTEN  =      -899.64014560 eV

  energy without entropy =     -899.58817300  energy(sigma->0) =     -899.61415930


--------------------------------------------------------------------------------------------------------




--------------------------------------- Iteration      1(  11)  ---------------------------------------


    POTLOK:  cpu time      0.7033: real time      0.7196
    SETDIJ:  cpu time      1.5625: real time      1.5639
    EDDIAG:  cpu time     20.4309: real time     20.4485
     EDDAV:  cpu time    102.6827: real time    102.7757
       DOS:  cpu time      0.0047: real time      0.0047
    --------------------------------------------
      LOOP:  cpu time    125.3845: real time    125.5127

 eigenvalue-minimisations  :  4272
 total energy-change (2. order) : 0.1066292E-06  (-0.9360163E-06)
 number of electron     352.9999999 magnetization 
 augmentation part      -16.1074858 magnetization 

 Free energy of the ion-electron system (eV)
  ---------------------------------------------------
  alpha Z        PSCENC =       126.08900651
  Ewald energy   TEWEN  =     -5844.01197645
  -Hartree energ DENC   =     -3479.84637288
  -exchange      EXHF   =         0.00000000
  -V(xc)+E(xc)   XCENC  =      -224.06413198
  PAW double counting   =     51716.09435116   -50949.89351508
  entropy T*S    EENTRO =        -0.05197165
  eigenvalues    EBANDS =      -742.07818387
  atomic energy  EATOM  =      8498.12264875
  Solvation  Ediel_sol  =         0.00000000
  ---------------------------------------------------
  free energy    TOTEN  =      -899.64014550 eV

  energy without entropy =     -899.58817384  energy(sigma->0) =     -899.61415967


--------------------------------------------------------------------------------------------------------




 average (electrostatic) potential at core
  the test charge radii are     0.5201  0.9892
  (the norm of the test charge is              1.0000)
       1 -35.1578       2 -35.2423       3 -36.3236       4 -35.8245       5 -36.1330
       6 -35.4506       7 -34.8765       8 -35.7514       9 -35.9432      10 -36.1261
      11 -35.5543      12 -35.7652      13 -35.4097      14 -35.0834      15 -35.5165
      16 -35.0335      17 -35.9143      18 -35.1599      19 -35.0943      20 -35.9213
      21 -36.1898      22 -35.2557      23 -36.1558      24 -34.9311      25 -34.7863
      26 -35.6341      27 -35.1730      28 -34.8951      29 -35.0977      30 -35.7702
      31 -34.8981      32 -35.1602      33 -35.8058      34 -35.8404      35 -35.9280
      36 -35.0236      37 -35.8681      38 -36.3851      39 -35.6269      40 -35.6492
      41 -35.1955      42 -35.8031      43 -35.5673      44 -35.4391      45 -34.9286
      46 -88.7191      47 -88.5788      48 -88.6701      49 -88.4787      50 -88.9627
      51 -89.1587      52 -88.7659      53 -88.7166      54 -88.7372      55 -88.9013
      56 -88.6863      57 -88.7948      58 -88.8311      59 -88.9705      60 -89.0800
      61 -89.0554      62 -88.8332      63 -89.0689      64 -88.9716      65 -88.6263
      66 -88.9880      67 -88.8452      68 -88.8462      69 -89.0863      70 -88.8066
      71 -88.8553      72 -88.8343      73 -88.7978      74 -88.3735      75 -88.8764
      76 -88.4009      77 -88.3887      78 -88.8218      79 -88.6486      80 -88.8963
      81 -88.5151      82 -88.5887      83 -88.3888      84 -89.0240      85 -89.2172
      86 -88.8092      87 -89.1066      88 -88.7645      89 -88.7326      90 -88.6922
      91 -88.8734      92 -88.9407      93 -88.8501      94 -88.4546      95 -89.1281
      96 -88.8443      97 -88.6986      98 -88.6289      99 -88.7111     100 -88.6270
     101 -88.2057     102 -88.6368     103 -88.8671     104 -88.6295     105 -89.2008
     106 -88.8902     107 -88.7135     108 -88.7448     109 -88.8951     110 -89.3842
     111 -88.5986     112 -88.6568     113 -88.8564     114 -88.7379     115 -88.7748
     116 -88.3826     117 -88.9731     118 -89.0283     119 -88.6310     120 -88.6572
     121 -88.6331     122 -88.4293



 E-fermi :   3.5519     XC(G=0):  -8.5579     alpha+bet : -9.2926

 WARNING: Could not determine fundamental gap because eigenvalues are not
     sorted.

 Fermi energy:         3.5518786576

 k-point     1 :       0.0000    0.0000    0.0000
  band No.  band energies     occupation 
[...]
   0.907E+02 0.311E+02 -.142E+02   -.881E+02 -.309E+02 0.140E+02   -.145E+01 0.564E+00 -.267E+00   -.888E-03 -.112E-03 0.800E-04
   0.719E+02 0.134E+02 -.337E+01   -.679E+02 -.131E+02 0.261E+01   -.373E+01 -.689E+00 0.637E+00   -.409E-03 0.857E-04 0.248E-04
   -.435E+01 0.665E+02 -.316E+02   0.401E+01 -.650E+02 0.314E+02   -.104E+00 -.138E+01 0.162E+01   -.428E-04 -.495E-03 0.169E-03
   -.137E+02 0.626E+02 -.140E+02   0.143E+02 -.619E+02 0.152E+02   -.363E+00 -.488E+00 -.140E+01   -.282E-03 -.353E-03 0.458E-04
   0.331E+01 0.434E+02 0.904E+01   -.318E+01 -.430E+02 -.985E+01   -.223E+01 -.993E+00 -.404E+00   -.915E-04 -.289E-03 -.287E-05
   0.481E+02 -.568E+02 0.103E+02   -.487E+02 0.538E+02 -.108E+02   -.255E+00 0.386E+01 -.516E+00   -.216E-04 -.198E-04 -.140E-04
   -.343E+02 -.945E+01 0.132E+02   0.339E+02 0.867E+01 -.125E+02   0.942E+00 0.104E+01 -.114E+01   0.158E-03 0.158E-03 0.724E-04
   -.296E+01 -.493E+02 0.928E+01   -.296E+00 0.489E+02 -.646E+01   0.333E+01 0.112E+01 -.237E+01   0.123E-03 0.164E-03 0.771E-04
   0.298E+02 -.101E+02 0.477E+02   -.293E+02 0.119E+02 -.437E+02   0.294E-01 -.301E+01 -.508E+01   0.164E-03 0.237E-03 -.121E-03
   -.202E+02 0.479E+01 -.335E+01   0.200E+02 -.470E+01 0.449E+01   0.678E+00 -.117E+01 -.625E+00   -.280E-03 -.182E-05 0.127E-03
   0.492E+02 -.608E+02 -.610E+01   -.483E+02 0.587E+02 0.523E+01   -.751E+00 0.238E+01 0.217E+01   0.949E-04 0.182E-03 -.247E-04
   -.207E+02 -.112E+02 -.402E+01   0.196E+02 0.897E+01 0.561E+01   0.201E+01 0.173E+01 -.116E+01   0.100E-04 -.138E-03 0.108E-03
   -.107E+02 -.106E+03 0.415E+01   0.917E+01 0.106E+03 -.503E+01   0.775E+00 0.256E+00 0.174E+01   0.901E-04 0.133E-02 0.966E-05
 -----------------------------------------------------------------------------------------------
   0.637E+01 0.241E+01 0.536E+01   -.462E-13 0.171E-12 0.101E-12   -.638E+01 -.241E+01 -.536E+01   -.130E-02 0.312E-03 0.658E-03


 POSITION                                       TOTAL-FORCE (eV/Angst)
 -----------------------------------------------------------------------------------
      9.12778     14.56084      2.07537         0.364076      1.350403     -1.997656
      7.49902      2.64378      2.06295        -0.973143     -1.176644      0.197527
     10.01160      2.45156      6.41011         1.536443     -1.559280     -0.864929
     12.54000      2.29753      4.47675        -0.598951     -0.152539      0.956192
     11.90830      1.61482      0.02950        -0.044427     -0.008490     -0.021629
      7.08401      1.21135      6.68589         0.998943      0.843613     -0.053675
      5.56765      2.58296      0.63670        -0.823438      0.662871     -0.614306
     10.28940      4.56552      1.33230        -0.367110      0.095594     -0.212979
     11.67490      1.12760      2.83190         0.260305     -0.157157      0.787367
     11.82990      1.06331      9.51939        -0.066957      0.002995      0.045163
     13.85700      3.00585      2.91277         0.099396      0.642775      0.362067
     13.72560      1.75071      2.15511        -0.603379      0.258575      0.032464
      8.76341      6.19665      2.43212        -0.168780      0.083739      0.441987
      6.48953      4.09951      5.82156        -0.503645      0.498859      0.036102
      5.41350      2.94586      7.67589         0.011581     -0.469014      0.196982
     12.83960     13.51540      6.70147        -0.214362     -0.057567     -0.299998
      8.38300      3.81053      3.86791        -0.463504     -0.661322      0.199550
      9.25719      0.41039      1.37566        -0.444810     -1.219591      2.113994
      6.76150      0.22325      0.66732         0.555041      0.330911     -0.126480
     11.36590      1.27028      2.20010        -0.497363      0.196604     -0.714028
      8.97939     12.85140      6.34157         0.046163      0.038096      0.155739
      6.97589      2.05412      2.13588         1.087278      1.111931     -0.100806
      8.37741     13.28860      6.30053         0.013393      0.140314      0.073215
     10.07070      4.65036      6.16310         0.006179      1.295912      0.426965
      0.06095     14.50620      5.14513         0.338827     -0.132041      0.200399
     12.85880      5.83644      0.95464        -2.123460     -1.401774      1.417145
     10.54120     14.27800      5.64102         1.271645      2.570528     -0.077547
      5.84522      1.08562      4.54022        -0.494106      0.092739      0.046019
      9.83931     13.61560      9.78773         0.073607      0.330307     -0.155242
      9.62227      4.79700      1.06467         0.407649     -0.189887      0.107418
      5.11067      8.46897      5.87842         0.080391      0.204792     -0.567218
     10.91980      0.46177      5.61950        -1.256169     -2.553881      0.048938
     12.15710      2.20296      5.14633         0.500578      0.166581     -0.999512
     12.48930      1.65523      6.91101        -0.251583      0.304659      0.895711
      8.85155      4.34560      3.74719         0.617122      0.565333     -0.093050
      6.70235      4.75240      2.73365         0.045932     -0.300510     -0.058322
      9.71807     13.16430      3.84278         0.498041      0.943297      0.018392
      9.54176      2.87763      6.67730        -1.548108      1.330413      0.916298
     11.08100      6.18289      2.93430        -0.351612     -0.428190     -0.907233
      7.36552      3.82206      7.94010         0.469821      0.262284      1.276806
     12.40210     13.28500      2.83854         0.040375      0.226199      0.010934
     12.23540      1.93812      7.58093         0.317870     -0.335938     -0.813670
      7.61347      3.96034      8.67336        -0.374219     -0.213055     -1.202250
      7.66081      1.74050      6.65346        -0.913460     -0.939514      0.074051
      6.99795     13.89800      4.94404        -0.544106      0.087173     -0.371101
     13.87460     12.49780      6.98860         0.297024      0.117270      0.303463
      4.73018     10.97570      1.28557         0.724567     -0.312654      0.390169
     14.08370      8.85993      7.53346        -0.339704      0.912707      0.001062
      3.66026      4.17078      2.39485         0.215187     -0.555781      0.621370
     12.84280     10.70840      8.17161         0.011238      0.826975      0.311702
      3.19238      8.81767      9.07884        -0.254962     -0.212859      0.060051
      9.59370     10.24650      4.96107         0.290259     -0.114206     -0.458122
      2.27655     10.15520      5.37072        -0.689376      0.701277      1.098954
      5.82106     11.39660      6.26377        -0.470307      0.684404     -1.354755
      6.48665     12.62350      4.31259         1.581146      0.637618      1.853462
      2.69556     13.27750      2.97830         0.812900      0.554343     -0.404351
      5.75495      7.45400      1.99378         0.845713     -0.303084      0.129736
      1.62207      5.20810      2.50864        -0.473397     -0.551493     -0.405444
      4.09793     14.43650      8.96918         0.707591      0.493377      0.275487
      5.80058      5.46350      5.64953         0.074654     -0.567680     -1.185025
      2.77728     12.49860      8.50114         0.242830      1.224884     -0.519319
     11.47740      9.07200      4.21153        -0.333423      0.495339     -0.690072
      1.63124      6.48107      6.28384         1.712196      0.827629     -0.449788
      8.73005     12.14080      3.71391        -0.881213     -1.885593      0.204585
     13.46850      9.38427      5.31780         0.444634     -0.265984     -0.004158
     13.48650     13.19080      1.81249         0.262987     -0.394297      0.315153
      5.89553     13.64500      0.45710        -0.518924      0.478432     -0.039741
      7.60852      6.88879      6.17384        -0.200140      0.417479      1.236377
      0.65467      1.36044      9.23623        -0.825793     -0.549724      0.159803
      0.98692     13.87410      8.03726        -1.423533      0.210402     -0.509414
      3.72401      5.46943      6.80190        -0.277775     -0.787000      0.564515
      9.83398      6.19317      6.09445         0.238485     -0.920131     -0.067332
     11.70060      9.73392      1.91840         2.040130     -0.032071      0.349170
     13.63970      6.77393      0.32700         1.338897      1.286581     -0.267000
     13.79740      8.59727      1.85316        -0.175224     -0.252459     -0.853616
      2.17881      0.83484      2.20095        -0.946497     -0.361385     -0.372622
      3.13075     13.79790      5.11534         0.288937      0.990078      0.537346
      8.17660      7.52958      2.73474        -0.299530      0.581653     -2.253620
      4.36578      5.42567      9.05087        -0.455252      1.022936      0.418933
      6.98885     10.56160      8.00571         1.418871     -0.479370      0.232042
     14.38180      7.74787      3.94035        -0.843349     -0.815008      0.326342
      1.94398      7.01242      3.89817        -0.113815     -0.172621      0.722898
      4.76829      9.30566      2.90206         0.366529      0.206815     -0.670326
      4.34998      1.93127      7.39829        -0.212595     -1.339103     -0.933164
      5.27455      7.62436      9.61234         0.355191     -0.994236     -0.190995
      2.52684      6.73353      9.87966         0.733338     -0.693798     -0.084983
     12.26580     11.59720      0.48382         0.402437     -0.603365     -0.288476
      5.05693     12.88330      2.57480        -1.541846      0.185615     -1.387922
      2.56230      9.12414      3.29391        -0.038857     -0.067705      0.277765
     14.42020      0.74747      1.38137         1.182465     -0.545661     -0.105047
      3.55953     11.91440      6.37040        -0.198409     -0.614429     -0.011168
      4.24848      3.34389      0.27903         0.745072      0.050048      0.737332
     10.79950      7.77347      7.63610         0.007254     -1.036386     -0.467058
      4.43450      1.18750      5.07169         0.795826     -0.283188      0.589801
     14.26660      5.38143      6.95227        -0.891875      0.156537      0.785637
     11.27270      6.69055      4.26034         0.063394      0.154007      1.277153
      8.54615     11.31970      1.56609         1.606050     -0.876817     -0.297261
      1.28567      0.34475      5.95903        -1.040100     -0.042160     -0.742634
      0.83360      5.28739      0.25254        -0.282455      0.202041     -0.035585
      5.47676      5.39690      3.23903        -0.188046      0.552722     -0.149053
      9.30881     10.99050      8.31907        -0.562855     -1.032028     -0.761007
      8.00846      8.57952      4.69486        -1.301820      0.772968      1.041436
     14.53978      3.99126      3.83760         0.336751     -0.121030     -0.600771
     12.94390      7.03076      8.16269         0.432029     -0.673857     -0.144195
      2.64556     10.89330      0.15644         0.233983     -1.164628      0.824743
      1.74500      8.68669      7.17772         1.118885     -0.275254     -0.471802
     13.37060      5.68783      4.85101        -0.662396      0.802899     -0.638699
      2.54106      3.38387      7.02222        -0.150303      0.729859      0.952542
      6.77019     11.46650      0.12665        -1.772226      0.248793      0.283099
      0.51771      3.59887      8.46207         1.141381      0.888786     -0.474863
      1.25529      2.66735      5.29230         0.197851     -0.402648     -0.100472
      9.31124      8.73261      9.10672        -0.454558      0.084121      1.402192
      7.15526      8.15769      8.25632         0.258071      0.332338     -0.213101
      9.60552      9.09013      1.52040        -2.202072     -0.559463     -1.264259
      0.68287     12.10240      3.06991        -0.865080      1.065842     -1.010285
      2.94037      2.36095      3.76739         0.594735      0.273011     -0.481426
     10.83190      9.99557      6.92320         0.203841      0.730211      0.341653
      1.02307     10.24450      1.90445         0.559626     -1.342116     -1.288342
      5.77246      9.52365      4.95417         0.507507     -1.182302      0.512070
      0.16836     11.25970      5.08139         0.139528      0.416142      1.410097
      2.78113      1.50625      0.05800         1.062229     -0.447747      0.391442
     10.11300     12.18980      0.02370        -0.718478      0.834078      0.921903
 -----------------------------------------------------------------------------------
    total drift:                               -0.013899      0.002628     -0.001274


--------------------------------------------------------------------------------------------------------



  FREE ENERGIE OF THE ION-ELECTRON SYSTEM (eV)
  ---------------------------------------------------
  free  energy   TOTEN  =      -899.64014550 eV

  energy  without entropy=     -899.58817384  energy(sigma->0) =     -899.61415967



--------------------------------------------------------------------------------------------------------


    POTLOK:  cpu time      2.2516: real time      2.2636


--------------------------------------------------------------------------------------------------------


     LOOP+:  cpu time   1686.8769: real time   1688.5425
    4ORBIT:  cpu time      0.0000: real time      0.0000



 total charge

# of ion       s       p       d       tot
------------------------------------------
    1        0.559   0.022   0.000   0.581
    2        0.581   0.026   0.000   0.607
    3        0.658   0.043   0.000   0.701
    4        0.589   0.029   0.000   0.618
    5        0.614   0.032   0.000   0.646
    6        0.586   0.027   0.000   0.613
    7        0.534   0.013   0.000   0.547
    8        0.603   0.030   0.000   0.634
    9        0.634   0.037   0.000   0.671
   10        0.611   0.033   0.000   0.644
   11        0.557   0.018   0.000   0.575
   12        0.590   0.021   0.000   0.611
   13        0.564   0.016   0.000   0.581
   14        0.547   0.014   0.000   0.561
   15        0.559   0.016   0.000   0.576
   16        0.573   0.016   0.000   0.589
   17        0.628   0.037   0.000   0.664
   18        0.555   0.022   0.000   0.577
   19        0.585   0.017   0.000   0.602
   20        0.636   0.037   0.000   0.673
   21        0.615   0.033   0.000   0.648
   22        0.579   0.026   0.000   0.605
   23        0.608   0.034   0.000   0.642
   24        0.536   0.013   0.000   0.549
   25        0.557   0.014   0.000   0.571
   26        0.627   0.022   0.000   0.649
   27        0.543   0.020   0.000   0.563
   28        0.557   0.015   0.000   0.572
   29        0.579   0.016   0.000   0.596
   30        0.605   0.030   0.000   0.635
   31        0.549   0.013   0.000   0.562
   32        0.547   0.020   0.000   0.566
   33        0.592   0.028   0.000   0.620
   34        0.596   0.029   0.000   0.625
   35        0.631   0.036   0.000   0.667
   36        0.578   0.017   0.000   0.594
   37        0.593   0.019   0.000   0.611
   38        0.656   0.044   0.000   0.700
   39        0.591   0.019   0.000   0.609
   40        0.581   0.027   0.000   0.608
   41        0.563   0.015   0.000   0.579
   42        0.594   0.029   0.000   0.623
   43        0.583   0.026   0.000   0.609
   44        0.584   0.027   0.000   0.611
   45        0.563   0.015   0.000   0.579
   46        0.742   0.937   0.000   1.679
   47        0.754   0.953   0.000   1.707
   48        0.760   0.987   0.000   1.746
   49        0.748   0.972   0.000   1.720
   50        0.756   0.892   0.000   1.648
   51        0.753   0.901   0.000   1.655
   52        0.750   0.956   0.000   1.706
   53        0.755   0.933   0.000   1.688
   54        0.748   0.993   0.000   1.740
   55        0.742   0.971   0.000   1.713
   56        0.747   0.974   0.000   1.722
   57        0.751   0.909   0.000   1.660
   58        0.750   0.934   0.000   1.683
   59        0.749   0.886   0.000   1.635
   60        0.736   0.931   0.000   1.667
   61        0.745   0.963   0.000   1.709
   62        0.761   0.928   0.000   1.689
   63        0.757   0.900   0.000   1.657
   64        0.743   0.980   0.000   1.722
   65        0.757   0.980   0.000   1.737
   66        0.740   0.942   0.000   1.682
   67        0.745   0.936   0.000   1.681
   68        0.748   0.944   0.000   1.692
   69        0.755   0.927   0.000   1.682
   70        0.747   0.944   0.000   1.691
   71        0.746   0.931   0.000   1.677
   72        0.738   0.940   0.000   1.678
   73        0.750   0.949   0.000   1.699
   74        0.751   1.035   0.000   1.786
   75        0.753   0.918   0.000   1.672
   76        0.756   0.956   0.000   1.712
   77        0.756   1.000   0.000   1.756
   78        0.745   0.954   0.000   1.699
   79        0.746   0.924   0.000   1.670
   80        0.753   0.948   0.000   1.701
   81        0.764   0.959   0.000   1.723
   82        0.763   0.972   0.000   1.735
   83        0.751   1.019   0.000   1.770
   84        0.745   0.906   0.000   1.651
   85        0.753   0.861   0.000   1.614
   86        0.789   0.882   0.000   1.671
   87        0.748   0.908   0.000   1.656
   88        0.745   0.964   0.000   1.709
   89        0.756   0.976   0.000   1.732
   90        0.753   0.965   0.000   1.718
   91        0.749   0.951   0.000   1.701
   92        0.737   0.934   0.000   1.671
   93        0.749   0.958   0.000   1.707
   94        0.745   0.965   0.000   1.709
   95        0.753   0.908   0.000   1.661
   96        0.747   0.963   0.000   1.710
   97        0.750   0.960   0.000   1.710
   98        0.747   0.958   0.000   1.705
   99        0.757   0.943   0.000   1.699
  100        0.741   0.959   0.000   1.700
  101        0.769   0.993   0.000   1.762
  102        0.748   0.992   0.000   1.741
  103        0.753   0.947   0.000   1.701
  104        0.751   0.991   0.000   1.741
  105        0.750   0.922   0.000   1.672
  106        0.753   0.934   0.000   1.687
  107        0.748   0.954   0.000   1.702
  108        0.762   0.920   0.000   1.682
  109        0.752   0.947   0.000   1.699
  110        0.765   0.843   0.000   1.608
  111        0.751   0.980   0.000   1.730
  112        0.758   0.922   0.000   1.680
  113        0.756   0.895   0.000   1.651
  114        0.752   0.925   0.000   1.677
  115        0.753   0.991   0.000   1.744
  116        0.756   0.976   0.000   1.732
  117        0.755   0.915   0.000   1.669
  118        0.757   0.930   0.000   1.687
  119        0.751   0.964   0.000   1.715
  120        0.751   0.971   0.000   1.722
  121        0.760   0.959   0.000   1.718
  122        0.747   1.025   0.000   1.773
--------------------------------------------------
tot         84.243  74.028   0.000 158.270


 total amount of memory used by VASP MPI-rank0   188030. kBytes
=======================================================================

   base                                    :      30000. kBytes
   nonl-proj                               :      37235. kBytes
   fftplans                                :      40935. kBytes
   grid                                    :      31575. kBytes
   one-center                              :         24. kBytes
   wavefun                                 :      48261. kBytes

  
  
 General timing and accounting informations for this job:
 ========================================================
  
                  Total CPU time used (sec):     1758.080
                            User time (sec):     1751.490
                          System time (sec):        6.590
                         Elapsed time (sec):     1759.681
  
                   Maximum memory used (kb):      381056.
                   Average memory used (kb):          N/A
  
                          Minor page faults:       232649
                          Major page faults:         1145
                 Voluntary context switches:         2129
