 vasp.6.5.0 16Dec24 (build Jan 20 2025 08:32:48) complex                         
 executed on        HPECrayEX_GCC date 2025.07.21  19:55:29
 running  128 mpi-ranks, with    1 threads/rank, on    1 nodes
 distrk:  each k-point on  128 cores,    1 groups
 distr:  one band on NCORE=  16 cores,    8 groups


--------------------------------------------------------------------------------------------------------


 INCAR:
   SYSTEM = a-Si SPC
   NCORE = 16
   ISTART = 1
   ICHARG = 1
   ISPIN = 1
   ISYM = 1
   EDIFF = 1E-6
   NELM = 150
   EDIFFG = -0.01
   NSW = 0
   ISIF = 2
   IBRION = -1
   PREC = Accurate
   ENCUT = 1200
   KSPACING = 0.23
   KGAMMA = .TRUE.
   METAGGA = SCAN
   LASPH = .TRUE.
   LDIAG = .FALSE.
   LMIXTAU = .TRUE.
   ADDGRID = .TRUE.
   ALGO = Normal
   ISMEAR = 0
   SIGMA = 0.1
   LORBIT = 11
   NEDOS = 2000
   LWAVE = .FALSE.
   LCHARG = .FALSE.

 POTCAR:    PAW_PBE H 15Jun2001                   
 POTCAR:    PAW_PBE Si 05Jan2001                  
 POTCAR:    PAW_PBE H 15Jun2001                   
   SHA256 =  030f79b5d3ab3cf0e668861823c8fb652ff669f3e15e46930bd03bfd63a607b6 H/POTCAR              
   COPYR  = (c) Copyright 15Jun2001 Georg Kresse                                                    
   COPYR  = This file is part of the software VASP. Any use, copying, and all other rights are regul
   COPYR  = If you do not have a valid VASP license, you may not use, copy or distribute this file. 
   VRHFIN =H: ultrasoft test                                                                        
   LEXCH  = PE                                                                                      
   EATOM  =    12.4884 eV,    0.9179 Ry                                                             
                                                                                                    
   TITEL  = PAW_PBE H 15Jun2001                                                                     
   LULTRA =        F    use ultrasoft PP ?                                                          
   IUNSCR =        0    unscreen: 0-lin 1-nonlin 2-no                                               
   RPACOR =    0.000    partial core radius                                                         
   POMASS =    1.000; ZVAL   =    1.000    mass and valenz                                          
   RCORE  =    1.100    outmost cutoff radius                                                       
   RWIGS  =    0.700; RWIGS  =    0.370    wigner-seitz radius (au A)                               
   ENMAX  =  250.000; ENMIN  =  200.000 eV                                                          
   RCLOC  =    0.701    cutoff for local pot                                                        
   LCOR   =        T    correct aug charges                                                         
   LPAW   =        T    paw PP                                                                      
   EAUG   =  400.000                                                                                
   RMAX   =    1.123    core radius for proj-oper                                                   
   RAUG   =    1.200    factor for augmentation sphere                                              
   RDEP   =    1.112    radius for radial grids                                                     
   RDEPT  =    0.926    core radius for aug-charge                                                  
                                                                                                    
   Atomic configuration                                                                             
    2 entries                                                                                       
     n  l   j            E        occ.                                                              
     1  0  0.50        -6.4927   1.0000                                                             
     2  1  0.50        -3.4015   0.0000                                                             
   Description                                                                                      
     l       E           TYP  RCUT    TYP  RCUT                                                     
     0     -6.4927494     23  1.100                                                                 
     0      6.8029130     23  1.100                                                                 
     1     -4.0817478     23  1.100                                                                 
  local pseudopotential read in
  atomic valenz-charges read in
  non local Contribution for L=           0  read in
    real space projection operators read in
  non local Contribution for L=           0  read in
    real space projection operators read in
  non local Contribution for L=           1  read in
    real space projection operators read in
    PAW grid and wavefunctions read in

   number of l-projection  operators is LMAX  =           3
   number of lm-projection operators is LMMAX =           5

 POTCAR:    PAW_PBE Si 05Jan2001                  
   SHA256 =  79d9987ad8750f624c4d6acb2a16d13abf6a777132adc04dc6c8399be72b42bb Si/POTCAR             
   COPYR  = (c) Copyright 05Jan2001 Georg Kresse                                                    
   COPYR  = This file is part of the software VASP. Any use, copying, and all other rights are regul
   COPYR  = If you do not have a valid VASP license, you may not use, copy or distribute this file. 
   VRHFIN =Si: s2p2                                                                                 
   LEXCH  = PE                                                                                      
   EATOM  =   103.0669 eV,    7.5752 Ry                                                             
                                                                                                    
   TITEL  = PAW_PBE Si 05Jan2001                                                                    
   LULTRA =        F    use ultrasoft PP ?                                                          
   IUNSCR =        1    unscreen: 0-lin 1-nonlin 2-no                                               
   RPACOR =    1.500    partial core radius                                                         
   POMASS =   28.085; ZVAL   =    4.000    mass and valenz                                          
   RCORE  =    1.900    outmost cutoff radius                                                       
   RWIGS  =    2.480; RWIGS  =    1.312    wigner-seitz radius (au A)                               
   ENMAX  =  245.345; ENMIN  =  184.009 eV                                                          
   ICORE  =        2    local potential                                                             
   LCOR   =        T    correct aug charges                                                         
   LPAW   =        T    paw PP                                                                      
   EAUG   =  322.069                                                                                
   DEXC   =    0.000                                                                                
   RMAX   =    1.950    core radius for proj-oper                                                   
   RAUG   =    1.300    factor for augmentation sphere                                              
   RDEP   =    1.993    radius for radial grids                                                     
   RDEPT  =    1.837    core radius for aug-charge                                                  
                                                                                                    
   Atomic configuration                                                                             
    6 entries                                                                                       
     n  l   j            E        occ.                                                              
     1  0  0.50     -1785.8828   2.0000                                                             
     2  0  0.50      -139.4969   2.0000                                                             
     2  1  1.50       -95.5546   6.0000                                                             
     3  0  0.50       -10.8127   2.0000                                                             
     3  1  0.50        -4.0811   2.0000                                                             
     3  2  1.50        -4.0817   0.0000                                                             
   Description                                                                                      
     l       E           TYP  RCUT    TYP  RCUT                                                     
     0    -10.8127223     23  1.900                                                                 
     0     -7.6451159     23  1.900                                                                 
     1     -4.0811372     23  1.900                                                                 
     1      2.4879257     23  1.900                                                                 
     2     -4.0817478      7  1.900                                                                 
  local pseudopotential read in
  partial core-charges read in
  partial kinetic energy density read in
  atomic valenz-charges read in
  non local Contribution for L=           0  read in
    real space projection operators read in
  non local Contribution for L=           0  read in
    real space projection operators read in
  non local Contribution for L=           1  read in
    real space projection operators read in
  non local Contribution for L=           1  read in
    real space projection operators read in
    PAW grid and wavefunctions read in

   number of l-projection  operators is LMAX  =           4
   number of lm-projection operators is LMMAX =           8

 -----------------------------------------------------------------------------
|                                                                             |
|               ----> ADVICE to this user running VASP <----                  |
|                                                                             |
|     You have a (more or less) 'large supercell' and for larger cells it     |
|     might be more efficient to use real-space projection operators.         |
|     Therefore, try LREAL= Auto in the INCAR file.                           |
|     Mind: For very accurate calculation, you might also keep the            |
|     reciprocal projection scheme (i.e. LREAL=.FALSE.).                      |
|                                                                             |
 -----------------------------------------------------------------------------

 -----------------------------------------------------------------------------
|                                                                             |
|               ----> ADVICE to this user running VASP <----                  |
|                                                                             |
|     You enforced a specific xc type in the INCAR file but a different       |
|     type was found in the POTCAR file.                                      |
|     I HOPE YOU KNOW WHAT YOU ARE DOING!                                     |
|                                                                             |
 -----------------------------------------------------------------------------

  PAW_PBE H 15Jun2001                   :
 energy of atom  1       EATOM=  -12.4884
 kinetic energy error for atom=    0.0000 (will be added to EATOM!!)
  PAW_PBE Si 05Jan2001                  :
 energy of atom  2       EATOM= -103.0669
 kinetic energy error for atom=    0.0001 (will be added to EATOM!!)


 POSCAR:  H Si
  positions in cartesian coordinates
  No initial velocities read in


 exchange-correlation table for SCAN
   RHO(1)=    0.500       N(1)  =     2000
   RHO(2)=  100.500       N(2)  =     4000



--------------------------------------------------------------------------------------------------------


 ion  position               nearest neighbor table
   1  0.080  0.232  0.600-  10 0.77
   2  0.709  0.383  0.524- 140 1.58
   3  0.364  0.234  0.640-  15 0.79
   4  0.993  0.388  0.529-  93 1.50
   5  0.387  0.212  0.378-  74 1.44
   6  0.054  0.098  0.420-  25 0.83
   7  0.774  0.160  0.430- 127 1.35
   8  0.955  0.279  0.627-  19 0.74
   9  0.894  0.115  0.601- 146 1.48
  10  0.065  0.263  0.579-   1 0.77
  11  0.308  0.318  0.397- 100 1.50
  12  0.286  0.420  0.511-  16 0.81
  13  0.325  0.251  0.547-  75 1.50
  14  0.052  0.174  0.385-  30 0.86
  15  0.331  0.205  0.623-   3 0.79
  16  0.309  0.393  0.533-  12 0.81
  17  0.197  0.151  0.574-  75 1.50
  18  0.316  0.172  0.456-  54 0.78
  19  0.972  0.243  0.643-   8 0.74
  20  0.801  0.345  0.447- 142 1.41
  21  0.778  0.900  0.541- 137 1.42
  22  0.363  0.278  0.477-  85 1.52
  23  0.603  0.210  0.447-  76 1.45
  24  0.600  0.497  0.504-  59 0.75
  25  0.074  0.064  0.441-   6 0.83
  26  0.710  0.305  0.417-  52 0.75
  27  0.521  0.340  0.451-  85 1.40
  28  0.389  0.088  0.502-  77 1.62  64 1.65
  29  0.606  0.323  0.539- 111 1.54
  30  0.037  0.227  0.394-  14 0.86
  31  0.225  0.184  0.481- 128 1.46
  32  0.983  0.062  0.500-  96 1.54
  33  0.393  0.072  0.635-
  34  0.816  0.195  0.552- 114 1.52
  35  0.949  0.980  0.436-  87 1.39
  36  0.397  0.623  0.606-  66 1.50
  37  0.743  0.077  0.530-  46 0.76
  38  0.723  0.221  0.504- 111 1.60
  39  0.660  0.055  0.473-  95 1.41
  40  0.770  0.011  0.474-  43 0.76
  41  0.472  0.242  0.576- 123 1.50
  42  0.066  0.226  0.472- 128 1.54
  43  0.821  0.002  0.470-  40 0.76
  44  0.974  0.215  0.543- 114 1.48
  45  0.429  0.147  0.570-  64 1.51
  46  0.769  0.057  0.550-  37 0.76
  47  0.540  0.152  0.623-  62 1.51
  48  0.193  0.092  0.407-  72 1.52
  49  0.541  0.180  0.511- 111 1.55
  50  0.462  0.388  0.519-  85 1.62 123 1.84
  51  0.511  0.399  0.390-
  52  0.694  0.299  0.393-  26 0.75
  53  0.079  0.094  0.573-  56 0.78
  54  0.310  0.167  0.429-  18 0.78
  55  0.208  0.084  0.477-  68 1.47
  56  0.029  0.109  0.579-  53 0.78
  57  0.180  0.229  0.405- 128 1.50
  58  0.173  0.298  0.537-  75 1.43
  59  0.553  0.493  0.514-  24 0.75
  60  0.665  0.413  0.453- 107 1.45
  61  0.223  0.332  0.460- 128 1.51 132 1.70
  62  0.636  0.141  0.605-  47 1.51 103 2.34 111 2.36
  63  0.749  0.356  0.650- 116 2.24 101 2.33
  64  0.383  0.056  0.558-  45 1.51  28 1.65 144 2.22 139 2.37  77 2.95
  65  0.798  0.687  0.511-  78 2.14  83 2.29 135 2.32 117 2.35
  66  0.322  0.561  0.589-  36 1.50 134 2.27 124 2.35 125 2.37
  67  0.745  0.625  0.648- 119 2.28 131 2.35
  68  0.178  0.005  0.506-  55 1.47 144 2.20  96 2.32  89 2.41
  69  0.114  0.474  0.605-  88 2.26  93 2.28 136 2.33 124 2.41
  70  0.264  0.849  0.596-  94 2.26 126 2.27 144 2.42 133 3.01  71 3.13
  71  0.059  0.823  0.625- 126 2.32 118 2.35  70 3.13
  72  0.248  0.016  0.383-  48 1.52 109 2.18 108 2.30
  73  0.446  0.848  0.391-  91 2.32 109 2.35 115 2.46
  74  0.471  0.222  0.353-   5 1.44  76 2.38
  75  0.231  0.247  0.568-  58 1.43  17 1.50  13 1.50 136 2.28
  76  0.558  0.150  0.413-  23 1.45  77 2.38  74 2.38  97 2.40
  77  0.464  0.060  0.463-  28 1.62  95 2.29 109 2.32  76 2.38  64 2.95
  78  0.883  0.720  0.570-  65 2.14 137 2.19 119 2.28  79 2.31
  79  0.019  0.725  0.529-  78 2.31 130 2.36 129 2.46 126 2.47  80 2.77
  80  0.182  0.655  0.494- 113 2.20 130 2.28 125 2.39 126 2.71  79 2.77
  81  0.523  0.718  0.648-  84 2.25 133 2.46
  82  0.893  0.658  0.388-  99 2.36 141 2.39 135 2.41
  83  0.809  0.544  0.479-  65 2.29 140 2.30 141 2.36 107 2.37
  84  0.543  0.650  0.578-  81 2.25 145 2.26 117 2.36 131 2.38 110 3.13
  85  0.433  0.353  0.468-  27 1.40  22 1.52  50 1.62 120 2.35
  86  0.766  0.955  0.372- 104 2.22  87 2.37  97 2.44
  87  0.900  0.025  0.401-  35 1.39 127 2.36  86 2.37
  88  0.970  0.474  0.635-  69 2.26 101 2.35 119 2.36
  89  0.281  0.886  0.482- 113 2.24 109 2.26  94 2.26  68 2.41
  90  0.154  0.611  0.350- 143 2.40  99 2.46
  91  0.350  0.724  0.403-  73 2.32 113 2.35 102 2.37
  92  0.670  0.702  0.360-  98 2.29 104 2.30
  93  0.084  0.435  0.529-   4 1.50 132 2.24  69 2.28 130 2.37
  94  0.366  0.819  0.539- 139 2.19  70 2.26  89 2.26 145 2.41
  95  0.596  0.988  0.487-  39 1.41 138 2.29  77 2.29 115 2.38 139 3.11
  96  0.024  0.972  0.519-  32 1.54 129 2.30  68 2.32 118 2.37
  97  0.641  0.062  0.356-  76 2.40  86 2.44
  98  0.589  0.615  0.412-  92 2.29 102 2.30 107 2.38 110 2.38
  99  0.028  0.723  0.356- 121 2.26  82 2.36  90 2.46
 100  0.258  0.369  0.359-  11 1.50 143 2.43
 101  0.859  0.389  0.594- 140 2.25  63 2.33  88 2.35 114 2.47
 102  0.435  0.586  0.403- 120 2.25  98 2.30  91 2.37
 103  0.651  0.982  0.615- 106 2.26 138 2.31  62 2.34
 104  0.725  0.822  0.403-  86 2.22 115 2.29  92 2.30 135 2.33
 105  0.760  0.455  0.357- 107 2.29
 106  0.753  0.884  0.647- 103 2.26 137 2.32
 107  0.694  0.494  0.427-  60 1.45 105 2.29  83 2.37  98 2.38
 108  0.125  0.929  0.360- 121 2.26  72 2.30
 109  0.359  0.965  0.427-  72 2.18  89 2.26  77 2.32  73 2.35
 110  0.570  0.719  0.475- 145 2.29 115 2.30 117 2.33  98 2.38  84 3.13
 111  0.629  0.221  0.533-  29 1.54  49 1.55  38 1.60  62 2.36 123 3.07
 112  0.000  0.393  0.416- 141 2.31 132 2.32 142 2.41
 113  0.218  0.766  0.445-  80 2.20  89 2.24 121 2.29  91 2.35
 114  0.887  0.265  0.537-  44 1.48  34 1.52 142 2.32 101 2.47
 115  0.588  0.857  0.437- 104 2.29 110 2.30  95 2.38  73 2.46
 116  0.615  0.407  0.623-  63 2.24 131 2.40 123 2.45
 117  0.658  0.739  0.542- 138 2.32 110 2.33  65 2.35  84 2.36 131 3.09
 118  0.962  0.936  0.593- 137 2.24  71 2.35  96 2.37 146 2.39
 119  0.897  0.618  0.630-  67 2.28  78 2.28  88 2.36
 120  0.352  0.486  0.446- 125 2.25 102 2.25  85 2.35 143 2.40
 121  0.085  0.818  0.412- 108 2.26  99 2.26 129 2.28 113 2.29
 122  0.175  0.032  0.644- 144 2.21
 123  0.484  0.345  0.579-  41 1.50  50 1.84 116 2.45 134 2.59 111 3.07
 124  0.188  0.616  0.625- 126 2.32  66 2.35  69 2.41
 125  0.327  0.582  0.506- 120 2.25 145 2.26  66 2.37  80 2.39
 126  0.158  0.741  0.577-  70 2.27 124 2.32  71 2.32  79 2.47  80 2.71
 127  0.862  0.179  0.419-   7 1.35 142 2.21  87 2.36
 128  0.164  0.247  0.456-  31 1.46  57 1.50  61 1.51  42 1.54 132 2.40
 129  0.988  0.848  0.472- 121 2.28  96 2.30 135 2.43  79 2.46
 130  0.046  0.579  0.496-  80 2.28 141 2.28  79 2.36  93 2.37 132 3.02
 131  0.667  0.547  0.588- 140 2.24  67 2.35  84 2.38 116 2.40 117 3.09
 132  0.136  0.409  0.457-  61 1.70  93 2.24 143 2.26 112 2.32 128 2.40 130 3.02
 133  0.446  0.867  0.645- 139 2.42  81 2.46  70 3.01
 134  0.346  0.421  0.620-  66 2.27 136 2.32 123 2.59
 135  0.850  0.770  0.447-  65 2.32 104 2.33  82 2.41 129 2.43
 136  0.205  0.349  0.627-  75 2.28 134 2.32  69 2.33
 137  0.832  0.861  0.577-  21 1.42  78 2.19 118 2.24 106 2.32
 138  0.623  0.894  0.549-  95 2.29 103 2.31 117 2.32 139 2.36
 139  0.466  0.918  0.565-  94 2.19 138 2.36  64 2.37 133 2.42  95 3.11
 140  0.766  0.466  0.544-   2 1.58 131 2.24 101 2.25  83 2.30
 141  0.949  0.537  0.437- 130 2.28 112 2.31  83 2.36  82 2.39
 142  0.887  0.307  0.459-  20 1.41 127 2.21 114 2.32 112 2.41
 143  0.210  0.501  0.405- 132 2.26 120 2.40  90 2.40 100 2.43
 144  0.243  0.008  0.575-  68 2.20 122 2.21  64 2.22  70 2.42
 145  0.444  0.680  0.519- 125 2.26  84 2.26 110 2.29  94 2.41
 146  0.930  0.065  0.642-   9 1.48 118 2.39

  LATTYP: Found a simple tetragonal cell.
 ALAT       =    14.5917708481
 C/A-ratio  =     1.9579803094
  
  Lattice vectors:
  
 A1 = (  14.5917708481,   0.0000000000,   0.0000000000)
 A2 = (   0.0000000000,  14.5917708481,   0.0000000000)
 A3 = (   0.0000000000,   0.0000000000,  28.5704000000)


Analysis of symmetry for initial positions (statically):
=====================================================================
 Subroutine PRICEL returns:
 Original cell was already a primitive cell.
 

 Routine SETGRP: Setting up the symmetry group for a 
 simple tetragonal supercell.


 Subroutine GETGRP returns: Found  1 space group operations
 (whereof  1 operations were pure point group operations)
 out of a pool of 16 trial point group operations.


The static configuration has the point symmetry C_1 .


Analysis of symmetry for dynamics (positions and initial velocities):
=====================================================================
 Subroutine PRICEL returns:
 Original cell was already a primitive cell.
 

 Routine SETGRP: Setting up the symmetry group for a 
 simple tetragonal supercell.


 Subroutine GETGRP returns: Found  1 space group operations
 (whereof  1 operations were pure point group operations)
 out of a pool of 16 trial point group operations.


The dynamic configuration has the point symmetry C_1 .


 Subroutine INISYM returns: Found  1 space group operations
 (whereof  1 operations are pure point group operations),
 and found     1 'primitive' translations


----------------------------------------------------------------------------------------

                                     Primitive cell                                     

  volume of cell :    6083.2032

  direct lattice vectors                    reciprocal lattice vectors
    14.591770848  0.000000000  0.000000000     0.068531778  0.000000000  0.000000000
     0.000000000 14.591770848  0.000000000     0.000000000  0.068531778  0.000000000
     0.000000000  0.000000000 28.570400000     0.000000000  0.000000000  0.035001260

  length of vectors
    14.591770848 14.591770848 28.570400000     0.068531778  0.068531778  0.035001260

  position of ions in fractional coordinates (direct lattice)
     0.079578415  0.232091775  0.599615686
     0.708865299  0.382755463  0.523902710
     0.363705684  0.234003127  0.639951138
     0.993004903  0.388309963  0.528593929
     0.386581592  0.212316931  0.377817741
     0.053930671  0.097533741  0.419856915
     0.774039019  0.159709197  0.430342592
     0.955065711  0.279124449  0.627228180
     0.894469913  0.115243038  0.600743077
     0.065031038  0.263000978  0.579226402
     0.308425211  0.317845589  0.397002492
     0.285626059  0.419586496  0.510948744
     0.325004419  0.251025735  0.547253101
     0.051851829  0.173640336  0.384502492
     0.331349776  0.205378774  0.623255187
     0.309205788  0.393210671  0.532855333
     0.196627265  0.150741814  0.573865259
     0.316493457  0.171593978  0.455850811
     0.971595576  0.242936929  0.643264708
     0.800697881  0.345119866  0.447131997
     0.778233164  0.900123785  0.541137681
     0.362955947  0.277640736  0.476992972
     0.602762344  0.210448069  0.446524725
     0.599790806  0.496856761  0.504213802
     0.074113006  0.063532727  0.440843670
     0.710427823  0.305237113  0.417496080
     0.521354130  0.339940920  0.450752527
     0.388545712  0.087622675  0.502436438
     0.605890820  0.322975193  0.539155910
     0.036671766  0.227300033  0.394309845
     0.224508049  0.184251797  0.480848011
     0.983300804  0.061769953  0.500443816
     0.393107188  0.072310620  0.635130415
     0.815959908  0.195018825  0.551728712
     0.948534633  0.980333378  0.436230504
     0.396821610  0.622801721  0.605794459
     0.742569227  0.077333314  0.529532313
     0.722975992  0.221339825  0.504347857
     0.660205680  0.054845091  0.473136183
     0.769961379  0.010742699  0.473544998
     0.472044145  0.242471598  0.576376600
     0.065768988  0.225786166  0.471852337
     0.821161470  0.001759738  0.470362333
     0.974398526  0.214919082  0.542583233
     0.428604593  0.146748467  0.569720760
     0.769447390  0.057280505  0.550007700
     0.540385405  0.151819818  0.623408843
     0.193467950  0.091609169  0.406632739
     0.540938456  0.179589580  0.511263755
     0.462037821  0.388007738  0.519463501
     0.510989384  0.399351803  0.389604626
     0.693815720  0.299076791  0.393034749
     0.079072651  0.094115376  0.573461695
     0.310076827  0.166558263  0.428837538
     0.207858939  0.083597804  0.477342634
     0.028765323  0.109085458  0.578909991
     0.180352339  0.228900936  0.405028981
     0.173222978  0.298065947  0.536887828
     0.552561446  0.492795568  0.514142609
     0.664991940  0.413012242  0.452642245
     0.223409484  0.331850058  0.459828004
     0.636408020  0.141021266  0.604876726
     0.748956389  0.356332350  0.649987400
     0.383124163  0.056424543  0.557863033
     0.797963463  0.687428558  0.510628833
     0.322074685  0.561257443  0.588519587
     0.745310498  0.625305187  0.647667866
     0.177572005  0.005433892  0.505822460
     0.113855955  0.473784853  0.605177386
     0.263720561  0.848642713  0.596175062
     0.058503797  0.823128332  0.625101504
     0.248287205  0.016480316  0.382851483
     0.445813607  0.848416558  0.391167432
     0.471266310  0.221764036  0.352510080
     0.230504579  0.247142039  0.568151653
     0.557937079  0.150374483  0.413119522
     0.463834038  0.060235732  0.463166074
     0.882538530  0.719960594  0.569568854
     0.019290051  0.725237540  0.528682483
     0.181884024  0.655248777  0.494020035
     0.522833046  0.717842962  0.648185885
     0.893270607  0.658462232  0.388483535
     0.809415123  0.544303367  0.478530577
     0.542757975  0.650350811  0.577995408
     0.432652765  0.353025007  0.467803391
     0.766041361  0.954620254  0.371739878
     0.900384205  0.025484021  0.401324448
     0.970368857  0.473653957  0.634934408
     0.280521812  0.885560782  0.481638689
     0.154349326  0.611428873  0.350012600
     0.350371456  0.723757254  0.403454274
     0.670320285  0.701648902  0.359650897
     0.084330409  0.435386497  0.529460561
     0.365652672  0.819407057  0.538541637
     0.595826243  0.988214532  0.486582267
     0.024334401  0.971821731  0.519032635
     0.640876978  0.061779616  0.356336943
     0.588877120  0.614898637  0.411756223
     0.027944038  0.722742984  0.356226864
     0.258391530  0.369059387  0.359407849
     0.859463881  0.389378374  0.593818427
     0.435144580  0.585501245  0.402888654
     0.651151262  0.982307093  0.614768082
     0.725306072  0.822189447  0.403493826
     0.759784410  0.454642556  0.356533335
     0.752944938  0.883737837  0.646936690
     0.693767748  0.493652900  0.426564556
     0.125247992  0.928591885  0.360383964
     0.358602123  0.964571069  0.426729062
     0.570148071  0.719378073  0.475071403
     0.629191624  0.220620241  0.533156344
     0.000022557  0.392632262  0.415804819
     0.217550703  0.765589051  0.444906967
     0.886938271  0.265142596  0.536896928
     0.587682612  0.857270864  0.437240641
     0.614631363  0.406915656  0.622601364
     0.658472512  0.739039840  0.542111766
     0.962247841  0.936144087  0.593484515
     0.897039855  0.617739964  0.629605116
     0.352487032  0.486268601  0.446200613
     0.084845768  0.817762294  0.411695321
     0.175429016  0.031787095  0.643550668
     0.484434006  0.344585318  0.578817587
     0.188243088  0.615670990  0.625029051
     0.326616286  0.582291217  0.506403831
     0.157858839  0.740828520  0.577428387
     0.861615779  0.178524596  0.419097738
     0.164051370  0.247403145  0.455927813
     0.988152853  0.848450824  0.472274802
     0.045606733  0.579021566  0.495814549
     0.667313796  0.547118652  0.588008218
     0.136200741  0.409373890  0.456951600
     0.445790307  0.867454686  0.645015121
     0.346133451  0.420922180  0.620353233
     0.850143559  0.770427395  0.446620978
     0.204535833  0.349224920  0.627003822
     0.832277324  0.860861929  0.577414037
     0.622896980  0.893626972  0.549151919
     0.466196329  0.917996872  0.565193347
     0.766027655  0.465573375  0.544465601
     0.948897851  0.537062299  0.436782474
     0.886677850  0.306624196  0.458606810
     0.209851843  0.500508134  0.405237589
     0.242594270  0.007871697  0.575119354
     0.444252453  0.679602229  0.518692423
     0.929592449  0.065401041  0.642355725

  ion indices of the primitive-cell ions
   primitive index   ion index
                 1           1
                 2           2
                 3           3
                 4           4
                 5           5
                 6           6
                 7           7
                 8           8
                 9           9
                10          10
                11          11
                12          12
                13          13
                14          14
                15          15
                16          16
                17          17
                18          18
                19          19
                20          20
                21          21
                22          22
                23          23
                24          24
                25          25
                26          26
                27          27
                28          28
                29          29
                30          30
                31          31
                32          32
                33          33
                34          34
                35          35
                36          36
                37          37
                38          38
                39          39
                40          40
                41          41
                42          42
                43          43
                44          44
                45          45
                46          46
                47          47
                48          48
                49          49
                50          50
                51          51
                52          52
                53          53
                54          54
                55          55
                56          56
                57          57
                58          58
                59          59
                60          60
                61          61
                62          62
                63          63
                64          64
                65          65
                66          66
                67          67
                68          68
                69          69
                70          70
                71          71
                72          72
                73          73
                74          74
                75          75
                76          76
                77          77
                78          78
                79          79
                80          80
                81          81
                82          82
                83          83
                84          84
                85          85
                86          86
                87          87
                88          88
                89          89
                90          90
                91          91
                92          92
                93          93
                94          94
                95          95
                96          96
                97          97
                98          98
                99          99
               100         100
               101         101
               102         102
               103         103
               104         104
               105         105
               106         106
               107         107
               108         108
               109         109
               110         110
               111         111
               112         112
               113         113
               114         114
               115         115
               116         116
               117         117
               118         118
               119         119
               120         120
               121         121
               122         122
               123         123
               124         124
               125         125
               126         126
               127         127
               128         128
               129         129
               130         130
               131         131
               132         132
               133         133
               134         134
               135         135
               136         136
               137         137
               138         138
               139         139
               140         140
               141         141
               142         142
               143         143
               144         144
               145         145
               146         146

----------------------------------------------------------------------------------------


 -----------------------------------------------------------------------------
|                                                                             |
|           W    W    AA    RRRRR   N    N  II  N    N   GGGG   !!!           |
|           W    W   A  A   R    R  NN   N  II  NN   N  G    G  !!!           |
|           W    W  A    A  R    R  N N  N  II  N N  N  G       !!!           |
|           W WW W  AAAAAA  RRRRR   N  N N  II  N  N N  G  GGG   !            |
|           WW  WW  A    A  R   R   N   NN  II  N   NN  G    G                |
|           W    W  A    A  R    R  N    N  II  N    N   GGGG   !!!           |
|                                                                             |
|     The requested file  could not be found or opened for reading            |
|     k-point information. Automatic k-point generation is used as a          |
|     fallback, which may lead to unwanted results.                           |
|                                                                             |
 -----------------------------------------------------------------------------



Automatic generation of k-mesh.
 Grid dimensions derived from KSPACING:
 generate k-points for:    2    2    1

 Generating k-lattice:

  Cartesian coordinates                     Fractional coordinates (reciprocal lattice)
     0.034265889  0.000000000  0.000000000     0.500000000  0.000000000  0.000000000
     0.000000000  0.034265889  0.000000000     0.000000000  0.500000000  0.000000000
     0.000000000  0.000000000  0.035001260     0.000000000  0.000000000  1.000000000

  Length of vectors
     0.034265889  0.034265889  0.035001260

  Shift w.r.t. Gamma in fractional coordinates (k-lattice)
     0.000000000  0.000000000  0.000000000

 
 Subroutine IBZKPT returns following result:
 ===========================================
 
 Found      4 irreducible k-points:
 
 Following reciprocal coordinates:
            Coordinates               Weight
  0.000000  0.000000  0.000000      1.000000
  0.500000  0.000000  0.000000      1.000000
  0.000000  0.500000  0.000000      1.000000
  0.500000  0.500000  0.000000      1.000000
 
 Following cartesian coordinates:
            Coordinates               Weight
  0.000000  0.000000  0.000000      1.000000
  0.034266  0.000000  0.000000      1.000000
  0.000000  0.034266  0.000000      1.000000
  0.034266  0.034266  0.000000      1.000000
 


--------------------------------------------------------------------------------------------------------




 Dimension of arrays:
   k-points           NKPTS =      4   k-points in BZ     NKDIM =      4   number of bands    NBANDS=    280
   number of dos      NEDOS =   2000   number of ions     NIONS =    146
   non local maximal  LDIM  =      4   non local SUM 2l+1 LMDIM =      8
   total plane-waves  NPLWV = ******
   max r-space proj   IRMAX =      1   max aug-charges    IRDMAX= 402241
   dimension x,y,z NGX =   168 NGY =  168 NGZ =  324
   dimension x,y,z NGXF=   336 NGYF=  336 NGZF=  648
   support grid    NGXF=   672 NGYF=  672 NGZF= 1296
   ions per type =              61  85
   NGX,Y,Z   is equivalent  to a cutoff of  19.14, 19.14, 18.85 a.u.
   NGXF,Y,Z  is equivalent  to a cutoff of  38.28, 38.28, 37.71 a.u.

 SYSTEM =  a-Si SPC                                
 POSCAR =   H Si                                   

 Startparameter for this run:
   NWRITE =      2    write-flag & timer
   PREC   = accura    normal or accurate (medium, high low for compatibility)
   ISTART =      1    job   : 0-new  1-cont  2-samecut
   ICHARG =      1    charge: 1-file 2-atom 10-const
   ISPIN  =      1    spin polarized calculation?
   LNONCOLLINEAR =      F non collinear calculations
   LSORBIT =      F    spin-orbit coupling
   INIWAV =      1    electr: 0-lowe 1-rand  2-diag
   LASPH  =      T    aspherical Exc in radial PAW
 Electronic Relaxation 1
   ENCUT  = 1200.0 eV  88.20 Ry    9.39 a.u.  41.21 41.21 80.70*2*pi/ulx,y,z
   ENINI  = 1200.0     initial cutoff
   ENAUG  =  400.0 eV  augmentation charge cutoff
   NELM   =    150;   NELMIN=  2; NELMDL=  0     # of ELM steps 
   EDIFF  = 0.1E-05   stopping-criterion for ELM
   LREAL  =      F    real-space projection
   NLSPLINE    = F    spline interpolate recip. space projectors
   LCOMPAT=      F    compatible to vasp.4.4
   GGA_COMPAT  = T    GGA compatible to vasp.4.4-vasp.4.6
   LMAXPAW     = -100 max onsite density
   LMAXMIX     =    2 max onsite mixed and CHGCAR
   VOSKOWN=      0    Vosko Wilk Nusair interpolation
   ROPT   =    0.00000   0.00000
 Ionic relaxation
   EDIFFG = -.1E-01   stopping-criterion for IOM
   NSW    =      0    number of steps for IOM
   NBLOCK =      1;   KBLOCK =      1    inner block; outer block 
   IBRION =     -1    ionic relax: 0-MD 1-quasi-New 2-CG
   NFREE  =      0    steps in history (QN), initial steepest desc. (CG)
   ISIF   =      2    stress and relaxation
   IWAVPR =     10    prediction:  0-non 1-charg 2-wave 3-comb
   ISYM   =      1    0-nonsym 1-usesym 2-fastsym
   LCORR  =      T    Harris-Foulkes like correction to forces

   POTIM  = 0.5000    time-step for ionic-motion
   TEIN   =    0.0    initial temperature
   TEBEG  =    0.0;   TEEND  =   0.0 temperature during run
   SMASS  =  -3.00    Nose mass-parameter (am)
   estimated Nose-frequenzy (Omega)   =  0.10E-29 period in steps = 0.13E+47 mass=  -0.487E-26a.u.
   SCALEE = 1.0000    scale energy and forces
   NPACO  =    256;   APACO  = 10.0  distance and # of slots for P.C.
   PSTRESS=    0.0 pullay stress

  Mass of Ions in am
   POMASS =   1.00 28.09
  Ionic Valenz
   ZVAL   =   1.00  4.00
  Atomic Wigner-Seitz radii
   RWIGS  =  -1.00 -1.00
  virtual crystal weights 
   VCA    =   1.00  1.00
   NELECT =     401.0000    total number of electrons
   NUPDOWN=      -1.0000    fix difference up-down

 DOS related values:
   EMIN   =  10.00;   EMAX   =-10.00  energy-range for DOS
   EFERMI =   0.00;   METHOD = LEGACY      
   ISMEAR =     0;   SIGMA  =   0.10  broadening in eV -4-tet -1-fermi 0-gaus
   EFERMI_NEDOS =   21; number of points for ismear=-14 and -15

 Electronic relaxation 2 (details)
   IALGO  =     38    algorithm
   LDIAG  =      F    sub-space diagonalisation (order eigenvalues)
   LSUBROT=      F    optimize rotation matrix (better conditioning)
   TURBO    =      0    0=normal 1=particle mesh
   IRESTART =      0    0=no restart 2=restart with 2 vectors
   NREBOOT  =      0    no. of reboots
   NMIN     =      0    reboot dimension
   EREF     =   0.00    reference energy to select bands
   IMIX   =      4    mixing-type and parameters
     AMIX     =   0.40;   BMIX     =  1.00
     AMIX_MAG =   1.60;   BMIX_MAG =  1.00
     AMIN     =   0.10
     WC   =   100.;   INIMIX=   1;  MIXPRE=   1;  MAXMIX= -45

 Intra band minimization:
   WEIMIN = 0.0000     energy-eigenvalue tresh-hold
   EBREAK =  0.89E-09  absolut break condition
   DEPER  =   0.30     relativ break condition  

   TIME   =   0.40     timestep for ELM

  volume/ion in A,a.u.               =      41.67       281.17
  Fermi-wavevector in a.u.,A,eV,Ry     =   0.661321  1.249715  5.950443  0.437345
  Thomas-Fermi vector in A             =   1.734043

 Write flags
   LWAVE        =      F    write WAVECAR
   LDOWNSAMPLE  =      F    k-point downsampling of WAVECAR
   LCHARG       =      F    write CHGCAR
   LVTOT        =      F    write LOCPOT, total local potential
   LVHAR        =      F    write LOCPOT, Hartree potential only
   WRT_POTENTIAL= false  ! write potential to hdf5 file
   LELF         =      F    write electronic localiz. function (ELF)
   LORBIT       =     11    0 simple, 1 ext, 2 COOP (PROOUT), +10 PAW based schemes


 Python interface
   PLUGINS active      =      F    recompile with -DPLUGINS to activate

 Dipole corrections
   LMONO      =      F    monopole corrections only (constant potential shift)
   LDIPOL     =      F    correct potential (dipole corrections)
   IDIPOL     =      0    1-x, 2-y, 3-z, 4-all directions 
   EPSILON    =  1.0000000 bulk dielectric constant
   LVACPOTAV  =      F  vacuum potentials using an averaging scheme for the charge density
   VACPOTFLAT =  0.1000000 required flatness to determine vacuum potential

Coulomb truncation method
  LTRUNCATE          =      F  Coulomb kernel truncation to be used
  IDIMENSIONALITY    =      3  Dimensionality of cutoff (0 molecules / 2 surfaces)
  ISURFACE           =     -1  Direction of surface normal
  LCOARSEN           =      F  Coarsen the charge grid before padding, preferred


 Exchange correlation treatment:
   METAGGA = SCAN    functional components
   XC_C    = 1    coefficients multiplying the functional components
   LIBXC   =     F    Libxc                    
   VOSKOWN =     0    Vosko Wilk Nusair interpolation
   LHFCALC =     F    Hartree Fock is set to
   LHFONE  =     F    Hartree Fock one center treatment
   AEXX    =    0.0000 exact exchange contribution

 Parameters of functionals:
   SCAN:
     P1 =  0.000000E+00
     P2 =  0.000000E+00
     P3 =  0.000000E+00

 Accuracy and mixing parameters for tau-dependent meta-GGA functionals:
   LMAXTAU = 6
   LMIXTAU = T

 Van der Waals corrections
   IVDW    =     0    specifies the selected vdW correction

 Linear response parameters
   LEPSILON=     F    determine dielectric tensor
   LRPA    =     F    only Hartree local field effects (RPA)
   LNABLA  =     F    use nabla operator in PAW spheres
   LVEL    =     F    velocity operator in full k-point grid
   CSHIFT  =0.1000    complex shift for real part using Kramers Kronig
   OMEGAMAX=  -1.0    maximum frequency
   DEG_THRESHOLD= 0.2000000E-02 threshold for treating states as degnerate
   RTIME   =   -0.100 relaxation time in fs
  (WPLASMAI=    0.000 imaginary part of plasma frequency in eV, 0.658/RTIME)
   DFIELD  = 0.0000000 0.0000000 0.0000000 field for delta impulse in time

  Optional k-point grid parameters
   LKPOINTS_OPT  =     F    use optional k-point grid
   KPOINTS_OPT_MODE=     1    mode for optional k-point grid

 Orbital magnetization related:
   ORBITALMAG=     F  switch on orbital magnetization
   LCHIMAG   =     F  perturbation theory with respect to B field
   DQ        =  0.001000  dq finite difference perturbation B field
   LLRAUG    =     F  two centre corrections for induced B field
   LBONE     =     F  B-component reconstruction in AE one-centre
   LVGVCALC  =     T  calculate vGv susceptibility
   LVGVAPPL  =     F  apply vGv susceptibility instead of pGv for G=0

 Random number generation:
   RANDOM_GENERATOR = DEFAULT
   PCG_SEED         = not used


--------------------------------------------------------------------------------------------------------


 Static calculation
 charge density and potential will be updated during run
 non-spin polarized calculation
 Variant of blocked Davidson
 perform Loewdin sub-space diagonalisation
    ordering is kept fixed
    before iterative eigenvector-optimisation
 modified Broyden-mixing scheme, WC =      100.0
 initial mixing is a Kerker type mixing with AMIX =  0.4000 and BMIX =      1.0000
 Hartree-type preconditioning will be used
 using additional bands           79
 reciprocal scheme for non local part
 use partial core corrections
 calculate Harris-corrections to forces   (improved forces if not selfconsistent)
 use gradient corrections 
 use of overlap-Matrix (Vanderbilt PP)
 Gauss-broadening in eV      SIGMA  =   0.10


--------------------------------------------------------------------------------------------------------


  energy-cutoff  :     1200.00
  volume of cell :     6083.20
      direct lattice vectors                 reciprocal lattice vectors
    14.591770848  0.000000000  0.000000000     0.068531778  0.000000000  0.000000000
     0.000000000 14.591770848  0.000000000     0.000000000  0.068531778  0.000000000
     0.000000000  0.000000000 28.570400000     0.000000000  0.000000000  0.035001260

  length of vectors
    14.591770848 14.591770848 28.570400000     0.068531778  0.068531778  0.035001260



 old parameters found on file WAVECAR:
  energy-cutoff  :     1200.00
  volume of cell :     6083.20
      direct lattice vectors                 reciprocal lattice vectors
    14.591770848  0.000000000  0.000000000     0.068531778  0.000000000  0.000000000
     0.000000000 14.591770848  0.000000000     0.000000000  0.068531778  0.000000000
     0.000000000  0.000000000 28.570400000     0.000000000  0.000000000  0.035001260

  length of vectors


 k-points in units of 2pi/SCALE and weight: read from INCAR                         
   0.00000000  0.00000000  0.00000000       0.250
   0.03426589  0.00000000  0.00000000       0.250
   0.00000000  0.03426589  0.00000000       0.250
   0.03426589  0.03426589  0.00000000       0.250

 k-points in reciprocal lattice and weights: read from INCAR                         
   0.00000000  0.00000000  0.00000000       0.250
   0.50000000  0.00000000  0.00000000       0.250
   0.00000000  0.50000000  0.00000000       0.250
   0.50000000  0.50000000  0.00000000       0.250

 position of ions in fractional coordinates (direct lattice) 
   0.07957842  0.23209178  0.59961569
   0.70886530  0.38275546  0.52390271
   0.36370568  0.23400313  0.63995114
   0.99300490  0.38830996  0.52859393
   0.38658159  0.21231693  0.37781774
   0.05393067  0.09753374  0.41985691
   0.77403902  0.15970920  0.43034259
   0.95506571  0.27912445  0.62722818
   0.89446991  0.11524304  0.60074308
   0.06503104  0.26300098  0.57922640
   0.30842521  0.31784559  0.39700249
   0.28562606  0.41958650  0.51094874
   0.32500442  0.25102573  0.54725310
   0.05185183  0.17364034  0.38450249
   0.33134978  0.20537877  0.62325519
   0.30920579  0.39321067  0.53285533
   0.19662727  0.15074181  0.57386526
   0.31649346  0.17159398  0.45585081
   0.97159558  0.24293693  0.64326471
   0.80069788  0.34511987  0.44713200
   0.77823316  0.90012378  0.54113768
   0.36295595  0.27764074  0.47699297
   0.60276234  0.21044807  0.44652472
   0.59979081  0.49685676  0.50421380
   0.07411301  0.06353273  0.44084367
   0.71042782  0.30523711  0.41749608
   0.52135413  0.33994092  0.45075253
   0.38854571  0.08762268  0.50243644
   0.60589082  0.32297519  0.53915591
   0.03667177  0.22730003  0.39430985
   0.22450805  0.18425180  0.48084801
   0.98330080  0.06176995  0.50044382
   0.39310719  0.07231062  0.63513041
   0.81595991  0.19501882  0.55172871
   0.94853463  0.98033338  0.43623050
   0.39682161  0.62280172  0.60579446
   0.74256923  0.07733331  0.52953231
   0.72297599  0.22133982  0.50434786
   0.66020568  0.05484509  0.47313618
   0.76996138  0.01074270  0.47354500
   0.47204415  0.24247160  0.57637660
   0.06576899  0.22578617  0.47185234
   0.82116147  0.00175974  0.47036233
   0.97439853  0.21491908  0.54258323
   0.42860459  0.14674847  0.56972076
   0.76944739  0.05728050  0.55000770
   0.54038541  0.15181982  0.62340884
   0.19346795  0.09160917  0.40663274
   0.54093846  0.17958958  0.51126376
   0.46203782  0.38800774  0.51946350
   0.51098938  0.39935180  0.38960463
   0.69381572  0.29907679  0.39303475
   0.07907265  0.09411538  0.57346169
   0.31007683  0.16655826  0.42883754
   0.20785894  0.08359780  0.47734263
   0.02876532  0.10908546  0.57890999
   0.18035234  0.22890094  0.40502898
   0.17322298  0.29806595  0.53688783
   0.55256145  0.49279557  0.51414261
   0.66499194  0.41301224  0.45264225
   0.22340948  0.33185006  0.45982800
   0.63640802  0.14102127  0.60487673
   0.74895639  0.35633235  0.64998740
   0.38312416  0.05642454  0.55786303
   0.79796346  0.68742856  0.51062883
   0.32207469  0.56125744  0.58851959
   0.74531050  0.62530519  0.64766787
   0.17757200  0.00543389  0.50582246
   0.11385595  0.47378485  0.60517739
   0.26372056  0.84864271  0.59617506
   0.05850380  0.82312833  0.62510150
   0.24828721  0.01648032  0.38285148
   0.44581361  0.84841656  0.39116743
   0.47126631  0.22176404  0.35251008
   0.23050458  0.24714204  0.56815165
   0.55793708  0.15037448  0.41311952
   0.46383404  0.06023573  0.46316607
   0.88253853  0.71996059  0.56956885
   0.01929005  0.72523754  0.52868248
   0.18188402  0.65524878  0.49402003
   0.52283305  0.71784296  0.64818588
   0.89327061  0.65846223  0.38848354
   0.80941512  0.54430337  0.47853058
   0.54275798  0.65035081  0.57799541
   0.43265276  0.35302501  0.46780339
   0.76604136  0.95462025  0.37173988
   0.90038421  0.02548402  0.40132445
   0.97036886  0.47365396  0.63493441
   0.28052181  0.88556078  0.48163869
   0.15434933  0.61142887  0.35001260
   0.35037146  0.72375725  0.40345427
   0.67032029  0.70164890  0.35965090
   0.08433041  0.43538650  0.52946056
   0.36565267  0.81940706  0.53854164
   0.59582624  0.98821453  0.48658227
   0.02433440  0.97182173  0.51903264
   0.64087698  0.06177962  0.35633694
   0.58887712  0.61489864  0.41175622
   0.02794404  0.72274298  0.35622686
   0.25839153  0.36905939  0.35940785
   0.85946388  0.38937837  0.59381843
   0.43514458  0.58550125  0.40288865
   0.65115126  0.98230709  0.61476808
   0.72530607  0.82218945  0.40349383
   0.75978441  0.45464256  0.35653334
   0.75294494  0.88373784  0.64693669
   0.69376775  0.49365290  0.42656456
   0.12524799  0.92859189  0.36038396
   0.35860212  0.96457107  0.42672906
   0.57014807  0.71937807  0.47507140
   0.62919162  0.22062024  0.53315634
   0.00002256  0.39263226  0.41580482
   0.21755070  0.76558905  0.44490697
   0.88693827  0.26514260  0.53689693
   0.58768261  0.85727086  0.43724064
   0.61463136  0.40691566  0.62260136
   0.65847251  0.73903984  0.54211177
   0.96224784  0.93614409  0.59348452
   0.89703985  0.61773996  0.62960512
   0.35248703  0.48626860  0.44620061
   0.08484577  0.81776229  0.41169532
   0.17542902  0.03178709  0.64355067
   0.48443401  0.34458532  0.57881759
   0.18824309  0.61567099  0.62502905
   0.32661629  0.58229122  0.50640383
   0.15785884  0.74082852  0.57742839
   0.86161578  0.17852460  0.41909774
   0.16405137  0.24740315  0.45592781
   0.98815285  0.84845082  0.47227480
   0.04560673  0.57902157  0.49581455
   0.66731380  0.54711865  0.58800822
   0.13620074  0.40937389  0.45695160
   0.44579031  0.86745469  0.64501512
   0.34613345  0.42092218  0.62035323
   0.85014356  0.77042739  0.44662098
   0.20453583  0.34922492  0.62700382
   0.83227732  0.86086193  0.57741404
   0.62289698  0.89362697  0.54915192
   0.46619633  0.91799687  0.56519335
   0.76602765  0.46557337  0.54446560
   0.94889785  0.53706230  0.43678247
   0.88667785  0.30662420  0.45860681
   0.20985184  0.50050813  0.40523759
   0.24259427  0.00787170  0.57511935
   0.44425245  0.67960223  0.51869242
   0.92959245  0.06540104  0.64235572

 position of ions in cartesian coordinates  (Angst):
   1.16119000  3.38663000 17.13126000
  10.34360000  5.58508000 14.96811000
   5.30711000  3.41452000 18.28366000
  14.48970000  5.66613000 15.10214000
   5.64091000  3.09808000 10.79440400
   0.78694400  1.42319000 11.99548000
  11.29460000  2.33044000 12.29506000
  13.93610000  4.07292000 17.92016000
  13.05190000  1.68160000 17.16347000
   0.94891800  3.83765000 16.54873000
   4.50047000  4.63793000 11.34252000
   4.16779000  6.12251000 14.59801000
   4.74239000  3.66291000 15.63524000
   0.75661000  2.53372000 10.98539000
   4.83498000  2.99684000 17.80665000
   4.51186000  5.73764000 15.22389000
   2.86914000  2.19959000 16.39556000
   4.61820000  2.50386000 13.02384000
  14.17730000  3.54488000 18.37833000
  11.68360000  5.03591000 12.77474000
  11.35580000 13.13440000 15.46052000
   5.29617000  4.05127000 13.62788000
   8.79537000  3.07081000 12.75739000
   8.75201000  7.25002000 14.40559000
   1.08144000  0.92705500 12.59508000
  10.36640000  4.45395000 11.92803000
   7.60748000  4.96034000 12.87818000
   5.66957000  1.27857000 14.35481000
   8.84102000  4.71278000 15.40390000
   0.53510600  3.31671000 11.26559000
   3.27597000  2.68856000 13.73802000
  14.34810000  0.90133300 14.29788000
   5.73613000  1.05514000 18.14593000
  11.90630000  2.84567000 15.76311000
  13.84080000 14.30480000 12.46328000
   5.79033000  9.08778000 17.30779000
  10.83540000  1.12843000 15.12895000
  10.54950000  3.22974000 14.40942000
   9.63357000  0.80028700 13.51769000
  11.23510000  0.15675500 13.52937000
   6.88796000  3.53809000 16.46731000
   0.95968600  3.29462000 13.48101000
  11.98220000  0.02567770 13.43844000
  14.21820000  3.13605000 15.50182000
   6.25410000  2.14132000 16.27715000
  11.22760000  0.83582400 15.71394000
   7.88518000  2.21532000 17.81104000
   2.82304000  1.33674000 11.61766000
   7.89325000  2.62053000 14.60701000
   6.74195000  5.66172000 14.84128000
   7.45624000  5.82725000 11.13116000
  10.12400000  4.36406000 11.22916000
   1.15381000  1.37331000 16.38403000
   4.52457000  2.43038000 12.25206000
   3.03303000  1.21984000 13.63787000
   0.41973700  1.59175000 16.53969000
   2.63166000  3.34007000 11.57184000
   2.52763000  4.34931000 15.33910000
   8.06285000  7.19076000 14.68926000
   9.70341000  6.02658000 12.93217000
   3.25994000  4.84228000 13.13747000
   9.28632000  2.05775000 17.28157000
  10.92860000  5.19952000 18.57040000
   5.59046000  0.82333400 15.93837000
  11.64370000 10.03080000 14.58887000
   4.69964000  8.18974000 16.81424000
  10.87540000  9.12431000 18.50413000
   2.59109000  0.07929010 14.45155000
   1.66136000  6.91336000 17.29016000
   3.84815000 12.38320000 17.03296000
   0.85367400 12.01090000 17.85940000
   3.62295000  0.24047700 10.93822000
   6.50521000 12.37990000 11.17581000
   6.87661000  3.23593000 10.07135400
   3.36347000  3.60624000 16.23232000
   8.14129000  2.19423000 11.80299000
   6.76816000  0.87894600 13.23284000
  12.87780000 10.50550000 16.27281000
   0.28147600 10.58250000 15.10467000
   2.65401000  9.56124000 14.11435000
   7.62906000 10.47460000 18.51893000
  13.03440000  9.60813000 11.09913000
  11.81080000  7.94235000 13.67181000
   7.91980000  9.48977000 16.51356000
   6.31317000  5.15126000 13.36533000
  11.17790000 13.92960000 10.62075700
  13.13820000  0.37185700 11.46600000
  14.15940000  6.91145000 18.14033000
   4.09331000 12.92190000 13.76061000
   2.25223000  8.92183000 10.00000000
   5.11254000 10.56090000 11.52685000
   9.78116000 10.23830000 10.27537000
   1.23053000  6.35306000 15.12690000
   5.33552000 11.95660000 15.38635000
   8.69416000 14.41980000 13.90185000
   0.35508200 14.18060000 14.82897000
   9.35153000  0.90147400 10.18068900
   8.59276000  8.97246000 11.76404000
   0.40775300 10.54610000 10.17754400
   3.77039000  5.38523000 10.26842600
  12.54110000  5.68172000 16.96563000
   6.34953000  8.54350000 11.51069000
   9.50145000 14.33360000 17.56417000
  10.58350000 11.99720000 11.52798000
  11.08660000  6.63404000 10.18630000
  10.98680000 12.89530000 18.48324000
  10.12330000  7.20327000 12.18712000
   1.82759000 13.54980000 10.29631400
   5.23264000 14.07480000 12.19182000
   8.31947000 10.49700000 13.57298000
   9.18102000  3.21924000 15.23249000
   0.00032915  5.72920000 11.87971000
   3.17445000 11.17130000 12.71117000
  12.94200000  3.86890000 15.33936000
   8.57533000 12.50910000 12.49214000
   8.96856000  5.93762000 17.78797000
   9.60828000 10.78390000 15.48835000
  14.04090000 13.66000000 16.95609000
  13.08940000  9.01392000 17.98807000
   5.14341000  7.09552000 12.74813000
   1.23805000 11.93260000 11.76230000
   2.55982000  0.46383000 18.38650000
   7.06875000  5.02811000 16.53705000
   2.74680000  8.98373000 17.85733000
   4.76591000  8.49666000 14.46816000
   2.30344000 10.81000000 16.49736000
  12.57250000  2.60499000 11.97379000
   2.39380000  3.61005000 13.02604000
  14.41890000 12.38040000 13.49308000
   0.66548300  8.44895000 14.16562000
   9.73729000  7.98343000 16.79963000
   1.98741000  5.97349000 13.05529000
   6.50487000 12.65770000 18.42834000
   5.05070000  6.14200000 17.72374000
  12.40510000 11.24190000 12.76014000
   2.98454000  5.09581000 17.91375000
  12.14440000 12.56150000 16.49695000
   9.08917000 13.03960000 15.68949000
   6.80263000 13.39520000 16.14780000
  11.17770000  6.79354000 15.55560000
  13.84610000  7.83669000 12.47905000
  12.93820000  4.47419000 13.10258000
   3.06211000  7.30330000 11.57780000
   3.53988000  0.11486200 16.43139000
   6.48243000  9.91660000 14.81925000
  13.56440000  0.95431700 18.35236000



--------------------------------------------------------------------------------------------------------


 k-point     1 :   0.0000 0.0000 0.0000  plane waves:  574265
 k-point     2 :   0.5000 0.0000 0.0000  plane waves:  574222
 k-point     3 :   0.0000 0.5000 0.0000  plane waves:  574222
 k-point     4 :   0.5000 0.5000 0.0000  plane waves:  574156

 maximum and minimum number of plane-waves per node :     35976    35830

 maximum number of plane-waves:    574265
 maximum index in each direction: 
   IXMAX=   41   IYMAX=   41   IZMAX=   80
   IXMIN=  -41   IYMIN=  -41   IZMIN=  -80


 parallel 3D FFT for wavefunctions:
    minimum data exchange during FFTs selected (reduces bandwidth)
 parallel 3D FFT for charge:
    minimum data exchange during FFTs selected (reduces bandwidth)


 total amount of memory used by VASP MPI-rank0   408054. kBytes
=======================================================================

   base                                    :      30000. kBytes
   nonl-proj                               :     102209. kBytes
   fftplans                                :     110226. kBytes
   grid                                    :      85039. kBytes
   one-center                              :         30. kBytes
   wavefun                                 :      80550. kBytes

     INWAV:  cpu time     22.8247: real time     22.8391
 Broyden mixing: mesh for mixing (old mesh)
   NGX = 83   NGY = 83   NGZ =161
  (NGX  =336   NGY  =336   NGZ  =648)
  gives a total of ****** points

 initial charge density was supplied:
 number of electron     400.9999999 magnetization 
 keeping initial charge density in first step


--------------------------------------------------------------------------------------------------------


 Maximum index for augmentation-charges        11173 (set IRDMAX)


--------------------------------------------------------------------------------------------------------


 First call to EWALD:  gamma=   0.097
 Maximum number of real-space cells   3x   3x   2
 Maximum number of reciprocal cells   2x   2x   4

    FEWALD:  cpu time      0.0269: real time      0.0269


--------------------------------------- Ionic step        1  -------------------------------------------




--------------------------------------- Iteration      1(   1)  ---------------------------------------


    POTLOK:  cpu time      2.1608: real time      2.1622
    SETDIJ:  cpu time      2.2225: real time      2.2244
    EDDIAG:  cpu time     45.4872: real time     45.5167
     EDDAV:  cpu time    226.6306: real time    226.7542
       DOS:  cpu time      0.0074: real time      0.0074
    CHARGE:  cpu time     26.2595: real time     26.2824
    MIXING:  cpu time      0.0508: real time      0.0516
    --------------------------------------------
      LOOP:  cpu time    302.8187: real time    302.9991

 eigenvalue-minimisations  :  2312
 total energy-change (2. order) :-0.1043197E+04  (-0.1131179E+01)
 number of electron     400.9999999 magnetization 
 augmentation part      -18.3967518 magnetization 

 Broyden mixing:
  rms(total) = 0.11334E+01    rms(broyden)= 0.31038E+02
  rms(prec ) = 0.11783E+01
  weight for this iteration     100.00
  WARNING: grid for Broyden might be to small

 Free energy of the ion-electron system (eV)
  ---------------------------------------------------
  alpha Z        PSCENC =        56.95076034
  Ewald energy   TEWEN  =     66884.19771209
  -Hartree energ DENC   =    -75190.38986791
  -exchange      EXHF   =         0.00000000
  -V(xc)+E(xc)   XCENC  =      -226.27962907
  PAW double counting   =     34216.14663475   -33370.01880771
  entropy T*S    EENTRO =        -0.20819867
  eigenvalues    EBANDS =     -2936.06696182
  atomic energy  EATOM  =      9522.47112838
  Solvation  Ediel_sol  =         0.00000000
  ---------------------------------------------------
  free energy    TOTEN  =     -1043.19722960 eV

  energy without entropy =    -1042.98903093  energy(sigma->0) =    -1043.09313027


--------------------------------------------------------------------------------------------------------




--------------------------------------- Iteration      1(   2)  ---------------------------------------


    POTLOK:  cpu time      2.1232: real time      2.1486
    SETDIJ:  cpu time      2.2112: real time      2.2126
    EDDIAG:  cpu time     45.4373: real time     45.4641
     EDDAV:  cpu time    222.1723: real time    222.2918
       DOS:  cpu time      0.0021: real time      0.0021
    CHARGE:  cpu time     26.1251: real time     26.1466
    MIXING:  cpu time      0.0445: real time      0.0452
    --------------------------------------------
      LOOP:  cpu time    298.1158: real time    298.3111

 eigenvalue-minimisations  :  2240
 total energy-change (2. order) : 0.7399351E+02  (-0.1253255E+01)
 number of electron     400.9999999 magnetization 
 augmentation part      -18.3583299 magnetization 

 Broyden mixing:
  rms(total) = 0.76618E+00    rms(broyden)= 0.18051E+02
  rms(prec ) = 0.79152E+00
  weight for this iteration     100.00
  WARNING: grid for Broyden might be to small

 eigenvalues of (default mixing * dielectric matrix)
  average eigenvalue GAMMA=   0.6324
  0.6324

 Free energy of the ion-electron system (eV)
  ---------------------------------------------------
  alpha Z        PSCENC =        56.95076034
  Ewald energy   TEWEN  =     66884.19771209
  -Hartree energ DENC   =    -75176.63414796
  -exchange      EXHF   =         0.00000000
  -V(xc)+E(xc)   XCENC  =      -219.55728970
  PAW double counting   =     40462.89583742   -39616.49238923
  entropy T*S    EENTRO =        -0.18783793
  eigenvalues    EBANDS =     -2882.84748933
  atomic energy  EATOM  =      9522.47112838
  Solvation  Ediel_sol  =         0.00000000
  ---------------------------------------------------
  free energy    TOTEN  =      -969.20371591 eV

  energy without entropy =     -969.01587799  energy(sigma->0) =     -969.10979695


--------------------------------------------------------------------------------------------------------




--------------------------------------- Iteration      1(   3)  ---------------------------------------


    POTLOK:  cpu time      2.1240: real time      2.1477
    SETDIJ:  cpu time      2.2113: real time      2.2123
    EDDIAG:  cpu time     45.4422: real time     45.4688
     EDDAV:  cpu time    222.7743: real time    222.8995
       DOS:  cpu time      0.0042: real time      0.0042
    CHARGE:  cpu time     26.1290: real time     26.1533
    MIXING:  cpu time      0.0405: real time      0.0406
    --------------------------------------------
      LOOP:  cpu time    298.7256: real time    298.9265

 eigenvalue-minimisations  :  2248
 total energy-change (2. order) :-0.2532937E+01  (-0.8021813E+00)
 number of electron     400.9999999 magnetization 
 augmentation part      -18.3011391 magnetization 

 Broyden mixing:
  rms(total) = 0.39782E+00    rms(broyden)= 0.20922E+02
  rms(prec ) = 0.48001E+00
  weight for this iteration     100.00
  WARNING: grid for Broyden might be to small

 eigenvalues of (default mixing * dielectric matrix)
  average eigenvalue GAMMA=   0.6753
  0.7385  0.6121

 Free energy of the ion-electron system (eV)
  ---------------------------------------------------
  alpha Z        PSCENC =        56.95076034
  Ewald energy   TEWEN  =     66884.19771209
  -Hartree energ DENC   =    -75169.25457787
  -exchange      EXHF   =         0.00000000
  -V(xc)+E(xc)   XCENC  =      -221.50544820
  PAW double counting   =     46812.23432368   -45965.99609854
  entropy T*S    EENTRO =        -0.19716469
  eigenvalues    EBANDS =     -2890.63728829
  atomic energy  EATOM  =      9522.47112838
  Solvation  Ediel_sol  =         0.00000000
  ---------------------------------------------------
  free energy    TOTEN  =      -971.73665309 eV

  energy without entropy =     -971.53948840  energy(sigma->0) =     -971.63807075


--------------------------------------------------------------------------------------------------------




--------------------------------------- Iteration      1(   4)  ---------------------------------------


    POTLOK:  cpu time      2.1258: real time      2.1529
    SETDIJ:  cpu time      2.2125: real time      2.2136
    EDDIAG:  cpu time     45.4452: real time     45.4714
     EDDAV:  cpu time    248.3186: real time    248.4581
       DOS:  cpu time      0.0026: real time      0.0026
    CHARGE:  cpu time     26.1141: real time     26.1371
    MIXING:  cpu time      0.0413: real time      0.0413
    --------------------------------------------
      LOOP:  cpu time    324.2600: real time    324.4770

 eigenvalue-minimisations  :  2696
 total energy-change (2. order) :-0.1065236E+00  (-0.1769416E+00)
 number of electron     400.9999999 magnetization 
 augmentation part      -18.2943867 magnetization 

 Broyden mixing:
  rms(total) = 0.23418E+00    rms(broyden)= 0.19213E+01
  rms(prec ) = 0.43210E+00
  weight for this iteration     100.00
  WARNING: grid for Broyden might be to small

 eigenvalues of (default mixing * dielectric matrix)
  average eigenvalue GAMMA=   0.6751
  1.0487  0.6272  0.3494

 Free energy of the ion-electron system (eV)
  ---------------------------------------------------
  alpha Z        PSCENC =        56.95076034
  Ewald energy   TEWEN  =     66884.19771209
  -Hartree energ DENC   =    -75167.53373762
  -exchange      EXHF   =         0.00000000
  -V(xc)+E(xc)   XCENC  =      -221.59155719
  PAW double counting   =     52854.17935478   -52008.03959615
  entropy T*S    EENTRO =        -0.22086321
  eigenvalues    EBANDS =     -2892.25637813
  atomic energy  EATOM  =      9522.47112838
  Solvation  Ediel_sol  =         0.00000000
  ---------------------------------------------------
  free energy    TOTEN  =      -971.84317670 eV

  energy without entropy =     -971.62231349  energy(sigma->0) =     -971.73274510


--------------------------------------------------------------------------------------------------------




--------------------------------------- Iteration      1(   5)  ---------------------------------------


    POTLOK:  cpu time      2.1219: real time      2.1495
    SETDIJ:  cpu time      2.2157: real time      2.2168
    EDDIAG:  cpu time     45.4362: real time     45.4624
     EDDAV:  cpu time    245.9920: real time    246.1297
       DOS:  cpu time      0.0039: real time      0.0040
    CHARGE:  cpu time     26.1523: real time     26.1777
    MIXING:  cpu time      0.0426: real time      0.0426
    --------------------------------------------
      LOOP:  cpu time    321.9648: real time    322.1827

 eigenvalue-minimisations  :  2656
 total energy-change (2. order) : 0.2995887E+00  (-0.1188554E+00)
 number of electron     400.9999999 magnetization 
 augmentation part      -18.3009240 magnetization 

 Broyden mixing:
  rms(total) = 0.67519E-01    rms(broyden)= 0.19330E+01
  rms(prec ) = 0.10118E+00
  weight for this iteration     100.00
  WARNING: grid for Broyden might be to small

 eigenvalues of (default mixing * dielectric matrix)
  average eigenvalue GAMMA=   0.9081
  2.0195  0.6978  0.6119  0.3030

 Free energy of the ion-electron system (eV)
  ---------------------------------------------------
  alpha Z        PSCENC =        56.95076034
  Ewald energy   TEWEN  =     66884.19771209
  -Hartree energ DENC   =    -75171.82289515
  -exchange      EXHF   =         0.00000000
  -V(xc)+E(xc)   XCENC  =      -222.21140384
  PAW double counting   =     53407.76133912   -52561.62503418
  entropy T*S    EENTRO =        -0.19381601
  eigenvalues    EBANDS =     -2887.07137873
  atomic energy  EATOM  =      9522.47112838
  Solvation  Ediel_sol  =         0.00000000
  ---------------------------------------------------
  free energy    TOTEN  =      -971.54358796 eV

  energy without entropy =     -971.34977195  energy(sigma->0) =     -971.44667996


--------------------------------------------------------------------------------------------------------




--------------------------------------- Iteration      1(   6)  ---------------------------------------


    POTLOK:  cpu time      2.1253: real time      2.1548
    SETDIJ:  cpu time      2.2159: real time      2.2174
    EDDIAG:  cpu time     45.4404: real time     45.4664
     EDDAV:  cpu time    226.9228: real time    227.0465
       DOS:  cpu time      0.0028: real time      0.0028
    CHARGE:  cpu time     26.1361: real time     26.1593
    MIXING:  cpu time      0.0424: real time      0.0424
    --------------------------------------------
      LOOP:  cpu time    302.8856: real time    303.0896

 eigenvalue-minimisations  :  2320
 total energy-change (2. order) :-0.2538197E-01  (-0.3289515E-01)
 number of electron     400.9999999 magnetization 
 augmentation part      -18.2994748 magnetization 

 Broyden mixing:
  rms(total) = 0.47962E-01    rms(broyden)= 0.43569E+00
  rms(prec ) = 0.61161E-01
  weight for this iteration     100.00
  WARNING: grid for Broyden might be to small

 eigenvalues of (default mixing * dielectric matrix)
  average eigenvalue GAMMA=   0.8521
  2.2799  0.6887  0.6024  0.3448  0.3448

 Free energy of the ion-electron system (eV)
  ---------------------------------------------------
  alpha Z        PSCENC =        56.95076034
  Ewald energy   TEWEN  =     66884.19771209
  -Hartree energ DENC   =    -75172.12594735
  -exchange      EXHF   =         0.00000000
  -V(xc)+E(xc)   XCENC  =      -222.57316191
  PAW double counting   =     53173.59678745   -52327.44391089
  entropy T*S    EENTRO =        -0.19351415
  eigenvalues    EBANDS =     -2886.44882391
  atomic energy  EATOM  =      9522.47112838
  Solvation  Ediel_sol  =         0.00000000
  ---------------------------------------------------
  free energy    TOTEN  =      -971.56896993 eV

  energy without entropy =     -971.37545578  energy(sigma->0) =     -971.47221286


--------------------------------------------------------------------------------------------------------




--------------------------------------- Iteration      1(   7)  ---------------------------------------


    POTLOK:  cpu time      2.1187: real time      2.1447
    SETDIJ:  cpu time      2.2152: real time      2.2167
    EDDIAG:  cpu time     45.4649: real time     45.4903
     EDDAV:  cpu time    233.3411: real time    233.4713
       DOS:  cpu time      0.0021: real time      0.0021
    CHARGE:  cpu time     26.1413: real time     26.1640
    MIXING:  cpu time      0.0425: real time      0.0425
    --------------------------------------------
      LOOP:  cpu time    309.3259: real time    309.5317

 eigenvalue-minimisations  :  2432
 total energy-change (2. order) : 0.4495243E-02  (-0.4413668E-02)
 number of electron     400.9999999 magnetization 
 augmentation part      -18.2999256 magnetization 

 Broyden mixing:
  rms(total) = 0.27720E-01    rms(broyden)= 0.25507E+00
  rms(prec ) = 0.31679E-01
  weight for this iteration     100.00
  WARNING: grid for Broyden might be to small

 eigenvalues of (default mixing * dielectric matrix)
  average eigenvalue GAMMA=   0.8881
  2.5597  0.8360  0.6131  0.4944  0.4944  0.3312

 Free energy of the ion-electron system (eV)
  ---------------------------------------------------
  alpha Z        PSCENC =        56.95076034
  Ewald energy   TEWEN  =     66884.19771209
  -Hartree energ DENC   =    -75169.73528686
  -exchange      EXHF   =         0.00000000
  -V(xc)+E(xc)   XCENC  =      -222.58677807
  PAW double counting   =     53129.25508460   -52283.09488695
  entropy T*S    EENTRO =        -0.19236558
  eigenvalues    EBANDS =     -2888.82984264
  atomic energy  EATOM  =      9522.47112838
  Solvation  Ediel_sol  =         0.00000000
  ---------------------------------------------------
  free energy    TOTEN  =      -971.56447469 eV

  energy without entropy =     -971.37210911  energy(sigma->0) =     -971.46829190


--------------------------------------------------------------------------------------------------------




--------------------------------------- Iteration      1(   8)  ---------------------------------------


    POTLOK:  cpu time      2.1229: real time      2.1462
    SETDIJ:  cpu time      2.2118: real time      2.2131
    EDDIAG:  cpu time     45.4629: real time     45.4894
     EDDAV:  cpu time    238.7465: real time    238.8754
       DOS:  cpu time      0.0030: real time      0.0030
    CHARGE:  cpu time     26.1432: real time     26.1661
    MIXING:  cpu time      0.0436: real time      0.0436
    --------------------------------------------
      LOOP:  cpu time    314.7338: real time    314.9368

 eigenvalue-minimisations  :  2520
 total energy-change (2. order) : 0.8580121E-03  (-0.1163598E-02)
 number of electron     400.9999999 magnetization 
 augmentation part      -18.2993195 magnetization 

 Broyden mixing:
  rms(total) = 0.19187E-01    rms(broyden)= 0.12658E+00
  rms(prec ) = 0.21384E-01
  weight for this iteration     100.00
  WARNING: grid for Broyden might be to small

 eigenvalues of (default mixing * dielectric matrix)
  average eigenvalue GAMMA=   0.8830
  2.5922  0.9737  0.7074  0.6283  0.3207  0.4792  0.4792

 Free energy of the ion-electron system (eV)
  ---------------------------------------------------
  alpha Z        PSCENC =        56.95076034
  Ewald energy   TEWEN  =     66884.19771209
  -Hartree energ DENC   =    -75168.26067345
  -exchange      EXHF   =         0.00000000
  -V(xc)+E(xc)   XCENC  =      -222.53048015
  PAW double counting   =     53104.76395836   -52258.59827391
  entropy T*S    EENTRO =        -0.19349445
  eigenvalues    EBANDS =     -2890.36425389
  atomic energy  EATOM  =      9522.47112838
  Solvation  Ediel_sol  =         0.00000000
  ---------------------------------------------------
  free energy    TOTEN  =      -971.56361668 eV

  energy without entropy =     -971.37012223  energy(sigma->0) =     -971.46686945


--------------------------------------------------------------------------------------------------------




--------------------------------------- Iteration      1(   9)  ---------------------------------------


    POTLOK:  cpu time      2.1239: real time      2.1520
    SETDIJ:  cpu time      2.2137: real time      2.2148
    EDDIAG:  cpu time     45.4715: real time     45.4987
     EDDAV:  cpu time    236.1657: real time    236.2952
       DOS:  cpu time      0.0021: real time      0.0021
    CHARGE:  cpu time     26.1447: real time     26.1686
    MIXING:  cpu time      0.0445: real time      0.0445
    --------------------------------------------
      LOOP:  cpu time    312.1663: real time    312.3761

 eigenvalue-minimisations  :  2480
 total energy-change (2. order) :-0.3372853E-03  (-0.5092243E-03)
 number of electron     400.9999999 magnetization 
 augmentation part      -18.2983263 magnetization 

 Broyden mixing:
  rms(total) = 0.10703E-01    rms(broyden)= 0.75922E-01
  rms(prec ) = 0.12297E-01
  weight for this iteration     100.00
  WARNING: grid for Broyden might be to small

 eigenvalues of (default mixing * dielectric matrix)
  average eigenvalue GAMMA=   0.8775
  2.6059  1.1413  0.7536  0.5926  0.5926  0.6208  0.3251  0.3882

 Free energy of the ion-electron system (eV)
  ---------------------------------------------------
  alpha Z        PSCENC =        56.95076034
  Ewald energy   TEWEN  =     66884.19771209
  -Hartree energ DENC   =    -75166.64589678
  -exchange      EXHF   =         0.00000000
  -V(xc)+E(xc)   XCENC  =      -222.40353016
  PAW double counting   =     53099.66757085   -52253.49425164
  entropy T*S    EENTRO =        -0.19340388
  eigenvalues    EBANDS =     -2892.11404318
  atomic energy  EATOM  =      9522.47112838
  Solvation  Ediel_sol  =         0.00000000
  ---------------------------------------------------
  free energy    TOTEN  =      -971.56395396 eV

  energy without entropy =     -971.37055009  energy(sigma->0) =     -971.46725203


--------------------------------------------------------------------------------------------------------




--------------------------------------- Iteration      1(  10)  ---------------------------------------


    POTLOK:  cpu time      2.1252: real time      2.1478
    SETDIJ:  cpu time      2.2186: real time      2.2197
    EDDIAG:  cpu time     45.4527: real time     45.4795
     EDDAV:  cpu time    227.9132: real time    228.0380
       DOS:  cpu time      0.0046: real time      0.0046
    CHARGE:  cpu time     26.1411: real time     26.1640
    MIXING:  cpu time      0.0453: real time      0.0453
    --------------------------------------------
      LOOP:  cpu time    303.9005: real time    304.0987

 eigenvalue-minimisations  :  2336
 total energy-change (2. order) :-0.2379352E-03  (-0.2274929E-03)
 number of electron     400.9999999 magnetization 
 augmentation part      -18.2976667 magnetization 

 Broyden mixing:
  rms(total) = 0.44691E-02    rms(broyden)= 0.41156E-01
  rms(prec ) = 0.52578E-02
  weight for this iteration     100.00
  WARNING: grid for Broyden might be to small

 eigenvalues of (default mixing * dielectric matrix)
  average eigenvalue GAMMA=   0.9439
  2.6033  1.6340  0.8931  0.8931  0.6326  0.5543  0.5543  0.3216  0.4089

 Free energy of the ion-electron system (eV)
  ---------------------------------------------------
  alpha Z        PSCENC =        56.95076034
  Ewald energy   TEWEN  =     66884.19771209
  -Hartree energ DENC   =    -75165.83622163
  -exchange      EXHF   =         0.00000000
  -V(xc)+E(xc)   XCENC  =      -222.34379386
  PAW double counting   =     53112.65206648   -52266.47348550
  entropy T*S    EENTRO =        -0.19359796
  eigenvalues    EBANDS =     -2892.98876025
  atomic energy  EATOM  =      9522.47112838
  Solvation  Ediel_sol  =         0.00000000
  ---------------------------------------------------
  free energy    TOTEN  =      -971.56419190 eV

  energy without entropy =     -971.37059394  energy(sigma->0) =     -971.46739292


--------------------------------------------------------------------------------------------------------




--------------------------------------- Iteration      1(  11)  ---------------------------------------


    POTLOK:  cpu time      2.1281: real time      2.1490
    SETDIJ:  cpu time      2.2126: real time      2.2142
    EDDIAG:  cpu time     45.4737: real time     45.4999
     EDDAV:  cpu time    226.9409: real time    227.0650
       DOS:  cpu time      0.0102: real time      0.0105
    CHARGE:  cpu time     26.1295: real time     26.1523
    MIXING:  cpu time      0.0612: real time      0.0613
    --------------------------------------------
      LOOP:  cpu time    302.9563: real time    303.1523

 eigenvalue-minimisations  :  2320
 total energy-change (2. order) :-0.7569743E-04  (-0.1135140E-03)
 number of electron     400.9999999 magnetization 
[...]
      4.74239      3.66291     15.63524        -0.458885     -0.343256      0.121307
      0.75661      2.53372     10.98539        -0.859702      2.505311      0.536951
      4.83498      2.99684     17.80665         1.028332      0.540217      1.135685
      4.51186      5.73764     15.22389        -0.818815      0.504282     -0.832106
      2.86914      2.19959     16.39556         0.201324      0.394841     -0.149582
      4.61820      2.50386     13.02384         0.370090     -0.289419     -1.463255
     14.17730      3.54488     18.37833         0.010433     -0.292063      0.542262
     11.68360      5.03591     12.77474        -1.134597      0.769769     -0.151429
     11.35580     13.13440     15.46052        -0.404595      0.405878     -1.474559
      5.29617      4.05127     13.62788         0.997209      0.372424     -0.223918
      8.79537      3.07081     12.75739         0.549584      0.221524      0.164539
      8.75201      7.25002     14.40559        -0.238465     -0.062176     -0.087386
      1.08144      0.92705     12.59508        -0.836446      1.251433     -1.442384
     10.36640      4.45395     11.92803        -0.160365     -0.079812     -0.223480
      7.60748      4.96034     12.87818         1.476129     -0.642507     -0.377235
      5.66957      1.27857     14.35481         0.304530      0.262254     -0.553000
      8.84102      4.71278     15.40390        -0.115744     -0.675804     -0.017232
      0.53511      3.31671     11.26559         0.465132     -2.225041     -1.270958
      3.27597      2.68856     13.73802        -0.326013      0.547523      0.526974
     14.34810      0.90133     14.29788        -0.107430     -0.620979      0.291114
      5.73613      1.05514     18.14593        -0.522032     -0.754406     -0.949232
     11.90630      2.84567     15.76311         0.509413      0.515691     -0.270966
     13.84080     14.30480     12.46328         1.123764     -1.273241      1.204739
      5.79033      9.08778     17.30779         0.270443      0.218555      0.196852
     10.83540      1.12843     15.12895         0.447868     -0.241190      0.550049
     10.54950      3.22974     14.40942        -1.793279     -0.169670      0.562113
      9.63357      0.80029     13.51769         1.244987      1.044176     -0.404087
     11.23510      0.15676     13.52937         0.722611     -0.316948      0.096113
      6.88796      3.53809     16.46731         0.080193      0.342459     -0.063386
      0.95969      3.29462     13.48101         0.827290      0.326061     -0.082034
     11.98220      0.02568     13.43844        -0.636002     -0.046931      0.352786
     14.21820      3.13605     15.50182        -0.018930      0.147980     -0.073165
      6.25410      2.14132     16.27715        -0.385439     -0.468156     -0.215961
     11.22760      0.83582     15.71394        -0.149967      0.237498     -0.385373
      7.88518      2.21532     17.81104         0.312705      0.119357      0.198589
      2.82304      1.33674     11.61766         0.495881     -0.222341     -0.657748
      7.89325      2.62053     14.60701         0.702595      0.363935      0.087052
      6.74195      5.66172     14.84128        -0.095002     -0.446314      0.538363
      7.45624      5.82725     11.13116        -0.569561     -0.608476     -0.555965
     10.12400      4.36406     11.22916        -0.134046     -0.111348     -0.330366
      1.15381      1.37331     16.38403        -0.766936      0.338546      0.244598
      4.52457      2.43038     12.25206         0.701777     -0.084563      0.781867
      3.03303      1.21984     13.63787        -0.212320     -0.116558     -0.043976
      0.41974      1.59175     16.53969         0.744411     -0.120722     -0.170213
      2.63166      3.34007     11.57184        -0.105850      0.252357      0.345654
      2.52763      4.34931     15.33910        -0.769033      0.269024     -1.058217
      8.06285      7.19076     14.68926        -0.050081      0.048264     -0.080986
      9.70341      6.02658     12.93217        -0.597497     -0.344358      0.209635
      3.25994      4.84228     13.13747        -0.052010      0.994693      0.251132
      9.28632      2.05775     17.28157         0.001445      0.533860      0.769407
     10.92860      5.19952     18.57040        -0.321542     -0.942017      0.571254
      5.59046      0.82333     15.93837         2.268002      0.271035      2.536241
     11.64370     10.03080     14.58887        -1.500379     -0.292783     -1.637519
      4.69964      8.18974     16.81424        -0.539980      0.273729      0.746713
     10.87540      9.12431     18.50413        -0.670677      0.371847      0.153998
      2.59109      0.07929     14.45155        -0.237438     -1.887159     -0.639807
      1.66136      6.91336     17.29016         0.971321      0.736337      0.513882
      3.84815     12.38320     17.03296         0.333560      0.911941      1.428048
      0.85367     12.01090     17.85940        -0.112416      0.415706      0.469310
      3.62295      0.24048     10.93822        -1.619367      0.211401     -0.551550
      6.50521     12.37990     11.17581         0.322382      0.082883      0.330112
      6.87661      3.23593     10.07135         1.642114      0.866607     -0.657927
      3.36347      3.60624     16.23232         1.034054      0.091030      0.555464
      8.14129      2.19423     11.80299        -0.685386     -0.316030     -0.962608
      6.76816      0.87895     13.23284        -0.110208     -0.150239     -0.563776
     12.87780     10.50550     16.27281         1.960788     -0.691018      1.449552
      0.28148     10.58250     15.10467         0.114886      0.388809     -0.103255
      2.65401      9.56124     14.11435         0.862430     -0.664347      1.248670
      7.62906     10.47460     18.51893         0.150203      0.666309      0.529656
     13.03440      9.60813     11.09913        -0.226750     -0.245840      0.153421
     11.81080      7.94235     13.67181        -0.107467     -0.402345     -0.093775
      7.91980      9.48977     16.51356         1.075467     -0.317671      0.161575
      6.31317      5.15126     13.36533        -1.885877      0.695350      0.376208
     11.17790     13.92960     10.62076         0.212709      2.088167      0.133388
     13.13820      0.37186     11.46600        -1.710265      1.417939     -2.434413
     14.15940      6.91145     18.14033        -1.010845      0.578141     -0.041310
      4.09331     12.92190     13.76061        -1.063664      0.944296      0.081622
      2.25223      8.92183     10.00000         0.124035      0.699542     -0.066268
      5.11254     10.56090     11.52685         0.505191     -0.448568     -0.466894
      9.78116     10.23830     10.27537         0.897960     -0.489233     -1.186794
      1.23053      6.35306     15.12690        -0.891762      0.944052      0.338956
      5.33552     11.95660     15.38635         0.875316     -1.354981     -0.550791
      8.69416     14.41980     13.90185        -1.357907     -1.676986     -0.010677
      0.35508     14.18060     14.82897        -0.746890      0.716576     -0.263014
      9.35153      0.90147     10.18069         0.424331     -0.398189      0.146332
      8.59276      8.97246     11.76404         0.410184     -0.153090      0.917968
      0.40775     10.54610     10.17754         0.344013     -1.192618     -0.352217
      3.77039      5.38523     10.26843        -0.270410      0.392477     -0.575468
     12.54110      5.68172     16.96563         0.580222     -0.301862     -0.204688
      6.34953      8.54350     11.51069        -0.193814      0.637723     -0.236977
      9.50145     14.33360     17.56417         0.157140      0.233270     -0.377485
     10.58350     11.99720     11.52798         0.245984     -0.489379      0.061344
     11.08660      6.63404     10.18630         0.481291      0.739498     -0.317476
     10.98680     12.89530     18.48324         0.166936     -0.116463      1.042995
     10.12330      7.20327     12.18712        -0.113827      0.891561      0.081724
      1.82759     13.54980     10.29631        -0.585872      1.136623     -0.620780
      5.23264     14.07480     12.19182         2.329703     -0.574504     -0.233862
      8.31947     10.49700     13.57298        -0.365602     -0.293238     -0.266493
      9.18102      3.21924     15.23249         0.298273     -0.613592     -0.675405
      0.00033      5.72920     11.87971        -0.746902     -0.766573     -0.422505
      3.17445     11.17130     12.71117         0.160946     -0.015292     -1.478273
     12.94200      3.86890     15.33936        -0.240761     -0.145322      1.086663
      8.57533     12.50910     12.49214        -1.101525      0.645938     -0.522235
      8.96856      5.93762     17.78797        -0.612416      0.075574     -0.889717
      9.60828     10.78390     15.48835        -0.046386     -0.026977     -0.164326
     14.04090     13.66000     16.95609         1.200903      0.877202      0.088017
     13.08940      9.01392     17.98807         0.242453     -0.867449      0.124573
      5.14341      7.09552     12.74813         0.313432     -0.551131     -0.816717
      1.23805     11.93260     11.76230         0.177963     -0.321368      0.024937
      2.55982      0.46383     18.38650        -0.443029     -0.589137      1.280919
      7.06875      5.02811     16.53705        -0.752664      1.676383      1.473344
      2.74680      8.98373     17.85733         0.331059     -0.819286     -0.071065
      4.76591      8.49666     14.46816        -0.718203      0.447584      0.883124
      2.30344     10.81000     16.49736        -0.712193     -1.240919     -0.895798
     12.57250      2.60499     11.97379         2.466533     -1.410585     -1.582609
      2.39380      3.61005     13.02604        -1.526888     -2.115506     -0.551878
     14.41890     12.38040     13.49308        -0.467739     -0.919054      0.413230
      0.66548      8.44895     14.16562        -0.079823      0.335621      0.411515
      9.73729      7.98343     16.79963        -1.103649     -0.054451      1.238783
      1.98741      5.97349     13.05529        -0.047329      0.939114     -0.217903
      6.50487     12.65770     18.42834        -0.313075     -0.183065     -0.377564
      5.05070      6.14200     17.72374         0.505751     -1.242063     -0.893544
     12.40510     11.24190     12.76014         0.440254      0.155404     -0.130664
      2.98454      5.09581     17.91375         1.083143      0.725221      0.824191
     12.14440     12.56150     16.49695        -0.435499      0.686819      1.353184
      9.08917     13.03960     15.68949        -0.390057      0.632243      0.183753
      6.80263     13.39520     16.14780         0.937826      0.759384      0.757653
     11.17770      6.79354     15.55560        -0.468941     -1.263337     -1.417111
     13.84610      7.83669     12.47905        -0.348587      0.716573     -0.314976
     12.93820      4.47419     13.10258         2.229554      0.496047      0.060086
      3.06211      7.30330     11.57780         0.682379     -0.215180     -0.153760
      3.53988      0.11486     16.43139         0.082437     -0.618458      0.406722
      6.48243      9.91660     14.81925        -0.679287      1.170714     -0.475462
     13.56440      0.95432     18.35236         0.143243     -0.872362      0.629912
 -----------------------------------------------------------------------------------
    total drift:                               -0.002946     -0.012326     -0.005465


--------------------------------------------------------------------------------------------------------



  FREE ENERGIE OF THE ION-ELECTRON SYSTEM (eV)
  ---------------------------------------------------
  free  energy   TOTEN  =      -971.56537342 eV

  energy  without entropy=     -971.37182447  energy(sigma->0) =     -971.46859894



--------------------------------------------------------------------------------------------------------


    POTLOK:  cpu time      4.3130: real time      4.3889


--------------------------------------------------------------------------------------------------------


     LOOP+:  cpu time   8579.2824: real time   8585.1377
    4ORBIT:  cpu time      0.0000: real time      0.0000



 total charge

# of ion       s       p       d       tot
------------------------------------------
    1        0.605   0.033   0.000   0.638
    2        0.540   0.014   0.000   0.554
    3        0.574   0.028   0.000   0.602
    4        0.568   0.018   0.000   0.585
    5        0.602   0.020   0.000   0.621
    6        0.562   0.027   0.000   0.589
    7        0.641   0.025   0.000   0.666
    8        0.622   0.036   0.000   0.657
    9        0.578   0.017   0.000   0.595
   10        0.607   0.033   0.000   0.640
   11        0.580   0.017   0.000   0.597
   12        0.579   0.029   0.000   0.608
   13        0.575   0.016   0.000   0.591
   14        0.547   0.022   0.000   0.569
   15        0.590   0.028   0.000   0.618
   16        0.568   0.028   0.000   0.597
   17        0.576   0.019   0.000   0.596
   18        0.601   0.033   0.000   0.634
   19        0.616   0.034   0.000   0.651
   20        0.607   0.021   0.000   0.628
   21        0.601   0.022   0.000   0.622
   22        0.556   0.016   0.000   0.572
   23        0.588   0.019   0.000   0.607
   24        0.609   0.035   0.000   0.644
   25        0.563   0.025   0.000   0.588
   26        0.608   0.037   0.000   0.645
   27        0.596   0.024   0.000   0.620
   28        0.584   0.020   0.000   0.605
   29        0.554   0.019   0.000   0.573
   30        0.540   0.023   0.000   0.563
   31        0.592   0.024   0.000   0.616
   32        0.551   0.014   0.000   0.565
   33        0.420   0.002   0.000   0.422
   34        0.559   0.016   0.000   0.575
   35        0.616   0.025   0.000   0.642
   36        0.574   0.018   0.000   0.592
   37        0.603   0.032   0.000   0.635
   38        0.526   0.013   0.000   0.539
   39        0.610   0.022   0.000   0.632
   40        0.600   0.033   0.000   0.633
   41        0.560   0.019   0.000   0.579
   42        0.544   0.015   0.000   0.559
   43        0.608   0.032   0.000   0.640
   44        0.582   0.017   0.000   0.599
   45        0.553   0.018   0.000   0.571
   46        0.602   0.032   0.000   0.633
   47        0.556   0.016   0.000   0.572
   48        0.553   0.017   0.000   0.570
   49        0.555   0.015   0.000   0.569
   50        0.553   0.017   0.000   0.570
   51        0.408   0.002   0.000   0.410
   52        0.619   0.033   0.000   0.652
   53        0.591   0.032   0.000   0.623
   54        0.591   0.032   0.000   0.623
   55        0.576   0.022   0.000   0.597
   56        0.584   0.032   0.000   0.615
   57        0.572   0.017   0.000   0.589
   58        0.614   0.021   0.000   0.635
   59        0.615   0.033   0.000   0.648
   60        0.589   0.018   0.000   0.608
   61        0.577   0.026   0.000   0.604
   62        0.765   0.895   0.000   1.660
   63        0.852   0.774   0.000   1.626
   64        0.766   0.926   0.000   1.693
   65        0.767   1.002   0.000   1.769
   66        0.760   0.968   0.000   1.728
   67        0.847   0.758   0.000   1.605
   68        0.757   1.022   0.000   1.778
   69        0.752   0.953   0.000   1.705
   70        0.786   0.874   0.000   1.660
   71        0.871   0.720   0.000   1.591
   72        0.783   0.943   0.000   1.726
   73        0.787   0.850   0.000   1.637
   74        0.868   0.761   0.000   1.629
   75        0.755   1.010   0.000   1.764
   76        0.763   0.947   0.000   1.710
   77        0.770   0.917   0.000   1.686
   78        0.771   1.035   0.000   1.806
   79        0.778   0.881   0.000   1.659
   80        0.778   0.914   0.000   1.691
   81        0.865   0.726   0.000   1.591
   82        0.787   0.823   0.000   1.610
   83        0.762   0.971   0.000   1.733
   84        0.781   0.940   0.000   1.720
   85        0.762   0.967   0.000   1.729
   86        0.786   0.872   0.000   1.658
   87        0.778   0.902   0.000   1.680
   88        0.797   0.870   0.000   1.667
   89        0.776   0.980   0.000   1.756
   90        0.881   0.672   0.000   1.553
   91        0.777   0.861   0.000   1.638
   92        0.857   0.765   0.000   1.622
   93        0.771   0.971   0.000   1.742
   94        0.776   0.985   0.000   1.761
   95        0.760   0.995   0.000   1.755
   96        0.751   0.959   0.000   1.710
   97        0.856   0.709   0.000   1.565
   98        0.757   0.952   0.000   1.709
   99        0.803   0.854   0.000   1.657
  100        0.889   0.711   0.000   1.600
  101        0.763   0.935   0.000   1.698
  102        0.792   0.869   0.000   1.661
  103        0.793   0.865   0.000   1.658
  104        0.759   0.990   0.000   1.749
  105        0.929   0.603   0.000   1.533
  106        0.858   0.766   0.000   1.624
  107        0.753   0.993   0.000   1.746
  108        0.844   0.782   0.000   1.626
  109        0.757   1.016   0.000   1.773
  110        0.778   0.937   0.000   1.715
  111        0.743   0.931   0.000   1.675
  112        0.805   0.865   0.000   1.670
  113        0.764   1.000   0.000   1.764
  114        0.751   0.962   0.000   1.713
  115        0.766   0.924   0.000   1.690
  116        0.798   0.850   0.000   1.648
  117        0.770   0.943   0.000   1.713
  118        0.763   0.973   0.000   1.737
  119        0.779   0.881   0.000   1.660
  120        0.758   0.959   0.000   1.717
  121        0.767   0.989   0.000   1.756
  122        0.922   0.634   0.000   1.556
  123        0.785   0.808   0.000   1.593
  124        0.809   0.851   0.000   1.660
  125        0.771   0.968   0.000   1.739
  126        0.759   0.935   0.000   1.693
  127        0.783   0.985   0.000   1.768
  128        0.751   1.012   0.000   1.763
  129        0.762   0.929   0.000   1.692
  130        0.761   0.962   0.000   1.723
  131        0.768   0.927   0.000   1.695
  132        0.783   0.951   0.000   1.734
  133        0.871   0.691   0.000   1.562
  134        0.790   0.855   0.000   1.645
  135        0.763   0.916   0.000   1.678
  136        0.795   0.898   0.000   1.693
  137        0.773   1.041   0.000   1.814
  138        0.770   0.936   0.000   1.707
  139        0.762   0.961   0.000   1.723
  140        0.763   0.979   0.000   1.742
  141        0.762   0.929   0.000   1.690
  142        0.755   1.016   0.000   1.771
  143        0.776   0.917   0.000   1.693
  144        0.771   1.017   0.000   1.788
  145        0.768   0.967   0.000   1.735
  146        0.871   0.743   0.000   1.614
--------------------------------------------------
tot        102.269  77.899   0.000 180.168


 total amount of memory used by VASP MPI-rank0   408054. kBytes
=======================================================================

   base                                    :      30000. kBytes
   nonl-proj                               :     102209. kBytes
   fftplans                                :     110226. kBytes
   grid                                    :      85039. kBytes
   one-center                              :         30. kBytes
   wavefun                                 :      80550. kBytes

  
  
 General timing and accounting informations for this job:
 ========================================================
  
                  Total CPU time used (sec):     8745.249
                            User time (sec):     7795.764
                          System time (sec):      949.485
                         Elapsed time (sec):     8751.743
  
                   Maximum memory used (kb):      684512.
                   Average memory used (kb):          N/A
  
                          Minor page faults:     14955799
                          Major page faults:         1197
                 Voluntary context switches:         4085
