 vasp.6.5.0 16Dec24 (build Jan 20 2025 08:32:48) complex                         
 executed on        HPECrayEX_GCC date 2025.07.22  02:59:18
 running  128 mpi-ranks, with    1 threads/rank, on    1 nodes
 distrk:  each k-point on  128 cores,    1 groups
 distr:  one band on NCORE=  16 cores,    8 groups


--------------------------------------------------------------------------------------------------------


 INCAR:
   SYSTEM = a-Si SPC
   NCORE = 16
   ISTART = 1
   ICHARG = 1
   ISPIN = 1
   ISYM = 1
   EDIFF = 1E-6
   NELM = 150
   EDIFFG = -0.01
   NSW = 0
   ISIF = 2
   IBRION = -1
   PREC = Accurate
   ENCUT = 1200
   KSPACING = 0.23
   KGAMMA = .TRUE.
   METAGGA = SCAN
   LASPH = .TRUE.
   LDIAG = .FALSE.
   LMIXTAU = .TRUE.
   ADDGRID = .TRUE.
   ALGO = Normal
   ISMEAR = 0
   SIGMA = 0.1
   LORBIT = 11
   NEDOS = 2000
   LWAVE = .FALSE.
   LCHARG = .FALSE.

 POTCAR:    PAW_PBE H 15Jun2001                   
 POTCAR:    PAW_PBE Si 05Jan2001                  
 POTCAR:    PAW_PBE H 15Jun2001                   
   SHA256 =  030f79b5d3ab3cf0e668861823c8fb652ff669f3e15e46930bd03bfd63a607b6 H/POTCAR              
   COPYR  = (c) Copyright 15Jun2001 Georg Kresse                                                    
   COPYR  = This file is part of the software VASP. Any use, copying, and all other rights are regul
   COPYR  = If you do not have a valid VASP license, you may not use, copy or distribute this file. 
   VRHFIN =H: ultrasoft test                                                                        
   LEXCH  = PE                                                                                      
   EATOM  =    12.4884 eV,    0.9179 Ry                                                             
                                                                                                    
   TITEL  = PAW_PBE H 15Jun2001                                                                     
   LULTRA =        F    use ultrasoft PP ?                                                          
   IUNSCR =        0    unscreen: 0-lin 1-nonlin 2-no                                               
   RPACOR =    0.000    partial core radius                                                         
   POMASS =    1.000; ZVAL   =    1.000    mass and valenz                                          
   RCORE  =    1.100    outmost cutoff radius                                                       
   RWIGS  =    0.700; RWIGS  =    0.370    wigner-seitz radius (au A)                               
   ENMAX  =  250.000; ENMIN  =  200.000 eV                                                          
   RCLOC  =    0.701    cutoff for local pot                                                        
   LCOR   =        T    correct aug charges                                                         
   LPAW   =        T    paw PP                                                                      
   EAUG   =  400.000                                                                                
   RMAX   =    1.123    core radius for proj-oper                                                   
   RAUG   =    1.200    factor for augmentation sphere                                              
   RDEP   =    1.112    radius for radial grids                                                     
   RDEPT  =    0.926    core radius for aug-charge                                                  
                                                                                                    
   Atomic configuration                                                                             
    2 entries                                                                                       
     n  l   j            E        occ.                                                              
     1  0  0.50        -6.4927   1.0000                                                             
     2  1  0.50        -3.4015   0.0000                                                             
   Description                                                                                      
     l       E           TYP  RCUT    TYP  RCUT                                                     
     0     -6.4927494     23  1.100                                                                 
     0      6.8029130     23  1.100                                                                 
     1     -4.0817478     23  1.100                                                                 
  local pseudopotential read in
  atomic valenz-charges read in
  non local Contribution for L=           0  read in
    real space projection operators read in
  non local Contribution for L=           0  read in
    real space projection operators read in
  non local Contribution for L=           1  read in
    real space projection operators read in
    PAW grid and wavefunctions read in

   number of l-projection  operators is LMAX  =           3
   number of lm-projection operators is LMMAX =           5

 POTCAR:    PAW_PBE Si 05Jan2001                  
   SHA256 =  79d9987ad8750f624c4d6acb2a16d13abf6a777132adc04dc6c8399be72b42bb Si/POTCAR             
   COPYR  = (c) Copyright 05Jan2001 Georg Kresse                                                    
   COPYR  = This file is part of the software VASP. Any use, copying, and all other rights are regul
   COPYR  = If you do not have a valid VASP license, you may not use, copy or distribute this file. 
   VRHFIN =Si: s2p2                                                                                 
   LEXCH  = PE                                                                                      
   EATOM  =   103.0669 eV,    7.5752 Ry                                                             
                                                                                                    
   TITEL  = PAW_PBE Si 05Jan2001                                                                    
   LULTRA =        F    use ultrasoft PP ?                                                          
   IUNSCR =        1    unscreen: 0-lin 1-nonlin 2-no                                               
   RPACOR =    1.500    partial core radius                                                         
   POMASS =   28.085; ZVAL   =    4.000    mass and valenz                                          
   RCORE  =    1.900    outmost cutoff radius                                                       
   RWIGS  =    2.480; RWIGS  =    1.312    wigner-seitz radius (au A)                               
   ENMAX  =  245.345; ENMIN  =  184.009 eV                                                          
   ICORE  =        2    local potential                                                             
   LCOR   =        T    correct aug charges                                                         
   LPAW   =        T    paw PP                                                                      
   EAUG   =  322.069                                                                                
   DEXC   =    0.000                                                                                
   RMAX   =    1.950    core radius for proj-oper                                                   
   RAUG   =    1.300    factor for augmentation sphere                                              
   RDEP   =    1.993    radius for radial grids                                                     
   RDEPT  =    1.837    core radius for aug-charge                                                  
                                                                                                    
   Atomic configuration                                                                             
    6 entries                                                                                       
     n  l   j            E        occ.                                                              
     1  0  0.50     -1785.8828   2.0000                                                             
     2  0  0.50      -139.4969   2.0000                                                             
     2  1  1.50       -95.5546   6.0000                                                             
     3  0  0.50       -10.8127   2.0000                                                             
     3  1  0.50        -4.0811   2.0000                                                             
     3  2  1.50        -4.0817   0.0000                                                             
   Description                                                                                      
     l       E           TYP  RCUT    TYP  RCUT                                                     
     0    -10.8127223     23  1.900                                                                 
     0     -7.6451159     23  1.900                                                                 
     1     -4.0811372     23  1.900                                                                 
     1      2.4879257     23  1.900                                                                 
     2     -4.0817478      7  1.900                                                                 
  local pseudopotential read in
  partial core-charges read in
  partial kinetic energy density read in
  atomic valenz-charges read in
  non local Contribution for L=           0  read in
    real space projection operators read in
  non local Contribution for L=           0  read in
    real space projection operators read in
  non local Contribution for L=           1  read in
    real space projection operators read in
  non local Contribution for L=           1  read in
    real space projection operators read in
    PAW grid and wavefunctions read in

   number of l-projection  operators is LMAX  =           4
   number of lm-projection operators is LMMAX =           8

 -----------------------------------------------------------------------------
|                                                                             |
|               ----> ADVICE to this user running VASP <----                  |
|                                                                             |
|     You have a (more or less) 'large supercell' and for larger cells it     |
|     might be more efficient to use real-space projection operators.         |
|     Therefore, try LREAL= Auto in the INCAR file.                           |
|     Mind: For very accurate calculation, you might also keep the            |
|     reciprocal projection scheme (i.e. LREAL=.FALSE.).                      |
|                                                                             |
 -----------------------------------------------------------------------------

 -----------------------------------------------------------------------------
|                                                                             |
|               ----> ADVICE to this user running VASP <----                  |
|                                                                             |
|     You enforced a specific xc type in the INCAR file but a different       |
|     type was found in the POTCAR file.                                      |
|     I HOPE YOU KNOW WHAT YOU ARE DOING!                                     |
|                                                                             |
 -----------------------------------------------------------------------------

  PAW_PBE H 15Jun2001                   :
 energy of atom  1       EATOM=  -12.4884
 kinetic energy error for atom=    0.0000 (will be added to EATOM!!)
  PAW_PBE Si 05Jan2001                  :
 energy of atom  2       EATOM= -103.0669
 kinetic energy error for atom=    0.0001 (will be added to EATOM!!)


 POSCAR:  H Si
  positions in cartesian coordinates
  No initial velocities read in


 exchange-correlation table for SCAN
   RHO(1)=    0.500       N(1)  =     2000
   RHO(2)=  100.500       N(2)  =     4000



--------------------------------------------------------------------------------------------------------


 ion  position               nearest neighbor table
   1  0.418  0.315  0.651-  10 0.77
   2  0.676  0.127  0.603-  18 1.48
   3  0.940  0.028  0.607-  13 0.76
   4  0.980  0.044  0.419- 105 1.63  19 1.70
   5  0.438  0.179  0.597-  26 1.46
   6  0.538  0.199  0.626-  18 1.53
   7  0.832  0.219  0.648-
   8  0.554  0.207  0.393-  79 1.49
   9  0.251  0.386  0.548-  50 1.49
  10  0.457  0.322  0.634-   1 0.77
  11  0.326  0.205  0.650-  74 1.42
  12  0.795  0.122  0.586-  97 1.56
  13  0.890  0.019  0.600-   3 0.76
  14  0.824  0.795  0.610-  39 2.27 104 2.34  76 2.40
  15  0.128  0.047  0.631-  72 2.22  81 2.34
  16  0.276  0.755  0.650-  54 2.25  93 2.31  37 2.35
  17  0.940  0.967  0.513-  76 2.26  82 2.28  78 2.31  36 2.33
  18  0.642  0.208  0.629-   2 1.48   6 1.53  86 2.37
  19  0.953  0.150  0.440-   4 1.70  82 2.29  95 2.32  32 2.32 105 3.00
  20  0.617  0.634  0.459-  68 2.22 101 2.30  57 2.32  87 2.40
  21  0.531  0.474  0.379-  68 2.28  33 2.28  34 2.37
  22  0.977  0.368  0.391-  48 2.26  29 2.30  95 2.33
  23  0.437  0.452  0.564-  56 2.22  85 2.28  61 2.36  50 2.38
  24  0.488  0.924  0.647-  53 2.31  93 2.32  77 2.45
  25  0.297  0.927  0.560-  98 2.23  27 2.24  88 2.26  93 2.30
  26  0.442  0.126  0.554-   5 1.46  77 2.32  88 2.34  31 2.48
  27  0.434  0.880  0.534-  77 2.22  25 2.24 111 2.39  69 2.40
  28  0.673  0.109  0.511-  31 2.27  45 2.35  97 2.40  62 2.40
  29  0.966  0.461  0.456-  22 2.30  83 2.40  30 2.45  47 2.46
  30  0.830  0.444  0.505-  89 2.28  64 2.37 109 2.40  29 2.45
  31  0.558  0.213  0.508-  28 2.27  79 2.29  80 2.38  26 2.48
  32  0.812  0.164  0.404-  62 2.21  40 2.29  19 2.32
  33  0.462  0.419  0.445-  51 2.26  21 2.28  80 2.29  61 2.38
  34  0.430  0.586  0.350- 102 2.14  21 2.37
  35  0.154  0.715  0.518-  71 2.25  98 2.26  41 2.34  65 2.53
  36  0.077  0.932  0.475-  73 2.22  98 2.29  58 2.31  17 2.33
  37  0.120  0.790  0.644-  81 2.25  16 2.35  94 2.35
  38  0.280  0.263  0.485-  51 2.27  63 2.31  50 2.32  70 2.38
  39  0.736  0.923  0.614-  45 2.22  14 2.27  53 2.30
  40  0.727  0.291  0.387-  32 2.29 109 2.34
  41  0.227  0.687  0.447-  52 2.31  35 2.34  66 2.38  99 2.46
  42  0.036  0.603  0.363-  52 2.23  83 2.41  48 2.41
  43  0.781  0.573  0.364-  68 2.31  83 2.43
  44  0.055  0.460  0.570-  47 2.26  49 2.29  75 2.33  92 2.33
  45  0.663  0.967  0.550-  39 2.22  77 2.25 108 2.31  28 2.35
  46  0.603  0.872  0.427- 108 2.25  57 2.30  60 2.32 111 2.42
  47  0.113  0.459  0.497-  44 2.26  66 2.27  70 2.35  29 2.46
  48  0.084  0.447  0.351-  22 2.26  90 2.39  42 2.41
  49  0.173  0.500  0.619-  44 2.29  65 2.36
  50  0.334  0.327  0.554-   9 1.49  38 2.32  23 2.38  74 2.38
  51  0.384  0.289  0.428- 107 2.26  33 2.26  38 2.27  79 2.38
  52  0.168  0.678  0.372-  42 2.23  41 2.31
  53  0.620  0.836  0.646-  59 2.26  39 2.30  24 2.31
  54  0.350  0.654  0.604-  65 2.25  16 2.25  85 2.36  69 2.43
  55  0.151  0.064  0.356-  67 2.32  73 2.36 105 2.40
  56  0.588  0.454  0.556-  23 2.22  86 2.32  80 2.32
  57  0.600  0.728  0.394- 102 2.27  46 2.30  20 2.32
  58  0.019  0.879  0.405- 103 2.19  36 2.31 105 2.32
  59  0.591  0.715  0.599-  69 2.22  53 2.26 104 2.30
  60  0.642  0.985  0.374-  46 2.32  62 2.37
  61  0.385  0.524  0.495- 101 2.33  23 2.36  33 2.38  66 2.45  65 2.95
  62  0.722  0.058  0.435-  32 2.21  78 2.26  60 2.37  28 2.40
  63  0.289  0.106  0.473-  88 2.30  91 2.30  38 2.31  73 2.38
  64  0.822  0.532  0.575-  30 2.37  75 2.38 104 2.44 106 2.58
  65  0.241  0.590  0.560-  54 2.25  49 2.36  35 2.53  61 2.95  66 3.01
  66  0.232  0.526  0.460-  47 2.27  90 2.38  41 2.38  61 2.45  65 3.01
  67  0.169  0.222  0.355-  95 2.24  55 2.32 107 2.34
  68  0.665  0.523  0.412-  20 2.22  21 2.28 109 2.28  43 2.31
  69  0.466  0.724  0.555- 101 2.20  59 2.22  27 2.40  54 2.43
  70  0.122  0.300  0.484-  84 2.30  95 2.35  47 2.35  38 2.38
  71  0.999  0.712  0.518-  35 2.25 100 2.38  76 2.42  75 2.45
  72  0.171  0.165  0.588-  84 2.19  15 2.22  74 2.23  88 2.34
  73  0.173  0.020  0.435-  36 2.22  55 2.36  63 2.38  96 2.38
  74  0.269  0.261  0.622-  11 1.42  72 2.23  50 2.38
  75  0.972  0.595  0.578-  44 2.33  94 2.38  64 2.38  71 2.45
  76  0.948  0.846  0.562-  17 2.26  14 2.40  71 2.42  81 2.44
  77  0.515  0.988  0.569-  27 2.22  45 2.25  26 2.32  24 2.45
  78  0.824  0.950  0.459-  62 2.26  17 2.31 103 2.32 108 2.43
  79  0.503  0.178  0.436-   8 1.49  31 2.29  91 2.34  51 2.38
  80  0.585  0.369  0.488- 109 2.28  33 2.29  56 2.32  31 2.38
  81  0.088  0.907  0.596-  37 2.25  98 2.27  15 2.34  76 2.44
  82  0.956  0.122  0.519-  97 2.15  17 2.28  84 2.29  19 2.29
  83  0.909  0.595  0.416- 100 2.21  29 2.40  42 2.41  43 2.43
  84  0.058  0.226  0.548-  72 2.19  82 2.29  70 2.30  92 2.32
  85  0.435  0.529  0.633-  23 2.28  54 2.36
  86  0.682  0.343  0.588- 106 2.27  89 2.30  56 2.32  18 2.37
  87  0.733  0.722  0.498- 108 2.19 104 2.35 100 2.37  20 2.40
  88  0.288  0.081  0.553-  25 2.26  63 2.30  72 2.34  26 2.34
  89  0.822  0.320  0.553-  30 2.28  86 2.30  97 2.32  92 2.42 106 3.02
  90  0.233  0.449  0.386-  66 2.38  48 2.39 107 2.43
  91  0.407  0.050  0.429-  63 2.30 111 2.31  79 2.34 110 2.36  96 3.06
  92  0.972  0.329  0.590-  84 2.32  44 2.33  89 2.42
  93  0.332  0.901  0.637-  25 2.30  16 2.31  24 2.32
  94  0.008  0.674  0.648-  37 2.35  75 2.38
  95  0.068  0.244  0.413-  67 2.24  19 2.32  22 2.33  70 2.35
  96  0.270  0.893  0.419-  73 2.38  99 2.66 111 2.76  91 3.06
  97  0.819  0.164  0.538-  12 1.56  82 2.15  89 2.32  28 2.40
  98  0.169  0.867  0.531-  25 2.23  35 2.26  81 2.27  36 2.29
  99  0.381  0.751  0.434- 102 2.28 101 2.37  41 2.46 111 2.47  96 2.66
 100  0.879  0.713  0.462-  83 2.21 103 2.25  87 2.37  71 2.38
 101  0.469  0.659  0.485-  69 2.20  20 2.30  61 2.33  99 2.37
 102  0.455  0.728  0.365-  34 2.14  57 2.27  99 2.28
 103  0.877  0.831  0.412-  58 2.19 100 2.25  78 2.32
 104  0.737  0.677  0.577-  59 2.30  14 2.34  87 2.35  64 2.44
 105  0.995  0.014  0.365-   4 1.63  58 2.32  55 2.40  19 3.00
 106  0.767  0.424  0.640-  86 2.27  64 2.58  89 3.02
 107  0.304  0.308  0.361-  51 2.26  67 2.34  90 2.43
 108  0.694  0.866  0.490-  87 2.19  46 2.25  45 2.31  78 2.43
 109  0.718  0.395  0.449-  80 2.28  68 2.28  40 2.34  30 2.40
 110  0.370  0.040  0.349-  91 2.36
 111  0.448  0.903  0.451-  91 2.31  27 2.39  46 2.42  99 2.47  96 2.76

  LATTYP: Found a simple tetragonal cell.
 ALAT       =    14.5906239619
 C/A-ratio  =     1.9643590689
  
  Lattice vectors:
  
 A1 = (  14.5906239619,   0.0000000000,   0.0000000000)
 A2 = (   0.0000000000,  14.5906239619,   0.0000000000)
 A3 = (   0.0000000000,   0.0000000000,  28.6612245000)


Analysis of symmetry for initial positions (statically):
=====================================================================
 Subroutine PRICEL returns:
 Original cell was already a primitive cell.
 

 Routine SETGRP: Setting up the symmetry group for a 
 simple tetragonal supercell.


 Subroutine GETGRP returns: Found  1 space group operations
 (whereof  1 operations were pure point group operations)
 out of a pool of 16 trial point group operations.


The static configuration has the point symmetry C_1 .


Analysis of symmetry for dynamics (positions and initial velocities):
=====================================================================
 Subroutine PRICEL returns:
 Original cell was already a primitive cell.
 

 Routine SETGRP: Setting up the symmetry group for a 
 simple tetragonal supercell.


 Subroutine GETGRP returns: Found  1 space group operations
 (whereof  1 operations were pure point group operations)
 out of a pool of 16 trial point group operations.


The dynamic configuration has the point symmetry C_1 .


 Subroutine INISYM returns: Found  1 space group operations
 (whereof  1 operations are pure point group operations),
 and found     1 'primitive' translations


----------------------------------------------------------------------------------------

                                     Primitive cell                                     

  volume of cell :    6101.5823

  direct lattice vectors                    reciprocal lattice vectors
    14.590623962  0.000000000  0.000000000     0.068537165  0.000000000  0.000000000
     0.000000000 14.590623962  0.000000000     0.000000000  0.068537165  0.000000000
     0.000000000  0.000000000 28.661224500     0.000000000  0.000000000  0.034890345

  length of vectors
    14.590623962 14.590623962 28.661224500     0.068537165  0.068537165  0.034890345

  position of ions in fractional coordinates (direct lattice)
     0.417516072  0.315270273  0.651096554
     0.676217825  0.126690264  0.603127564
     0.939678799  0.027764131  0.607099131
     0.979910115  0.044054387  0.419027962
     0.438316416  0.179296650  0.596921967
     0.537948892  0.198840708  0.625820941
     0.832109719  0.219405284  0.647789996
     0.554367656  0.207242679  0.393286215
     0.251464229  0.385559933  0.548446020
     0.457312176  0.321834763  0.633784663
     0.325938083  0.204767802  0.650230924
     0.795168187  0.121991356  0.586437418
     0.890366309  0.019127080  0.599713892
     0.823850990  0.795051674  0.610209606
     0.127634706  0.046682788  0.630868528
     0.276022466  0.755306972  0.650221504
     0.939569139  0.967134787  0.512788785
     0.642120585  0.207749854  0.628931067
     0.952529517  0.149515881  0.440456216
     0.616598716  0.633686402  0.459226175
     0.531045829  0.474239485  0.379372783
     0.976764259  0.367704631  0.391056722
     0.436701680  0.452031388  0.563687518
     0.488097700  0.923668517  0.646737005
     0.297288862  0.927170766  0.560039732
     0.441998232  0.126060407  0.553818086
     0.433823119  0.879832147  0.533646582
     0.673479080  0.108675270  0.510918663
     0.965620116  0.460911748  0.455511400
     0.830444266  0.444129053  0.505346675
     0.558112526  0.212707833  0.508285838
     0.811733620  0.163538585  0.403552350
     0.461924042  0.418792234  0.444915900
     0.429512817  0.586353950  0.349573358
     0.153714468  0.714815215  0.518171319
     0.077313349  0.932461835  0.475374822
     0.119583645  0.790123851  0.643961478
     0.280080551  0.262783141  0.485153888
     0.735520292  0.922606191  0.614024516
     0.726836633  0.291385756  0.386952571
     0.227400145  0.687222152  0.446927677
     0.036170557  0.603292225  0.362744777
     0.780987847  0.572856927  0.363774601
     0.055226699  0.459954970  0.570295749
     0.662555626  0.967498034  0.550174836
     0.602876890  0.871655663  0.426799438
     0.112610674  0.459287418  0.497203966
     0.084326072  0.446597076  0.351292440
     0.173115283  0.500408346  0.618968827
     0.334209148  0.326611118  0.553782498
     0.384023330  0.288973934  0.427908951
     0.167953749  0.678137551  0.372497815
     0.619983081  0.836263071  0.646010588
     0.350176251  0.654265371  0.604342096
     0.150772168  0.064356124  0.356468249
     0.587862453  0.454049122  0.556337867
     0.599914029  0.727659079  0.394448412
     0.018901453  0.878872626  0.405456665
     0.590804069  0.715027680  0.598987126
     0.641870425  0.985064109  0.373738167
     0.384847832  0.524370995  0.494864918
     0.722347449  0.057808563  0.435136137
     0.288592867  0.106290862  0.473485859
     0.821582410  0.532267161  0.574740779
     0.241258359  0.589504604  0.559503119
     0.232321113  0.526039189  0.459515067
     0.169100376  0.222014494  0.354935202
     0.664655605  0.522588343  0.412329016
     0.466161010  0.723711339  0.554684762
     0.121523932  0.300430606  0.484327336
     0.999312986  0.712402707  0.518449395
     0.170877545  0.165262980  0.587745108
     0.172843191  0.020258832  0.434837824
     0.268549173  0.261236258  0.622151175
     0.972117439  0.595404283  0.578192830
     0.947848429  0.845611540  0.561546298
     0.514555102  0.988079745  0.569106686
     0.823563134  0.950171839  0.458553140
     0.502671443  0.177900548  0.435574708
     0.584613792  0.368857426  0.488053973
     0.088017483  0.907322403  0.595707085
     0.955860424  0.121706241  0.519108125
     0.909474470  0.595252816  0.416366178
     0.058354667  0.226296011  0.547530497
     0.435353554  0.528747778  0.633166057
     0.682443741  0.342761215  0.588142160
     0.732737683  0.722484523  0.497940501
     0.288268686  0.081137037  0.552548427
     0.822487101  0.319872544  0.553428012
     0.232576071  0.449309777  0.386345828
     0.406992190  0.050123422  0.428988807
     0.971582849  0.329312853  0.590254771
     0.331846672  0.901181473  0.637326382
     0.008129810  0.674371434  0.648346148
     0.067980643  0.243779842  0.412658032
     0.269656048  0.892566352  0.419225442
     0.819450904  0.163776409  0.537754572
     0.168850901  0.866851208  0.531161343
     0.381055671  0.751496305  0.434308887
     0.879208458  0.712670001  0.462386542
     0.469349359  0.658736050  0.485306010
     0.454971632  0.727652226  0.365334757
     0.876987854  0.831184467  0.412208296
     0.737315966  0.677028620  0.576651374
     0.995008852  0.014375465  0.364607154
     0.767431196  0.423612452  0.640019567
     0.304030863  0.307558471  0.360997364
     0.694007331  0.866385155  0.490189262
     0.718303756  0.394968030  0.449273704
     0.369849159  0.040177034  0.348903446
     0.447712176  0.903422639  0.451436906

  ion indices of the primitive-cell ions
   primitive index   ion index
                 1           1
                 2           2
                 3           3
                 4           4
                 5           5
                 6           6
                 7           7
                 8           8
                 9           9
                10          10
                11          11
                12          12
                13          13
                14          14
                15          15
                16          16
                17          17
                18          18
                19          19
                20          20
                21          21
                22          22
                23          23
                24          24
                25          25
                26          26
                27          27
                28          28
                29          29
                30          30
                31          31
                32          32
                33          33
                34          34
                35          35
                36          36
                37          37
                38          38
                39          39
                40          40
                41          41
                42          42
                43          43
                44          44
                45          45
                46          46
                47          47
                48          48
                49          49
                50          50
                51          51
                52          52
                53          53
                54          54
                55          55
                56          56
                57          57
                58          58
                59          59
                60          60
                61          61
                62          62
                63          63
                64          64
                65          65
                66          66
                67          67
                68          68
                69          69
                70          70
                71          71
                72          72
                73          73
                74          74
                75          75
                76          76
                77          77
                78          78
                79          79
                80          80
                81          81
                82          82
                83          83
                84          84
                85          85
                86          86
                87          87
                88          88
                89          89
                90          90
                91          91
                92          92
                93          93
                94          94
                95          95
                96          96
                97          97
                98          98
                99          99
               100         100
               101         101
               102         102
               103         103
               104         104
               105         105
               106         106
               107         107
               108         108
               109         109
               110         110
               111         111

----------------------------------------------------------------------------------------


 -----------------------------------------------------------------------------
|                                                                             |
|           W    W    AA    RRRRR   N    N  II  N    N   GGGG   !!!           |
|           W    W   A  A   R    R  NN   N  II  NN   N  G    G  !!!           |
|           W    W  A    A  R    R  N N  N  II  N N  N  G       !!!           |
|           W WW W  AAAAAA  RRRRR   N  N N  II  N  N N  G  GGG   !            |
|           WW  WW  A    A  R   R   N   NN  II  N   NN  G    G                |
|           W    W  A    A  R    R  N    N  II  N    N   GGGG   !!!           |
|                                                                             |
|     The requested file  could not be found or opened for reading            |
|     k-point information. Automatic k-point generation is used as a          |
|     fallback, which may lead to unwanted results.                           |
|                                                                             |
 -----------------------------------------------------------------------------



Automatic generation of k-mesh.
 Grid dimensions derived from KSPACING:
 generate k-points for:    2    2    1

 Generating k-lattice:

  Cartesian coordinates                     Fractional coordinates (reciprocal lattice)
     0.034268582  0.000000000  0.000000000     0.500000000  0.000000000  0.000000000
     0.000000000  0.034268582  0.000000000     0.000000000  0.500000000  0.000000000
     0.000000000  0.000000000  0.034890345     0.000000000  0.000000000  1.000000000

  Length of vectors
     0.034268582  0.034268582  0.034890345

  Shift w.r.t. Gamma in fractional coordinates (k-lattice)
     0.000000000  0.000000000  0.000000000

 
 Subroutine IBZKPT returns following result:
 ===========================================
 
 Found      4 irreducible k-points:
 
 Following reciprocal coordinates:
            Coordinates               Weight
  0.000000  0.000000  0.000000      1.000000
  0.500000  0.000000  0.000000      1.000000
  0.000000  0.500000  0.000000      1.000000
  0.500000  0.500000  0.000000      1.000000
 
 Following cartesian coordinates:
            Coordinates               Weight
  0.000000  0.000000  0.000000      1.000000
  0.034269  0.000000  0.000000      1.000000
  0.000000  0.034269  0.000000      1.000000
  0.034269  0.034269  0.000000      1.000000
 


--------------------------------------------------------------------------------------------------------




 Dimension of arrays:
   k-points           NKPTS =      4   k-points in BZ     NKDIM =      4   number of bands    NBANDS=    264
   number of dos      NEDOS =   2000   number of ions     NIONS =    111
   non local maximal  LDIM  =      4   non local SUM 2l+1 LMDIM =      8
   total plane-waves  NPLWV = ******
   max r-space proj   IRMAX =      1   max aug-charges    IRDMAX= 401030
   dimension x,y,z NGX =   168 NGY =  168 NGZ =  324
   dimension x,y,z NGXF=   336 NGYF=  336 NGZF=  648
   support grid    NGXF=   672 NGYF=  672 NGZF= 1296
   ions per type =              13  98
   NGX,Y,Z   is equivalent  to a cutoff of  19.14, 19.14, 18.79 a.u.
   NGXF,Y,Z  is equivalent  to a cutoff of  38.28, 38.28, 37.59 a.u.

 SYSTEM =  a-Si SPC                                
 POSCAR =   H Si                                   

 Startparameter for this run:
   NWRITE =      2    write-flag & timer
   PREC   = accura    normal or accurate (medium, high low for compatibility)
   ISTART =      1    job   : 0-new  1-cont  2-samecut
   ICHARG =      1    charge: 1-file 2-atom 10-const
   ISPIN  =      1    spin polarized calculation?
   LNONCOLLINEAR =      F non collinear calculations
   LSORBIT =      F    spin-orbit coupling
   INIWAV =      1    electr: 0-lowe 1-rand  2-diag
   LASPH  =      T    aspherical Exc in radial PAW
 Electronic Relaxation 1
   ENCUT  = 1200.0 eV  88.20 Ry    9.39 a.u.  41.21 41.21 80.95*2*pi/ulx,y,z
   ENINI  = 1200.0     initial cutoff
   ENAUG  =  400.0 eV  augmentation charge cutoff
   NELM   =    150;   NELMIN=  2; NELMDL=  0     # of ELM steps 
   EDIFF  = 0.1E-05   stopping-criterion for ELM
   LREAL  =      F    real-space projection
   NLSPLINE    = F    spline interpolate recip. space projectors
   LCOMPAT=      F    compatible to vasp.4.4
   GGA_COMPAT  = T    GGA compatible to vasp.4.4-vasp.4.6
   LMAXPAW     = -100 max onsite density
   LMAXMIX     =    2 max onsite mixed and CHGCAR
   VOSKOWN=      0    Vosko Wilk Nusair interpolation
   ROPT   =    0.00000   0.00000
 Ionic relaxation
   EDIFFG = -.1E-01   stopping-criterion for IOM
   NSW    =      0    number of steps for IOM
   NBLOCK =      1;   KBLOCK =      1    inner block; outer block 
   IBRION =     -1    ionic relax: 0-MD 1-quasi-New 2-CG
   NFREE  =      0    steps in history (QN), initial steepest desc. (CG)
   ISIF   =      2    stress and relaxation
   IWAVPR =     10    prediction:  0-non 1-charg 2-wave 3-comb
   ISYM   =      1    0-nonsym 1-usesym 2-fastsym
   LCORR  =      T    Harris-Foulkes like correction to forces

   POTIM  = 0.5000    time-step for ionic-motion
   TEIN   =    0.0    initial temperature
   TEBEG  =    0.0;   TEEND  =   0.0 temperature during run
   SMASS  =  -3.00    Nose mass-parameter (am)
   estimated Nose-frequenzy (Omega)   =  0.10E-29 period in steps = 0.13E+47 mass=  -0.487E-26a.u.
   SCALEE = 1.0000    scale energy and forces
   NPACO  =    256;   APACO  = 10.0  distance and # of slots for P.C.
   PSTRESS=    0.0 pullay stress

  Mass of Ions in am
   POMASS =   1.00 28.09
  Ionic Valenz
   ZVAL   =   1.00  4.00
  Atomic Wigner-Seitz radii
   RWIGS  =  -1.00 -1.00
  virtual crystal weights 
   VCA    =   1.00  1.00
   NELECT =     405.0000    total number of electrons
   NUPDOWN=      -1.0000    fix difference up-down

 DOS related values:
   EMIN   =  10.00;   EMAX   =-10.00  energy-range for DOS
   EFERMI =   0.00;   METHOD = LEGACY      
   ISMEAR =     0;   SIGMA  =   0.10  broadening in eV -4-tet -1-fermi 0-gaus
   EFERMI_NEDOS =   21; number of points for ismear=-14 and -15

 Electronic relaxation 2 (details)
   IALGO  =     38    algorithm
   LDIAG  =      F    sub-space diagonalisation (order eigenvalues)
   LSUBROT=      F    optimize rotation matrix (better conditioning)
   TURBO    =      0    0=normal 1=particle mesh
   IRESTART =      0    0=no restart 2=restart with 2 vectors
   NREBOOT  =      0    no. of reboots
   NMIN     =      0    reboot dimension
   EREF     =   0.00    reference energy to select bands
   IMIX   =      4    mixing-type and parameters
     AMIX     =   0.40;   BMIX     =  1.00
     AMIX_MAG =   1.60;   BMIX_MAG =  1.00
     AMIN     =   0.10
     WC   =   100.;   INIMIX=   1;  MIXPRE=   1;  MAXMIX= -45

 Intra band minimization:
   WEIMIN = 0.0000     energy-eigenvalue tresh-hold
   EBREAK =  0.95E-09  absolut break condition
   DEPER  =   0.30     relativ break condition  

   TIME   =   0.40     timestep for ELM

  volume/ion in A,a.u.               =      54.97       370.95
  Fermi-wavevector in a.u.,A,eV,Ry     =   0.662846  1.252596  5.977913  0.439364
  Thomas-Fermi vector in A             =   1.736041

 Write flags
   LWAVE        =      F    write WAVECAR
   LDOWNSAMPLE  =      F    k-point downsampling of WAVECAR
   LCHARG       =      F    write CHGCAR
   LVTOT        =      F    write LOCPOT, total local potential
   LVHAR        =      F    write LOCPOT, Hartree potential only
   WRT_POTENTIAL= false  ! write potential to hdf5 file
   LELF         =      F    write electronic localiz. function (ELF)
   LORBIT       =     11    0 simple, 1 ext, 2 COOP (PROOUT), +10 PAW based schemes


 Python interface
   PLUGINS active      =      F    recompile with -DPLUGINS to activate

 Dipole corrections
   LMONO      =      F    monopole corrections only (constant potential shift)
   LDIPOL     =      F    correct potential (dipole corrections)
   IDIPOL     =      0    1-x, 2-y, 3-z, 4-all directions 
   EPSILON    =  1.0000000 bulk dielectric constant
   LVACPOTAV  =      F  vacuum potentials using an averaging scheme for the charge density
   VACPOTFLAT =  0.1000000 required flatness to determine vacuum potential

Coulomb truncation method
  LTRUNCATE          =      F  Coulomb kernel truncation to be used
  IDIMENSIONALITY    =      3  Dimensionality of cutoff (0 molecules / 2 surfaces)
  ISURFACE           =     -1  Direction of surface normal
  LCOARSEN           =      F  Coarsen the charge grid before padding, preferred


 Exchange correlation treatment:
   METAGGA = SCAN    functional components
   XC_C    = 1    coefficients multiplying the functional components
   LIBXC   =     F    Libxc                    
   VOSKOWN =     0    Vosko Wilk Nusair interpolation
   LHFCALC =     F    Hartree Fock is set to
   LHFONE  =     F    Hartree Fock one center treatment
   AEXX    =    0.0000 exact exchange contribution

 Parameters of functionals:
   SCAN:
     P1 =  0.000000E+00
     P2 =  0.000000E+00
     P3 =  0.000000E+00

 Accuracy and mixing parameters for tau-dependent meta-GGA functionals:
   LMAXTAU = 6
   LMIXTAU = T

 Van der Waals corrections
   IVDW    =     0    specifies the selected vdW correction

 Linear response parameters
   LEPSILON=     F    determine dielectric tensor
   LRPA    =     F    only Hartree local field effects (RPA)
   LNABLA  =     F    use nabla operator in PAW spheres
   LVEL    =     F    velocity operator in full k-point grid
   CSHIFT  =0.1000    complex shift for real part using Kramers Kronig
   OMEGAMAX=  -1.0    maximum frequency
   DEG_THRESHOLD= 0.2000000E-02 threshold for treating states as degnerate
   RTIME   =   -0.100 relaxation time in fs
  (WPLASMAI=    0.000 imaginary part of plasma frequency in eV, 0.658/RTIME)
   DFIELD  = 0.0000000 0.0000000 0.0000000 field for delta impulse in time

  Optional k-point grid parameters
   LKPOINTS_OPT  =     F    use optional k-point grid
   KPOINTS_OPT_MODE=     1    mode for optional k-point grid

 Orbital magnetization related:
   ORBITALMAG=     F  switch on orbital magnetization
   LCHIMAG   =     F  perturbation theory with respect to B field
   DQ        =  0.001000  dq finite difference perturbation B field
   LLRAUG    =     F  two centre corrections for induced B field
   LBONE     =     F  B-component reconstruction in AE one-centre
   LVGVCALC  =     T  calculate vGv susceptibility
   LVGVAPPL  =     F  apply vGv susceptibility instead of pGv for G=0

 Random number generation:
   RANDOM_GENERATOR = DEFAULT
   PCG_SEED         = not used


--------------------------------------------------------------------------------------------------------


 Static calculation
 charge density and potential will be updated during run
 non-spin polarized calculation
 Variant of blocked Davidson
 perform Loewdin sub-space diagonalisation
    ordering is kept fixed
    before iterative eigenvector-optimisation
 modified Broyden-mixing scheme, WC =      100.0
 initial mixing is a Kerker type mixing with AMIX =  0.4000 and BMIX =      1.0000
 Hartree-type preconditioning will be used
 using additional bands           61
 reciprocal scheme for non local part
 use partial core corrections
 calculate Harris-corrections to forces   (improved forces if not selfconsistent)
 use gradient corrections 
 use of overlap-Matrix (Vanderbilt PP)
 Gauss-broadening in eV      SIGMA  =   0.10


--------------------------------------------------------------------------------------------------------


  energy-cutoff  :     1200.00
  volume of cell :     6101.58
      direct lattice vectors                 reciprocal lattice vectors
    14.590623962  0.000000000  0.000000000     0.068537165  0.000000000  0.000000000
     0.000000000 14.590623962  0.000000000     0.000000000  0.068537165  0.000000000
     0.000000000  0.000000000 28.661224500     0.000000000  0.000000000  0.034890345

  length of vectors
    14.590623962 14.590623962 28.661224500     0.068537165  0.068537165  0.034890345



 old parameters found on file WAVECAR:
  energy-cutoff  :     1200.00
  volume of cell :     6101.58
      direct lattice vectors                 reciprocal lattice vectors
    14.590623962  0.000000000  0.000000000     0.068537165  0.000000000  0.000000000
     0.000000000 14.590623962  0.000000000     0.000000000  0.068537165  0.000000000
     0.000000000  0.000000000 28.661224500     0.000000000  0.000000000  0.034890345

  length of vectors


 k-points in units of 2pi/SCALE and weight: read from INCAR                         
   0.00000000  0.00000000  0.00000000       0.250
   0.03426858  0.00000000  0.00000000       0.250
   0.00000000  0.03426858  0.00000000       0.250
   0.03426858  0.03426858  0.00000000       0.250

 k-points in reciprocal lattice and weights: read from INCAR                         
   0.00000000  0.00000000  0.00000000       0.250
   0.50000000  0.00000000  0.00000000       0.250
   0.00000000  0.50000000  0.00000000       0.250
   0.50000000  0.50000000  0.00000000       0.250

 position of ions in fractional coordinates (direct lattice) 
   0.41751607  0.31527027  0.65109655
   0.67621782  0.12669026  0.60312756
   0.93967880  0.02776413  0.60709913
   0.97991011  0.04405439  0.41902796
   0.43831642  0.17929665  0.59692197
   0.53794889  0.19884071  0.62582094
   0.83210972  0.21940528  0.64779000
   0.55436766  0.20724268  0.39328621
   0.25146423  0.38555993  0.54844602
   0.45731218  0.32183476  0.63378466
   0.32593808  0.20476780  0.65023092
   0.79516819  0.12199136  0.58643742
   0.89036631  0.01912708  0.59971389
   0.82385099  0.79505167  0.61020961
   0.12763471  0.04668279  0.63086853
   0.27602247  0.75530697  0.65022150
   0.93956914  0.96713479  0.51278879
   0.64212059  0.20774985  0.62893107
   0.95252952  0.14951588  0.44045622
   0.61659872  0.63368640  0.45922618
   0.53104583  0.47423949  0.37937278
   0.97676426  0.36770463  0.39105672
   0.43670168  0.45203139  0.56368752
   0.48809770  0.92366852  0.64673701
   0.29728886  0.92717077  0.56003973
   0.44199823  0.12606041  0.55381809
   0.43382312  0.87983215  0.53364658
   0.67347908  0.10867527  0.51091866
   0.96562012  0.46091175  0.45551140
   0.83044427  0.44412905  0.50534667
   0.55811253  0.21270783  0.50828584
   0.81173362  0.16353859  0.40355235
   0.46192404  0.41879223  0.44491590
   0.42951282  0.58635395  0.34957336
   0.15371447  0.71481521  0.51817132
   0.07731335  0.93246184  0.47537482
   0.11958365  0.79012385  0.64396148
   0.28008055  0.26278314  0.48515389
   0.73552029  0.92260619  0.61402452
   0.72683663  0.29138576  0.38695257
   0.22740014  0.68722215  0.44692768
   0.03617056  0.60329223  0.36274478
   0.78098785  0.57285693  0.36377460
   0.05522670  0.45995497  0.57029575
   0.66255563  0.96749803  0.55017484
   0.60287689  0.87165566  0.42679944
   0.11261067  0.45928742  0.49720397
   0.08432607  0.44659708  0.35129244
   0.17311528  0.50040835  0.61896883
   0.33420915  0.32661112  0.55378250
   0.38402333  0.28897393  0.42790895
   0.16795375  0.67813755  0.37249781
   0.61998308  0.83626307  0.64601059
   0.35017625  0.65426537  0.60434210
   0.15077217  0.06435612  0.35646825
   0.58786245  0.45404912  0.55633787
   0.59991403  0.72765908  0.39444841
   0.01890145  0.87887263  0.40545666
   0.59080407  0.71502768  0.59898713
   0.64187042  0.98506411  0.37373817
   0.38484783  0.52437099  0.49486492
   0.72234745  0.05780856  0.43513614
   0.28859287  0.10629086  0.47348586
   0.82158241  0.53226716  0.57474078
   0.24125836  0.58950460  0.55950312
   0.23232111  0.52603919  0.45951507
   0.16910038  0.22201449  0.35493520
   0.66465561  0.52258834  0.41232902
   0.46616101  0.72371134  0.55468476
   0.12152393  0.30043061  0.48432734
   0.99931299  0.71240271  0.51844939
   0.17087754  0.16526298  0.58774511
   0.17284319  0.02025883  0.43483782
   0.26854917  0.26123626  0.62215118
   0.97211744  0.59540428  0.57819283
   0.94784843  0.84561154  0.56154630
   0.51455510  0.98807974  0.56910669
   0.82356313  0.95017184  0.45855314
   0.50267144  0.17790055  0.43557471
   0.58461379  0.36885743  0.48805397
   0.08801748  0.90732240  0.59570709
   0.95586042  0.12170624  0.51910812
   0.90947447  0.59525282  0.41636618
   0.05835467  0.22629601  0.54753050
   0.43535355  0.52874778  0.63316606
   0.68244374  0.34276122  0.58814216
   0.73273768  0.72248452  0.49794050
   0.28826869  0.08113704  0.55254843
   0.82248710  0.31987254  0.55342801
   0.23257607  0.44930978  0.38634583
   0.40699219  0.05012342  0.42898881
   0.97158285  0.32931285  0.59025477
   0.33184667  0.90118147  0.63732638
   0.00812981  0.67437143  0.64834615
   0.06798064  0.24377984  0.41265803
   0.26965605  0.89256635  0.41922544
   0.81945090  0.16377641  0.53775457
   0.16885090  0.86685121  0.53116134
   0.38105567  0.75149631  0.43430889
   0.87920846  0.71267000  0.46238654
   0.46934936  0.65873605  0.48530601
   0.45497163  0.72765223  0.36533476
   0.87698785  0.83118447  0.41220830
   0.73731597  0.67702862  0.57665137
   0.99500885  0.01437546  0.36460715
   0.76743120  0.42361245  0.64001957
   0.30403086  0.30755847  0.36099736
   0.69400733  0.86638515  0.49018926
   0.71830376  0.39496803  0.44927370
   0.36984916  0.04017703  0.34890345
   0.44771218  0.90342264  0.45143691

 position of ions in cartesian coordinates  (Angst):
   6.09182000  4.59999000 18.66122450
   9.86644000  1.84849000 17.28637450
  13.71050000  0.40509600 17.40020450
  14.29750000  0.64278100 12.00985450
   6.39531000  2.61605000 17.10851450
   7.84901000  2.90121000 17.93679450
  12.14100000  3.20126000 18.56645450
   8.08857000  3.02380000 11.27206450
   3.66902000  5.62556000 15.71913450
   6.67247000  4.69577000 18.16504450
   4.75564000  2.98769000 18.63641450
  11.60200000  1.77993000 16.80801450
  12.99100000  0.27907604 17.18853450
  12.02050000 11.60030000 17.48935450
   1.86227000  0.68113100 18.08146450
   4.02734000 11.02040000 18.63614450
  13.70890000 14.11110000 14.69715450
   9.36894000  3.03120000 18.02593450
  13.89800000  2.18153000 12.62401450
   8.99656000  9.24588000 13.16198450
   7.74829000  6.91945000 10.87328850
  14.25160000  5.36504000 11.20816450
   6.37175000  6.59542000 16.15597450
   7.12165000 13.47690000 18.53627450
   4.33763000 13.52800000 16.05142450
   6.44903000  1.83930000 15.87310450
   6.32975000 12.83730000 15.29496450
   9.82648000  1.58564000 14.64355450
  14.08900000  6.72499000 13.05551450
  12.11670000  6.48012000 14.48385450
   8.14321000  3.10354000 14.56809450
  11.84370000  2.38613000 11.56630450
   6.73976000  6.11044000 12.75183450
   6.26686000  8.55527000 10.01920050
   2.24279000 10.42960000 14.85142450
   1.12805000 13.60520000 13.62482450
   1.74480000 11.52840000 18.45672450
   4.08655000  3.83417000 13.90510450
  10.73170000 13.46140000 17.59869450
  10.60500000  4.25150000 11.09053450
   3.31791000 10.02700000 12.80949450
   0.52775100  8.80241000 10.39670950
  11.39510000  8.35834000 10.42622550
   0.80579200  6.71103000 16.34537450
   9.66710000 14.11640000 15.76868450
   8.79635000 12.71800000 12.23259450
   1.64306000  6.70129000 14.25047450
   1.23037000  6.51613000 10.06847150
   2.52586000  7.30127000 17.74040450
   4.87632000  4.76546000 15.87208450
   5.60314000  4.21631000 12.26439450
   2.45055000  9.89445000 10.67624350
   9.04594000 12.20160000 18.51545450
   5.10929000  9.54614000 17.32118450
   2.19986000  0.93899600 10.21681650
   8.57728000  6.62486000 15.94532450
   8.75312000 10.61700000 11.30537450
   0.27578400 12.82330000 11.62088450
   8.62020000 10.43270000 17.16770450
   9.36529000 14.37270000 10.71179350
   5.61517000  7.65090000 14.18343450
  10.53950000  0.84346300 12.47153450
   4.21075000  1.55085000 13.57068450
  11.98740000  7.76611000 16.47277450
   3.52011000  8.60124000 16.03604450
   3.38971000  7.67524000 13.17026450
   2.46728000  3.23933000 10.17287750
   9.69774000  7.62489000 11.81785450
   6.80158000 10.55940000 15.89794450
   1.77311000  4.38347000 13.88141450
  14.58060000 10.39440000 14.85939450
   2.49321000  2.41129000 16.84549450
   2.52189000  0.29558900 12.46298450
   3.91830000  3.81160000 17.83161450
  14.18380000  8.68732000 16.57171450
  13.82970000 12.33800000 16.09460450
   7.50768000 14.41670000 16.31129450
  12.01630000 13.86360000 13.14269450
   7.33429000  2.59568000 12.48410450
   8.52988000  5.38186000 13.98822450
   1.28423000 13.23840000 17.07369450
  13.94660000  1.77577000 14.87827450
  13.26980000  8.68511000 11.93356450
   0.85143100  3.30180000 15.69289450
   6.35208000  7.71476000 18.14731450
   9.95728000  5.00110000 16.85687450
  10.69110000 10.54150000 14.27158450
   4.20602000  1.18384000 15.83671450
  12.00060000  4.66714000 15.86192450
   3.39343000  6.55571000 11.07314450
   5.93827000  0.73133200 12.29534450
  14.17600000  4.80488000 16.91742450
   4.84185000 13.14880000 18.26655450
   0.11861900  9.83950000 18.58239450
   0.99188000  3.55690000 11.82728450
   3.93445000 13.02310000 12.01551450
  11.95630000  2.38960000 15.41270450
   2.46364000 12.64790000 15.22373450
   5.55984000 10.96480000 12.44782450
  12.82820000 10.39830000 13.25256450
   6.84810000  9.61137000 13.90946450
   6.63832000 10.61690000 10.47094150
  12.79580000 12.12750000 11.81439450
  10.75790000  9.87827000 16.52753450
  14.51780000  0.20974700 10.45008750
  11.19730000  6.18077000 18.34374450
   4.43600000  4.48747000 10.34662650
  10.12600000 12.64110000 14.04942450
  10.48050000  5.76283000 12.87673450
   5.39633000  0.58620800 10.00000000
   6.53240000 13.18150000 12.93873450



--------------------------------------------------------------------------------------------------------


 k-point     1 :   0.0000 0.0000 0.0000  plane waves:  575953
 k-point     2 :   0.5000 0.0000 0.0000  plane waves:  575966
 k-point     3 :   0.0000 0.5000 0.0000  plane waves:  575966
 k-point     4 :   0.5000 0.5000 0.0000  plane waves:  576116

 maximum and minimum number of plane-waves per node :     36052    35947

 maximum number of plane-waves:    576116
 maximum index in each direction: 
   IXMAX=   41   IYMAX=   41   IZMAX=   80
   IXMIN=  -41   IYMIN=  -41   IZMIN=  -80


 parallel 3D FFT for wavefunctions:
    minimum data exchange during FFTs selected (reduces bandwidth)
 parallel 3D FFT for charge:
    minimum data exchange during FFTs selected (reduces bandwidth)


 total amount of memory used by VASP MPI-rank0   383877. kBytes
=======================================================================

   base                                    :      30000. kBytes
   nonl-proj                               :      82404. kBytes
   fftplans                                :     110229. kBytes
   grid                                    :      85039. kBytes
   one-center                              :         21. kBytes
   wavefun                                 :      76184. kBytes

     INWAV:  cpu time     22.4597: real time     22.4740
 Broyden mixing: mesh for mixing (old mesh)
   NGX = 83   NGY = 83   NGZ =161
  (NGX  =336   NGY  =336   NGZ  =648)
  gives a total of ****** points

 initial charge density was supplied:
 number of electron     404.9999999 magnetization 
 keeping initial charge density in first step


--------------------------------------------------------------------------------------------------------


 Maximum index for augmentation-charges        11221 (set IRDMAX)


--------------------------------------------------------------------------------------------------------


 First call to EWALD:  gamma=   0.097
 Maximum number of real-space cells   3x   3x   2
 Maximum number of reciprocal cells   2x   2x   4

    FEWALD:  cpu time      0.0194: real time      0.0194


--------------------------------------- Ionic step        1  -------------------------------------------




--------------------------------------- Iteration      1(   1)  ---------------------------------------


    POTLOK:  cpu time      2.2048: real time      2.2056
    SETDIJ:  cpu time      1.7974: real time      1.7993
    EDDIAG:  cpu time     44.8574: real time     44.8847
     EDDAV:  cpu time    211.3091: real time    211.4139
       DOS:  cpu time      0.0069: real time      0.0072
    CHARGE:  cpu time     25.8811: real time     25.9037
    MIXING:  cpu time      0.0533: real time      0.0534
    --------------------------------------------
      LOOP:  cpu time    286.1100: real time    286.2678

 eigenvalue-minimisations  :  2112
 total energy-change (2. order) :-0.1017225E+04  (-0.1088117E+01)
 number of electron     404.9999999 magnetization 
 augmentation part      -22.3318898 magnetization 

 Broyden mixing:
  rms(total) = 0.12220E+01    rms(broyden)= 0.30086E+02
  rms(prec ) = 0.12598E+01
  weight for this iteration     100.00
  WARNING: grid for Broyden might be to small

 Free energy of the ion-electron system (eV)
  ---------------------------------------------------
  alpha Z        PSCENC =        56.84572013
  Ewald energy   TEWEN  =     67684.98381430
  -Hartree energ DENC   =    -76819.03647029
  -exchange      EXHF   =         0.00000000
  -V(xc)+E(xc)   XCENC  =      -442.36830572
  PAW double counting   =     38238.58029560   -37262.37123885
  entropy T*S    EENTRO =        -0.24112546
  eigenvalues    EBANDS =     -2736.51626070
  atomic energy  EATOM  =     10262.89861323
  Solvation  Ediel_sol  =         0.00000000
  ---------------------------------------------------
  free energy    TOTEN  =     -1017.22495775 eV

  energy without entropy =    -1016.98383230  energy(sigma->0) =    -1017.10439503


--------------------------------------------------------------------------------------------------------




--------------------------------------- Iteration      1(   2)  ---------------------------------------


    POTLOK:  cpu time      2.1823: real time      2.1919
    SETDIJ:  cpu time      1.7887: real time      1.7894
    EDDIAG:  cpu time     44.8316: real time     44.8597
     EDDAV:  cpu time    212.8705: real time    212.9829
       DOS:  cpu time      0.0066: real time      0.0066
    CHARGE:  cpu time     25.7085: real time     25.7321
    MIXING:  cpu time      0.0473: real time      0.0473
    --------------------------------------------
      LOOP:  cpu time    287.4355: real time    287.6099

 eigenvalue-minimisations  :  2144
 total energy-change (2. order) : 0.7187405E+02  (-0.1097871E+01)
 number of electron     404.9999999 magnetization 
 augmentation part      -22.2543604 magnetization 

 Broyden mixing:
  rms(total) = 0.82686E+00    rms(broyden)= 0.17415E+02
  rms(prec ) = 0.84703E+00
  weight for this iteration     100.00
  WARNING: grid for Broyden might be to small

 eigenvalues of (default mixing * dielectric matrix)
  average eigenvalue GAMMA=   0.6334
  0.6334

 Free energy of the ion-electron system (eV)
  ---------------------------------------------------
  alpha Z        PSCENC =        56.84572013
  Ewald energy   TEWEN  =     67684.98381430
  -Hartree energ DENC   =    -76804.28374664
  -exchange      EXHF   =         0.00000000
  -V(xc)+E(xc)   XCENC  =      -432.30133914
  PAW double counting   =     45505.90919336   -44529.46902748
  entropy T*S    EENTRO =        -0.22218403
  eigenvalues    EBANDS =     -2689.71194855
  atomic energy  EATOM  =     10262.89861323
  Solvation  Ediel_sol  =         0.00000000
  ---------------------------------------------------
  free energy    TOTEN  =      -945.35090482 eV

  energy without entropy =     -945.12872078  energy(sigma->0) =     -945.23981280


--------------------------------------------------------------------------------------------------------




--------------------------------------- Iteration      1(   3)  ---------------------------------------


    POTLOK:  cpu time      2.1795: real time      2.1878
    SETDIJ:  cpu time      1.7861: real time      1.7874
    EDDIAG:  cpu time     44.8158: real time     44.8477
     EDDAV:  cpu time    211.7241: real time    211.8400
       DOS:  cpu time      0.0038: real time      0.0038
    CHARGE:  cpu time     25.7318: real time     25.7563
    MIXING:  cpu time      0.0430: real time      0.0430
    --------------------------------------------
      LOOP:  cpu time    286.2840: real time    286.4660

 eigenvalue-minimisations  :  2128
 total energy-change (2. order) :-0.3711120E+01  (-0.8886154E+00)
 number of electron     404.9999999 magnetization 
 augmentation part      -22.1848141 magnetization 

 Broyden mixing:
  rms(total) = 0.36718E+00    rms(broyden)= 0.24772E+02
  rms(prec ) = 0.46607E+00
  weight for this iteration     100.00
  WARNING: grid for Broyden might be to small

 eigenvalues of (default mixing * dielectric matrix)
  average eigenvalue GAMMA=   0.7399
  0.8556  0.6243

 Free energy of the ion-electron system (eV)
  ---------------------------------------------------
  alpha Z        PSCENC =        56.84572013
  Ewald energy   TEWEN  =     67684.98381430
  -Hartree energ DENC   =    -76802.06090009
  -exchange      EXHF   =         0.00000000
  -V(xc)+E(xc)   XCENC  =      -436.34042872
  PAW double counting   =     53847.46505603   -52871.20087014
  entropy T*S    EENTRO =        -0.23744843
  eigenvalues    EBANDS =     -2691.41558126
  atomic energy  EATOM  =     10262.89861323
  Solvation  Ediel_sol  =         0.00000000
  ---------------------------------------------------
  free energy    TOTEN  =      -949.06202495 eV

  energy without entropy =     -948.82457653  energy(sigma->0) =     -948.94330074


--------------------------------------------------------------------------------------------------------




--------------------------------------- Iteration      1(   4)  ---------------------------------------


    POTLOK:  cpu time      2.1621: real time      2.1919
    SETDIJ:  cpu time      1.7824: real time      1.7833
    EDDIAG:  cpu time     44.8437: real time     44.8726
     EDDAV:  cpu time    235.0251: real time    235.1533
       DOS:  cpu time      0.0024: real time      0.0024
    CHARGE:  cpu time     25.7203: real time     25.7418
    MIXING:  cpu time      0.0426: real time      0.0426
    --------------------------------------------
      LOOP:  cpu time    309.5785: real time    309.7878

 eigenvalue-minimisations  :  2536
 total energy-change (2. order) : 0.1784984E+00  (-0.2122394E+00)
 number of electron     404.9999999 magnetization 
 augmentation part      -22.1851739 magnetization 

 Broyden mixing:
  rms(total) = 0.19153E+00    rms(broyden)= 0.96148E+00
  rms(prec ) = 0.35670E+00
  weight for this iteration     100.00
  WARNING: grid for Broyden might be to small

 eigenvalues of (default mixing * dielectric matrix)
  average eigenvalue GAMMA=   0.8367
  1.3383  0.6321  0.5397

 Free energy of the ion-electron system (eV)
  ---------------------------------------------------
  alpha Z        PSCENC =        56.84572013
  Ewald energy   TEWEN  =     67684.98381430
  -Hartree energ DENC   =    -76805.08629752
  -exchange      EXHF   =         0.00000000
  -V(xc)+E(xc)   XCENC  =      -437.23577804
  PAW double counting   =     60333.63608689   -59357.44624035
  entropy T*S    EENTRO =        -0.19906231
  eigenvalues    EBANDS =     -2687.28038291
  atomic energy  EATOM  =     10262.89861323
  Solvation  Ediel_sol  =         0.00000000
  ---------------------------------------------------
  free energy    TOTEN  =      -948.88352658 eV

  energy without entropy =     -948.68446427  energy(sigma->0) =     -948.78399542


--------------------------------------------------------------------------------------------------------




--------------------------------------- Iteration      1(   5)  ---------------------------------------


    POTLOK:  cpu time      2.1545: real time      2.1869
    SETDIJ:  cpu time      1.7904: real time      1.7914
    EDDIAG:  cpu time     44.8096: real time     44.8379
     EDDAV:  cpu time    232.2220: real time    232.3471
       DOS:  cpu time      0.0024: real time      0.0024
    CHARGE:  cpu time     25.6780: real time     25.7018
    MIXING:  cpu time      0.0438: real time      0.0437
    --------------------------------------------
      LOOP:  cpu time    306.7005: real time    306.9111

 eigenvalue-minimisations  :  2488
 total energy-change (2. order) : 0.1897613E+00  (-0.1040090E+00)
 number of electron     404.9999999 magnetization 
 augmentation part      -22.1825076 magnetization 

 Broyden mixing:
  rms(total) = 0.69393E-01    rms(broyden)= 0.19249E+01
  rms(prec ) = 0.11009E+00
  weight for this iteration     100.00
  WARNING: grid for Broyden might be to small

 eigenvalues of (default mixing * dielectric matrix)
  average eigenvalue GAMMA=   0.9770
  2.2722  0.7345  0.6183  0.2831

 Free energy of the ion-electron system (eV)
  ---------------------------------------------------
  alpha Z        PSCENC =        56.84572013
  Ewald energy   TEWEN  =     67684.98381430
  -Hartree energ DENC   =    -76806.57687540
  -exchange      EXHF   =         0.00000000
  -V(xc)+E(xc)   XCENC  =      -438.31409263
  PAW double counting   =     60502.85093959   -59526.65392689
  entropy T*S    EENTRO =        -0.22670118
  eigenvalues    EBANDS =     -2684.50125648
  atomic energy  EATOM  =     10262.89861323
  Solvation  Ediel_sol  =         0.00000000
  ---------------------------------------------------
  free energy    TOTEN  =      -948.69376532 eV

  energy without entropy =     -948.46706414  energy(sigma->0) =     -948.58041473


--------------------------------------------------------------------------------------------------------




--------------------------------------- Iteration      1(   6)  ---------------------------------------


    POTLOK:  cpu time      2.1648: real time      2.1865
    SETDIJ:  cpu time      1.7936: real time      1.7950
    EDDIAG:  cpu time     44.8008: real time     44.8296
     EDDAV:  cpu time    216.8724: real time    216.9969
       DOS:  cpu time      0.0127: real time      0.0129
    CHARGE:  cpu time     25.6867: real time     25.7107
    MIXING:  cpu time      0.0607: real time      0.0609
    --------------------------------------------
      LOOP:  cpu time    291.3916: real time    291.5924

 eigenvalue-minimisations  :  2216
 total energy-change (2. order) :-0.6372989E-02  (-0.2750286E-01)
 number of electron     404.9999999 magnetization 
 augmentation part      -22.1815838 magnetization 

 Broyden mixing:
  rms(total) = 0.34924E-01    rms(broyden)= 0.21326E+00
  rms(prec ) = 0.40835E-01
  weight for this iteration     100.00
  WARNING: grid for Broyden might be to small

 eigenvalues of (default mixing * dielectric matrix)
  average eigenvalue GAMMA=   0.9724
  2.5221  0.8082  0.6190  0.6190  0.2935

 Free energy of the ion-electron system (eV)
  ---------------------------------------------------
  alpha Z        PSCENC =        56.84572013
  Ewald energy   TEWEN  =     67684.98381430
  -Hartree energ DENC   =    -76807.02083857
  -exchange      EXHF   =         0.00000000
  -V(xc)+E(xc)   XCENC  =      -438.60707356
  PAW double counting   =     60054.29066290   -59078.06588819
  entropy T*S    EENTRO =        -0.23108677
  eigenvalues    EBANDS =     -2683.79406179
  atomic energy  EATOM  =     10262.89861323
  Solvation  Ediel_sol  =         0.00000000
  ---------------------------------------------------
  free energy    TOTEN  =      -948.70013831 eV

  energy without entropy =     -948.46905155  energy(sigma->0) =     -948.58459493


--------------------------------------------------------------------------------------------------------




--------------------------------------- Iteration      1(   7)  ---------------------------------------


    POTLOK:  cpu time      2.1646: real time      2.1896
    SETDIJ:  cpu time      1.8437: real time      1.8460
    EDDIAG:  cpu time     44.8232: real time     44.8516
     EDDAV:  cpu time    229.1643: real time    229.2905
       DOS:  cpu time      0.0034: real time      0.0034
    CHARGE:  cpu time     25.6863: real time     25.7088
    MIXING:  cpu time      0.0439: real time      0.0438
    --------------------------------------------
      LOOP:  cpu time    303.7294: real time    303.9338

 eigenvalue-minimisations  :  2432
 total energy-change (2. order) : 0.2297906E-02  (-0.2176270E-02)
 number of electron     404.9999999 magnetization 
 augmentation part      -22.1810764 magnetization 

 Broyden mixing:
  rms(total) = 0.22554E-01    rms(broyden)= 0.12122E+00
  rms(prec ) = 0.23859E-01
  weight for this iteration     100.00
  WARNING: grid for Broyden might be to small

 eigenvalues of (default mixing * dielectric matrix)
  average eigenvalue GAMMA=   0.9516
  2.5842  0.9536  0.3015  0.6534  0.6534  0.5634

 Free energy of the ion-electron system (eV)
  ---------------------------------------------------
  alpha Z        PSCENC =        56.84572013
  Ewald energy   TEWEN  =     67684.98381430
  -Hartree energ DENC   =    -76805.16023028
  -exchange      EXHF   =         0.00000000
  -V(xc)+E(xc)   XCENC  =      -438.56059839
  PAW double counting   =     59990.21714029   -59013.97935715
  entropy T*S    EENTRO =        -0.23002738
  eigenvalues    EBANDS =     -2685.71291517
  atomic energy  EATOM  =     10262.89861323
  Solvation  Ediel_sol  =         0.00000000
  ---------------------------------------------------
  free energy    TOTEN  =      -948.69784041 eV

  energy without entropy =     -948.46781303  energy(sigma->0) =     -948.58282672


--------------------------------------------------------------------------------------------------------




--------------------------------------- Iteration      1(   8)  ---------------------------------------


    POTLOK:  cpu time      2.1612: real time      2.1960
    SETDIJ:  cpu time      1.7950: real time      1.7961
    EDDIAG:  cpu time     44.8120: real time     44.8382
     EDDAV:  cpu time    224.7099: real time    224.8305
       DOS:  cpu time      0.0033: real time      0.0033
    CHARGE:  cpu time     25.6749: real time     25.7026
    MIXING:  cpu time      0.0459: real time      0.0459
    --------------------------------------------
      LOOP:  cpu time    299.2021: real time    299.4125

 eigenvalue-minimisations  :  2352
 total energy-change (2. order) :-0.8560041E-03  (-0.6202507E-03)
 number of electron     404.9999999 magnetization 
 augmentation part      -22.1794420 magnetization 

 Broyden mixing:
  rms(total) = 0.12260E-01    rms(broyden)= 0.49494E-01
  rms(prec ) = 0.12975E-01
  weight for this iteration     100.00
  WARNING: grid for Broyden might be to small

 eigenvalues of (default mixing * dielectric matrix)
  average eigenvalue GAMMA=   0.9781
  2.5810  1.2535  0.2991  0.8324  0.6368  0.6368  0.6071

 Free energy of the ion-electron system (eV)
  ---------------------------------------------------
  alpha Z        PSCENC =        56.84572013
  Ewald energy   TEWEN  =     67684.98381430
  -Hartree energ DENC   =    -76804.22979434
  -exchange      EXHF   =         0.00000000
  -V(xc)+E(xc)   XCENC  =      -438.39334396
  PAW double counting   =     60009.52753587   -59033.27796525
  entropy T*S    EENTRO =        -0.23062063
  eigenvalues    EBANDS =     -2686.82265575
  atomic energy  EATOM  =     10262.89861323
  Solvation  Ediel_sol  =         0.00000000
  ---------------------------------------------------
  free energy    TOTEN  =      -948.69869641 eV

  energy without entropy =     -948.46807578  energy(sigma->0) =     -948.58338609


--------------------------------------------------------------------------------------------------------




--------------------------------------- Iteration      1(   9)  ---------------------------------------


    POTLOK:  cpu time      2.1575: real time      2.1881
    SETDIJ:  cpu time      1.7949: real time      1.7961
    EDDIAG:  cpu time     44.8054: real time     44.8298
     EDDAV:  cpu time    220.4642: real time    220.5817
       DOS:  cpu time      0.0058: real time      0.0058
    CHARGE:  cpu time     25.6734: real time     25.6965
    MIXING:  cpu time      0.0465: real time      0.0465
    --------------------------------------------
      LOOP:  cpu time    294.9479: real time    295.1446

 eigenvalue-minimisations  :  2280
 total energy-change (2. order) :-0.6757887E-03  (-0.2103343E-03)
 number of electron     404.9999999 magnetization 
 augmentation part      -22.1785057 magnetization 

 Broyden mixing:
  rms(total) = 0.53303E-02    rms(broyden)= 0.63980E-01
  rms(prec ) = 0.59947E-02
  weight for this iteration     100.00
  WARNING: grid for Broyden might be to small

 eigenvalues of (default mixing * dielectric matrix)
  average eigenvalue GAMMA=   1.0467
  2.5740  1.8732  0.9438  0.2986  0.8080  0.6671  0.6307  0.5785

 Free energy of the ion-electron system (eV)
  ---------------------------------------------------
  alpha Z        PSCENC =        56.84572013
  Ewald energy   TEWEN  =     67684.98381430
  -Hartree energ DENC   =    -76804.19174761
  -exchange      EXHF   =         0.00000000
  -V(xc)+E(xc)   XCENC  =      -438.29167809
  PAW double counting   =     60027.34725216   -59051.08795541
  entropy T*S    EENTRO =        -0.22980570
  eigenvalues    EBANDS =     -2686.97358521
  atomic energy  EATOM  =     10262.89861323
  Solvation  Ediel_sol  =         0.00000000
  ---------------------------------------------------
  free energy    TOTEN  =      -948.69937220 eV

  energy without entropy =     -948.46956650  energy(sigma->0) =     -948.58446935


--------------------------------------------------------------------------------------------------------




--------------------------------------- Iteration      1(  10)  ---------------------------------------


    POTLOK:  cpu time      2.1744: real time      2.1889
    SETDIJ:  cpu time      1.8461: real time      1.8469
    EDDIAG:  cpu time     44.8046: real time     44.8327
     EDDAV:  cpu time    219.7496: real time    219.8741
       DOS:  cpu time      0.0023: real time      0.0023
    CHARGE:  cpu time     25.6807: real time     25.7067
    MIXING:  cpu time      0.0477: real time      0.0477
    --------------------------------------------
      LOOP:  cpu time    294.3053: real time    294.4991

 eigenvalue-minimisations  :  2264
 total energy-change (2. order) :-0.1172653E-03  (-0.8361130E-04)
 number of electron     404.9999999 magnetization 
 augmentation part      -22.1783231 magnetization 

 Broyden mixing:
  rms(total) = 0.22993E-02    rms(broyden)= 0.12879E-01
  rms(prec ) = 0.27739E-02
  weight for this iteration     100.00
  WARNING: grid for Broyden might be to small

 eigenvalues of (default mixing * dielectric matrix)
  average eigenvalue GAMMA=   1.0666
  2.5226  2.4237  0.2985  0.9353  0.7889  0.7889  0.6573  0.6231  0.5610

 Free energy of the ion-electron system (eV)
  ---------------------------------------------------
  alpha Z        PSCENC =        56.84572013
  Ewald energy   TEWEN  =     67684.98381430
  -Hartree energ DENC   =    -76803.88794393
  -exchange      EXHF   =         0.00000000
  -V(xc)+E(xc)   XCENC  =      -438.26653554
  PAW double counting   =     60047.76113920   -59071.49690237
  entropy T*S    EENTRO =        -0.23010378
  eigenvalues    EBANDS =     -2687.30729071
  atomic energy  EATOM  =     10262.89861323
  Solvation  Ediel_sol  =         0.00000000
  ---------------------------------------------------
  free energy    TOTEN  =      -948.69948946 eV

  energy without entropy =     -948.46938569  energy(sigma->0) =     -948.58443758


--------------------------------------------------------------------------------------------------------




--------------------------------------- Iteration      1(  11)  ---------------------------------------


    POTLOK:  cpu time      2.1652: real time      2.1948
    SETDIJ:  cpu time      1.8034: real time      1.8046
    EDDIAG:  cpu time     44.8027: real time     44.8326
     EDDAV:  cpu time    219.3444: real time    219.4670
       DOS:  cpu time      0.0032: real time      0.0032
    CHARGE:  cpu time     25.6791: real time     25.7025
    MIXING:  cpu time      0.0473: real time      0.0473
    --------------------------------------------
      LOOP:  cpu time    293.8453: real time    294.0520

 eigenvalue-minimisations  :  2264
 total energy-change (2. order) :-0.6464787E-04  (-0.2787173E-04)
 number of electron     404.9999999 magnetization 
 augmentation part      -22.1784160 magnetization 

 Broyden mixing:
  rms(total) = 0.14095E-02    rms(broyden)= 0.79083E-02
  rms(prec ) = 0.17171E-02
  weight for this iteration     100.00
  WARNING: grid for Broyden might be to small

 eigenvalues of (default mixing * dielectric matrix)
  average eigenvalue GAMMA=   1.0812
  2.6322  2.6322  1.0163  1.0163  0.8403  0.2985  0.6619  0.6372  0.5387  0.5387

 Free energy of the ion-electron system (eV)
  ---------------------------------------------------
  alpha Z        PSCENC =        56.84572013
  Ewald energy   TEWEN  =     67684.98381430
  -Hartree energ DENC   =    -76803.63521956
  -exchange      EXHF   =         0.00000000
  -V(xc)+E(xc)   XCENC  =      -438.27807912
  PAW double counting   =     60046.80441501   -59070.53858173
  entropy T*S    EENTRO =        -0.23009237
  eigenvalues    EBANDS =     -2687.55014402
  atomic energy  EATOM  =     10262.89861323
  Solvation  Ediel_sol  =         0.00000000
  ---------------------------------------------------
  free energy    TOTEN  =      -948.69955411 eV

  energy without entropy =     -948.46946175  energy(sigma->0) =     -948.58450793


--------------------------------------------------------------------------------------------------------




--------------------------------------- Iteration      1(  12)  ---------------------------------------


    POTLOK:  cpu time      2.1625: real time      2.1901
    SETDIJ:  cpu time      1.7947: real time      1.7960
    EDDIAG:  cpu time     44.8128: real time     44.8387
     EDDAV:  cpu time    215.7632: real time    215.8883
       DOS:  cpu time      0.0023: real time      0.0023
    CHARGE:  cpu time     25.6957: real time     25.7190
    MIXING:  cpu time      0.0487: real time      0.0487
    --------------------------------------------
      LOOP:  cpu time    290.2799: real time    290.4830

 eigenvalue-minimisations  :  2200
 total energy-change (2. order) :-0.7103538E-04  (-0.2272169E-04)
 number of electron     404.9999999 magnetization 
 augmentation part      -22.1785496 magnetization 

 Broyden mixing:
  rms(total) = 0.68164E-03    rms(broyden)= 0.57851E-02
  rms(prec ) = 0.88339E-03
  weight for this iteration     100.00
  WARNING: grid for Broyden might be to small

 eigenvalues of (default mixing * dielectric matrix)
  average eigenvalue GAMMA=   1.0767
  2.7166  2.7166  1.2422  0.2985  0.9149  0.8175  0.8175  0.6336  0.6336  0.5466
  0.5061

 Free energy of the ion-electron system (eV)
  ---------------------------------------------------
  alpha Z        PSCENC =        56.84572013
  Ewald energy   TEWEN  =     67684.98381430
  -Hartree energ DENC   =    -76803.35346879
  -exchange      EXHF   =         0.00000000
  -V(xc)+E(xc)   XCENC  =      -438.28789378
  PAW double counting   =     60040.91376608   -59064.64673915
  entropy T*S    EENTRO =        -0.23005728
  eigenvalues    EBANDS =     -2687.82337988
  atomic energy  EATOM  =     10262.89861323
  Solvation  Ediel_sol  =         0.00000000
  ---------------------------------------------------
  free energy    TOTEN  =      -948.69962515 eV

  energy without entropy =     -948.46956786  energy(sigma->0) =     -948.58459651


--------------------------------------------------------------------------------------------------------




--------------------------------------- Iteration      1(  13)  ---------------------------------------


    POTLOK:  cpu time      2.1607: real time      2.1931
    SETDIJ:  cpu time      1.7881: real time      1.7890
    EDDIAG:  cpu time     44.8002: real time     44.8271
     EDDAV:  cpu time    214.2655: real time    214.3785
       DOS:  cpu time      0.0043: real time      0.0043
    CHARGE:  cpu time     25.6552: real time     25.7195
    MIXING:  cpu time      0.0495: real time      0.0496
    --------------------------------------------
      LOOP:  cpu time    288.7234: real time    288.9610

 eigenvalue-minimisations  :  2176
 total energy-change (2. order) :-0.1391894E-03  (-0.1955076E-04)
 number of electron     404.9999999 magnetization 
 augmentation part      -22.1786278 magnetization 

 Broyden mixing:
  rms(total) = 0.36850E-03    rms(broyden)= 0.47346E-02
  rms(prec ) = 0.54068E-03
  weight for this iteration     100.00
  WARNING: grid for Broyden might be to small

 eigenvalues of (default mixing * dielectric matrix)
  average eigenvalue GAMMA=   1.0995
  2.7778  2.7778  1.6244  0.9522  0.8921  0.8921  0.2985  0.6485  0.6485  0.6358
  0.5471  0.4988

 Free energy of the ion-electron system (eV)
  ---------------------------------------------------
  alpha Z        PSCENC =        56.84572013
  Ewald energy   TEWEN  =     67684.98381430
  -Hartree energ DENC   =    -76803.05662506
  -exchange      EXHF   =         0.00000000
  -V(xc)+E(xc)   XCENC  =      -438.29380999
  PAW double counting   =     60039.47271841   -59063.20524588
  entropy T*S    EENTRO =        -0.23005991
  eigenvalues    EBANDS =     -2688.11488957
  atomic energy  EATOM  =     10262.89861323
  Solvation  Ediel_sol  =         0.00000000
  ---------------------------------------------------
  free energy    TOTEN  =      -948.69976434 eV

  energy without entropy =     -948.46970443  energy(sigma->0) =     -948.58473438


--------------------------------------------------------------------------------------------------------




--------------------------------------- Iteration      1(  14)  ---------------------------------------


    POTLOK:  cpu time      2.1829: real time      2.1852
    SETDIJ:  cpu time      1.7924: real time      1.7930
    EDDIAG:  cpu time     44.8010: real time     44.8294
     EDDAV:  cpu time    214.2048: real time    214.3239
       DOS:  cpu time      0.0111: real time      0.0112
    CHARGE:  cpu time     25.6677: real time     25.6899
    MIXING:  cpu time      0.0650: real time      0.0661
    --------------------------------------------
      LOOP:  cpu time    288.7248: real time    288.8987

 eigenvalue-minimisations  :  2176
 total energy-change (2. order) :-0.1255017E-03  (-0.1533972E-04)
 number of electron     404.9999999 magnetization 
 augmentation part      -22.1786948 magnetization 

 Broyden mixing:
  rms(total) = 0.25472E-03    rms(broyden)= 0.16210E-02
  rms(prec ) = 0.39065E-03
[...]
   0.113E+02 -.970E+01 -.167E+03   -.951E+01 0.758E+01 0.164E+03   -.158E+01 0.216E+01 0.259E+01   -.283E-04 0.391E-04 -.219E-04
   -.920E+01 0.873E+01 -.155E+03   0.934E+01 -.900E+01 0.152E+03   0.665E+00 -.210E-01 0.297E+01   0.259E-04 -.417E-05 0.205E-05
   -.191E+02 -.207E+02 0.313E+03   0.179E+02 0.182E+02 -.312E+03   0.144E+01 0.195E+01 -.198E+01   -.291E-04 -.202E-04 -.292E-04
   -.284E+02 0.441E+01 0.218E+03   0.268E+02 -.262E+01 -.220E+03   0.148E+01 -.163E+01 0.934E+00   -.114E-04 0.960E-05 -.429E-04
   0.766E+01 0.993E+01 -.307E+03   -.634E+01 -.907E+01 0.306E+03   -.200E+01 -.538E+00 0.151E+01   0.302E-05 -.270E-04 -.467E-05
   0.694E+01 -.305E+02 -.382E+03   -.696E+01 0.269E+02 0.379E+03   -.136E+00 0.307E+01 0.324E+01   -.465E-04 0.575E-04 0.451E-05
   0.270E+02 0.217E+02 -.392E+03   -.269E+02 -.229E+02 0.393E+03   -.260E+00 0.139E+01 -.154E+01   -.215E-04 -.115E-04 -.512E-05
   0.174E+02 0.507E+01 0.240E+03   -.177E+02 -.337E+01 -.240E+03   -.419E+00 -.120E+01 0.848E+00   -.420E-05 -.247E-04 -.833E-05
   0.385E+01 0.220E+02 0.255E+03   -.568E+01 -.235E+02 -.257E+03   0.194E+01 0.154E+01 0.594E+00   -.882E-05 0.343E-04 -.458E-04
   0.694E+01 -.123E+02 -.111E+03   -.569E+01 0.115E+02 0.113E+03   -.398E+01 0.103E+01 -.785E+00   0.204E-04 0.625E-05 -.475E-05
   -.905E+01 0.523E+01 -.689E+02   0.839E+01 -.579E+01 0.709E+02   0.768E+00 0.125E+00 -.194E+01   -.360E-04 0.396E-04 -.325E-04
   0.203E+02 -.513E+01 0.192E+03   -.178E+02 0.289E+01 -.193E+03   -.296E+01 0.225E+01 0.784E+00   -.530E-04 0.435E-04 -.198E-04
   0.267E+01 0.134E+02 0.108E+03   -.234E+01 -.125E+02 -.111E+03   -.390E+00 -.535E+00 0.391E+01   0.144E-04 0.128E-04 -.254E-04
   -.860E+01 0.734E+01 0.448E+02   0.797E+01 -.710E+01 -.430E+02   0.285E+00 -.102E+01 -.251E+01   -.223E-04 -.566E-05 -.390E-05
   0.830E+01 -.397E+02 0.389E+03   -.746E+01 0.367E+02 -.387E+03   -.895E+00 0.420E+01 -.271E+01   -.467E-04 0.573E-04 -.442E-04
   0.292E+02 0.169E+02 0.306E+03   -.270E+02 -.171E+02 -.304E+03   -.333E+01 0.661E-03 -.284E+01   0.176E-04 0.220E-04 -.172E-04
   -.122E+01 0.369E+02 -.230E+03   0.110E+01 -.351E+02 0.229E+03   0.766E+00 -.229E+01 0.113E+01   0.221E-04 -.537E-05 0.159E-04
   0.406E+02 0.440E+01 0.397E+03   -.427E+02 -.587E+01 -.399E+03   0.207E+01 0.165E+01 0.132E+01   0.164E-04 0.125E-04 0.147E-04
   -.114E+02 -.151E+02 -.395E+03   0.964E+01 0.145E+02 0.399E+03   0.293E+01 0.129E+01 -.351E+01   0.147E-04 -.177E-04 -.162E-04
   -.346E+02 0.174E+01 0.387E+03   0.362E+02 -.102E+01 -.386E+03   -.199E+01 0.595E-01 -.131E+01   -.229E-04 -.278E-04 -.304E-04
   0.114E+01 0.174E+01 0.245E+02   -.848E+00 -.263E+01 -.263E+02   0.242E+00 0.232E+01 0.196E+01   0.355E-04 0.478E-04 -.123E-04
   -.296E+02 0.192E+02 0.151E+03   0.269E+02 -.175E+02 -.152E+03   0.351E+01 -.196E+01 0.934E+00   0.325E-04 -.437E-04 -.143E-05
   -.202E+02 0.860E+01 0.399E+03   0.225E+02 -.780E+01 -.403E+03   -.323E+01 -.121E+01 0.399E+01   -.106E-04 0.178E-05 0.360E-05
   -.102E+02 -.744E+01 0.157E+03   0.114E+02 0.758E+01 -.154E+03   -.985E+00 -.875E+00 -.180E+01   -.252E-04 0.621E-04 -.552E-04
 -----------------------------------------------------------------------------------------------
   -.502E+01 -.867E+01 -.716E+01   -.657E-13 0.577E-13 -.625E-12   0.502E+01 0.866E+01 0.716E+01   -.701E-05 0.114E-03 -.141E-02


 POSITION                                       TOTAL-FORCE (eV/Angst)
 -----------------------------------------------------------------------------------
      6.09182      4.59999     18.66122         0.890991      0.193291     -0.378676
      9.86644      1.84849     17.28637        -0.133463     -0.236077      0.118747
     13.71050      0.40510     17.40020        -0.239835     -0.025701      0.212303
     14.29750      0.64278     12.00985        -0.134706      0.686989      0.619425
      6.39531      2.61605     17.10851         0.245297      0.213523      0.467670
      7.84901      2.90121     17.93679         0.648522     -0.025975      0.773625
     12.14100      3.20126     18.56645        -0.757516      0.314242     -0.096843
      8.08857      3.02380     11.27206         0.438216     -0.235277     -0.037009
      3.66902      5.62556     15.71913        -0.251494      0.509120      0.042027
      6.67247      4.69577     18.16504        -0.476124     -0.069827      0.723210
      4.75564      2.98769     18.63641         0.729416     -0.735613      0.832932
     11.60200      1.77993     16.80801         0.695255      0.546206     -0.659927
     12.99100      0.27908     17.18853         0.240517      0.151332      0.421070
     12.02050     11.60030     17.48935         1.689519     -0.160401     -0.417962
      1.86227      0.68113     18.08146        -0.074849     -1.386821      1.115433
      4.02734     11.02040     18.63614        -0.988735      1.135875      0.445541
     13.70890     14.11110     14.69715         0.249801      0.246014     -0.633964
      9.36894      3.03120     18.02593         0.376524      0.624700     -0.900838
     13.89800      2.18153     12.62401         0.277039     -0.383068     -1.318013
      8.99656      9.24588     13.16198         0.405066      0.902199      0.775538
      7.74829      6.91945     10.87329        -0.497613      0.522597     -0.622525
     14.25160      5.36504     11.20816        -0.615965     -0.390973      0.097995
      6.37175      6.59542     16.15597        -1.411570     -0.620434     -0.206783
      7.12165     13.47690     18.53627        -0.433460      0.308917     -1.251827
      4.33763     13.52800     16.05142         0.290758      0.155897      0.301280
      6.44903      1.83930     15.87310         0.543287      0.557584      0.014341
      6.32975     12.83730     15.29496         0.403794     -0.952769     -0.920447
      9.82648      1.58564     14.64355         1.760097     -0.307682     -0.535996
     14.08900      6.72499     13.05551        -0.337603      0.786271      0.364852
     12.11670      6.48012     14.48385         0.398306      0.043038     -1.008614
      8.14321      3.10354     14.56809        -0.902853     -0.100954      0.139948
     11.84370      2.38613     11.56630         0.712415      1.149687      0.067230
      6.73976      6.11044     12.75183        -0.222921      0.305209     -0.325133
      6.26686      8.55527     10.01920        -0.851110     -2.282875      0.310651
      2.24279     10.42960     14.85142         1.359732     -1.088318      0.075823
      1.12805     13.60520     13.62482        -0.571049     -0.261939      0.226853
      1.74480     11.52840     18.45672         0.400877     -1.845039     -0.101929
      4.08655      3.83417     13.90510        -0.549045     -0.290907     -0.258881
     10.73170     13.46140     17.59869         0.424684     -0.507569      1.429103
     10.60500      4.25150     11.09053         0.404232      0.265511     -0.249086
      3.31791     10.02700     12.80949        -0.013470      0.049102     -0.230139
      0.52775      8.80241     10.39671        -0.075287     -0.964874      0.856436
     11.39510      8.35834     10.42623         0.158384      0.319383      0.044768
      0.80579      6.71103     16.34537        -0.325509      0.142221      0.779368
      9.66710     14.11640     15.76868        -0.178423      0.589660     -1.212023
      8.79635     12.71800     12.23259        -0.795783      0.290111     -0.481656
      1.64306      6.70129     14.25047        -1.439545     -0.657919     -0.844205
      1.23037      6.51613     10.06847         0.341073      1.409813     -0.096415
      2.52586      7.30127     17.74040         0.330174      0.088686      0.274007
      4.87632      4.76546     15.87208        -0.287685      0.098324      1.047285
      5.60314      4.21631     12.26439         0.301001     -0.441528     -0.012830
      2.45055      9.89445     10.67624         0.262148      0.385317     -0.280650
      9.04594     12.20160     18.51545        -0.863529      0.313926      0.318649
      5.10929      9.54614     17.32118         1.311260      0.009821     -0.403171
      2.19986      0.93900     10.21682         0.859951     -0.393727     -0.004495
      8.57728      6.62486     15.94532         1.228569      0.610031     -0.188419
      8.75312     10.61700     11.30537         1.091893     -0.096594     -0.385045
      0.27578     12.82330     11.62088         1.290311     -0.504056     -0.708656
      8.62020     10.43270     17.16770         0.911000     -0.474462      0.974465
      9.36529     14.37270     10.71179        -0.285525      0.287578     -0.017875
      5.61517      7.65090     14.18343        -0.520078     -0.150528     -0.172267
     10.53950      0.84346     12.47153        -0.932447     -0.055154     -0.252815
      4.21075      1.55085     13.57068        -1.193275     -0.321389     -0.110524
     11.98740      7.76611     16.47277        -0.693293      0.489326      0.781337
      3.52011      8.60124     16.03604        -0.994146      0.565104     -0.543538
      3.38971      7.67524     13.17026         1.305516      0.463703     -0.318134
      2.46728      3.23933     10.17288         0.727477     -0.181021     -0.267401
      9.69774      7.62489     11.81785         0.705726     -0.321977     -0.697302
      6.80158     10.55940     15.89794        -1.370147      1.147536      1.111096
      1.77311      4.38347     13.88141         1.063927      0.166762     -0.753572
     14.58060     10.39440     14.85939        -1.555878     -0.118963      0.917435
      2.49321      2.41129     16.84549         0.651900     -0.512775      0.135021
      2.52189      0.29559     12.46298         1.022272      1.409576     -0.133235
      3.91830      3.81160     17.83161        -0.323492      1.677206     -0.918606
     14.18380      8.68732     16.57171        -0.254633      0.558762     -0.196018
     13.82970     12.33800     16.09460         0.141140     -0.994231      1.116954
      7.50768     14.41670     16.31129        -0.106024      0.321958      1.804820
     12.01630     13.86360     13.14269        -0.402091     -1.284336      0.126384
      7.33429      2.59568     12.48410        -0.560587      0.248896     -0.562315
      8.52988      5.38186     13.98822        -0.008749     -0.384778      0.577976
      1.28423     13.23840     17.07369        -1.241374      0.638468      0.381037
     13.94660      1.77577     14.87827         1.349020     -0.658891     -0.409246
     13.26980      8.68511     11.93356        -0.009127     -1.342186     -1.407661
      0.85143      3.30180     15.69289        -0.915833      0.288240     -0.407475
      6.35208      7.71476     18.14731         0.142170      0.514205      0.533457
      9.95728      5.00110     16.85687        -1.079374     -0.811852      0.915300
     10.69110     10.54150     14.27158         0.368704     -2.162136      0.551186
      4.20602      1.18384     15.83671         0.129831      0.139921     -0.557090
     12.00060      4.66714     15.86192         0.818696     -0.273892      0.447711
      3.39343      6.55571     11.07314         0.234300     -0.475480     -1.020298
      5.93827      0.73133     12.29534        -0.062441      0.063889     -0.362907
     14.17600      4.80488     16.91742        -0.756945      0.303701      0.136151
      4.84185     13.14880     18.26655        -0.072650     -0.464647      0.620345
      0.11862      9.83950     18.58239        -0.016266      0.348963     -0.177912
      0.99188      3.55690     11.82728        -0.787162      0.458013      0.940990
      3.93445     13.02310     12.01551         0.292720      0.261564     -1.161008
     11.95630      2.38960     15.41270        -2.923559      0.271561      1.648348
      2.46364     12.64790     15.22373         0.122001     -0.411864     -0.044011
      5.55984     10.96480     12.44782        -0.656095      0.183607      0.170391
     12.82820     10.39830     13.25256        -0.057698      0.299335      0.906564
      6.84810      9.61137     13.90946        -0.336097     -0.823512     -0.750692
      6.63832     10.61690     10.47094        -0.056729      1.118528     -0.611491
     12.79580     12.12750     11.81439        -1.109603     -0.050532     -0.517482
     10.75790      9.87827     16.52753         0.682585     -0.623524     -0.508943
     14.51780      0.20975     10.45009         0.177852      0.226846     -0.790957
     11.19730      6.18077     18.34374         1.322629      0.725212     -0.495800
      4.43600      4.48747     10.34663        -0.731613      0.798263     -0.287563
     10.12600     12.64110     14.04942         0.560796      1.551056      0.241584
     10.48050      5.76283     12.87673         0.955867     -0.290937      0.177523
      5.39633      0.58621     10.00000        -1.198806     -0.501708      0.359417
      6.53240     13.18150     12.93873         0.195641     -0.794681      0.754694
 -----------------------------------------------------------------------------------
    total drift:                                0.002520     -0.003838     -0.002055


--------------------------------------------------------------------------------------------------------



  FREE ENERGIE OF THE ION-ELECTRON SYSTEM (eV)
  ---------------------------------------------------
  free  energy   TOTEN  =      -948.70024950 eV

  energy  without entropy=     -948.47019897  energy(sigma->0) =     -948.58522424



--------------------------------------------------------------------------------------------------------


    POTLOK:  cpu time      3.9251: real time      3.9371


--------------------------------------------------------------------------------------------------------


     LOOP+:  cpu time   6585.5103: real time   6590.1383
    4ORBIT:  cpu time      0.0000: real time      0.0000



 total charge

# of ion       s       p       d       tot
------------------------------------------
    1        0.597   0.030   0.000   0.627
    2        0.573   0.019   0.000   0.592
    3        0.603   0.031   0.000   0.634
    4        0.567   0.021   0.000   0.588
    5        0.585   0.019   0.000   0.605
    6        0.543   0.017   0.000   0.560
    7        0.379   0.001   0.000   0.380
    8        0.559   0.017   0.000   0.576
    9        0.575   0.018   0.000   0.593
   10        0.597   0.030   0.000   0.627
   11        0.596   0.019   0.000   0.615
   12        0.535   0.015   0.000   0.550
   13        0.600   0.033   0.000   0.632
   14        0.777   0.876   0.000   1.653
   15        0.853   0.784   0.000   1.637
   16        0.781   0.891   0.000   1.672
   17        0.767   0.974   0.000   1.741
   18        0.781   0.881   0.000   1.661
   19        0.780   0.904   0.000   1.683
   20        0.766   0.958   0.000   1.724
   21        0.804   0.868   0.000   1.672
   22        0.801   0.883   0.000   1.684
   23        0.763   0.964   0.000   1.727
   24        0.790   0.854   0.000   1.645
   25        0.764   1.006   0.000   1.770
   26        0.758   0.953   0.000   1.710
   27        0.769   0.976   0.000   1.745
   28        0.770   0.920   0.000   1.690
   29        0.767   0.884   0.000   1.651
   30        0.760   0.917   0.000   1.677
   31        0.762   0.940   0.000   1.702
   32        0.785   0.914   0.000   1.699
   33        0.766   0.980   0.000   1.745
   34        0.836   0.793   0.000   1.629
   35        0.762   0.941   0.000   1.703
   36        0.770   0.979   0.000   1.749
   37        0.787   0.872   0.000   1.659
   38        0.765   0.966   0.000   1.730
   39        0.796   0.909   0.000   1.705
   40        0.857   0.747   0.000   1.604
   41        0.763   0.901   0.000   1.664
   42        0.792   0.857   0.000   1.649
   43        0.871   0.719   0.000   1.590
   44        0.764   0.975   0.000   1.739
   45        0.759   0.984   0.000   1.743
   46        0.766   0.969   0.000   1.735
   47        0.764   0.944   0.000   1.709
   48        0.796   0.844   0.000   1.640
   49        0.863   0.735   0.000   1.598
   50        0.767   0.950   0.000   1.717
   51        0.766   0.981   0.000   1.747
   52        0.839   0.786   0.000   1.625
   53        0.792   0.886   0.000   1.678
   54        0.768   0.946   0.000   1.713
   55        0.788   0.844   0.000   1.633
   56        0.788   0.909   0.000   1.697
   57        0.804   0.879   0.000   1.683
   58        0.799   0.891   0.000   1.690
   59        0.786   0.901   0.000   1.687
   60        0.885   0.716   0.000   1.601
   61        0.757   0.911   0.000   1.668
   62        0.765   0.978   0.000   1.743
   63        0.764   0.958   0.000   1.721
   64        0.762   0.872   0.000   1.635
   65        0.799   0.843   0.000   1.642
   66        0.766   0.902   0.000   1.668
   67        0.791   0.879   0.000   1.670
   68        0.768   0.993   0.000   1.762
   69        0.759   0.974   0.000   1.733
   70        0.766   0.938   0.000   1.704
   71        0.761   0.922   0.000   1.683
   72        0.761   1.038   0.000   1.799
   73        0.778   0.927   0.000   1.705
   74        0.792   0.921   0.000   1.714
   75        0.763   0.898   0.000   1.662
   76        0.766   0.908   0.000   1.674
   77        0.764   0.990   0.000   1.754
   78        0.765   0.956   0.000   1.721
   79        0.760   0.968   0.000   1.728
   80        0.772   0.938   0.000   1.709
   81        0.766   0.954   0.000   1.721
   82        0.765   1.038   0.000   1.803
   83        0.763   0.935   0.000   1.697
   84        0.757   1.012   0.000   1.769
   85        0.877   0.736   0.000   1.613
   86        0.763   0.965   0.000   1.728
   87        0.757   0.967   0.000   1.724
   88        0.767   0.963   0.000   1.730
   89        0.761   0.946   0.000   1.707
   90        0.794   0.797   0.000   1.592
   91        0.755   0.959   0.000   1.713
   92        0.802   0.837   0.000   1.639
   93        0.778   0.884   0.000   1.662
   94        0.833   0.749   0.000   1.581
   95        0.761   0.974   0.000   1.734
   96        0.884   0.672   0.000   1.556
   97        0.763   0.996   0.000   1.759
   98        0.766   1.011   0.000   1.776
   99        0.768   0.873   0.000   1.640
  100        0.760   0.980   0.000   1.740
  101        0.762   0.982   0.000   1.745
  102        0.803   0.935   0.000   1.738
  103        0.795   0.932   0.000   1.727
  104        0.755   0.924   0.000   1.679
  105        0.859   0.763   0.000   1.622
  106        0.898   0.672   0.000   1.570
  107        0.797   0.854   0.000   1.651
  108        0.763   1.007   0.000   1.771
  109        0.768   0.945   0.000   1.713
  110        0.916   0.607   0.000   1.523
  111        0.765   0.901   0.000   1.666
--------------------------------------------------
tot         84.267  88.904   0.000 173.171


 total amount of memory used by VASP MPI-rank0   383877. kBytes
=======================================================================

   base                                    :      30000. kBytes
   nonl-proj                               :      82404. kBytes
   fftplans                                :     110229. kBytes
   grid                                    :      85039. kBytes
   one-center                              :         21. kBytes
   wavefun                                 :      76184. kBytes

  
  
 General timing and accounting informations for this job:
 ========================================================
  
                  Total CPU time used (sec):     6740.218
                            User time (sec):     6005.160
                          System time (sec):      735.058
                         Elapsed time (sec):     6745.013
  
                   Maximum memory used (kb):      649404.
                   Average memory used (kb):          N/A
  
                          Minor page faults:     10281699
                          Major page faults:         1170
                 Voluntary context switches:         2970
