 vasp.6.5.0 16Dec24 (build Jan 20 2025 08:32:48) complex                         
 executed on        HPECrayEX_GCC date 2025.07.29  01:48:20
 running  128 mpi-ranks, with    1 threads/rank, on    1 nodes
 distrk:  each k-point on  128 cores,    1 groups
 distr:  one band on NCORE=  16 cores,    8 groups


--------------------------------------------------------------------------------------------------------


 INCAR:
   SYSTEM = a-Si SPC
   NCORE = 16
   ISTART = 1
   ICHARG = 1
   ISPIN = 1
   ISYM = 1
   EDIFF = 1E-6
   NELM = 150
   EDIFFG = -0.01
   NSW = 0
   ISIF = 2
   IBRION = -1
   PREC = Accurate
   ENCUT = 1200
   KSPACING = 0.23
   KGAMMA = .TRUE.
   METAGGA = SCAN
   LASPH = .TRUE.
   LDIAG = .FALSE.
   LMIXTAU = .TRUE.
   ADDGRID = .TRUE.
   ALGO = Normal
   ISMEAR = 0
   SIGMA = 0.1
   LORBIT = 11
   NEDOS = 2000
   LWAVE = .FALSE.
   LCHARG = .FALSE.

 POTCAR:    PAW_PBE H 15Jun2001                   
 POTCAR:    PAW_PBE Si 05Jan2001                  
 POTCAR:    PAW_PBE H 15Jun2001                   
   SHA256 =  030f79b5d3ab3cf0e668861823c8fb652ff669f3e15e46930bd03bfd63a607b6 H/POTCAR              
   COPYR  = (c) Copyright 15Jun2001 Georg Kresse                                                    
   COPYR  = This file is part of the software VASP. Any use, copying, and all other rights are regul
   COPYR  = If you do not have a valid VASP license, you may not use, copy or distribute this file. 
   VRHFIN =H: ultrasoft test                                                                        
   LEXCH  = PE                                                                                      
   EATOM  =    12.4884 eV,    0.9179 Ry                                                             
                                                                                                    
   TITEL  = PAW_PBE H 15Jun2001                                                                     
   LULTRA =        F    use ultrasoft PP ?                                                          
   IUNSCR =        0    unscreen: 0-lin 1-nonlin 2-no                                               
   RPACOR =    0.000    partial core radius                                                         
   POMASS =    1.000; ZVAL   =    1.000    mass and valenz                                          
   RCORE  =    1.100    outmost cutoff radius                                                       
   RWIGS  =    0.700; RWIGS  =    0.370    wigner-seitz radius (au A)                               
   ENMAX  =  250.000; ENMIN  =  200.000 eV                                                          
   RCLOC  =    0.701    cutoff for local pot                                                        
   LCOR   =        T    correct aug charges                                                         
   LPAW   =        T    paw PP                                                                      
   EAUG   =  400.000                                                                                
   RMAX   =    1.123    core radius for proj-oper                                                   
   RAUG   =    1.200    factor for augmentation sphere                                              
   RDEP   =    1.112    radius for radial grids                                                     
   RDEPT  =    0.926    core radius for aug-charge                                                  
                                                                                                    
   Atomic configuration                                                                             
    2 entries                                                                                       
     n  l   j            E        occ.                                                              
     1  0  0.50        -6.4927   1.0000                                                             
     2  1  0.50        -3.4015   0.0000                                                             
   Description                                                                                      
     l       E           TYP  RCUT    TYP  RCUT                                                     
     0     -6.4927494     23  1.100                                                                 
     0      6.8029130     23  1.100                                                                 
     1     -4.0817478     23  1.100                                                                 
  local pseudopotential read in
  atomic valenz-charges read in
  non local Contribution for L=           0  read in
    real space projection operators read in
  non local Contribution for L=           0  read in
    real space projection operators read in
  non local Contribution for L=           1  read in
    real space projection operators read in
    PAW grid and wavefunctions read in

   number of l-projection  operators is LMAX  =           3
   number of lm-projection operators is LMMAX =           5

 POTCAR:    PAW_PBE Si 05Jan2001                  
   SHA256 =  79d9987ad8750f624c4d6acb2a16d13abf6a777132adc04dc6c8399be72b42bb Si/POTCAR             
   COPYR  = (c) Copyright 05Jan2001 Georg Kresse                                                    
   COPYR  = This file is part of the software VASP. Any use, copying, and all other rights are regul
   COPYR  = If you do not have a valid VASP license, you may not use, copy or distribute this file. 
   VRHFIN =Si: s2p2                                                                                 
   LEXCH  = PE                                                                                      
   EATOM  =   103.0669 eV,    7.5752 Ry                                                             
                                                                                                    
   TITEL  = PAW_PBE Si 05Jan2001                                                                    
   LULTRA =        F    use ultrasoft PP ?                                                          
   IUNSCR =        1    unscreen: 0-lin 1-nonlin 2-no                                               
   RPACOR =    1.500    partial core radius                                                         
   POMASS =   28.085; ZVAL   =    4.000    mass and valenz                                          
   RCORE  =    1.900    outmost cutoff radius                                                       
   RWIGS  =    2.480; RWIGS  =    1.312    wigner-seitz radius (au A)                               
   ENMAX  =  245.345; ENMIN  =  184.009 eV                                                          
   ICORE  =        2    local potential                                                             
   LCOR   =        T    correct aug charges                                                         
   LPAW   =        T    paw PP                                                                      
   EAUG   =  322.069                                                                                
   DEXC   =    0.000                                                                                
   RMAX   =    1.950    core radius for proj-oper                                                   
   RAUG   =    1.300    factor for augmentation sphere                                              
   RDEP   =    1.993    radius for radial grids                                                     
   RDEPT  =    1.837    core radius for aug-charge                                                  
                                                                                                    
   Atomic configuration                                                                             
    6 entries                                                                                       
     n  l   j            E        occ.                                                              
     1  0  0.50     -1785.8828   2.0000                                                             
     2  0  0.50      -139.4969   2.0000                                                             
     2  1  1.50       -95.5546   6.0000                                                             
     3  0  0.50       -10.8127   2.0000                                                             
     3  1  0.50        -4.0811   2.0000                                                             
     3  2  1.50        -4.0817   0.0000                                                             
   Description                                                                                      
     l       E           TYP  RCUT    TYP  RCUT                                                     
     0    -10.8127223     23  1.900                                                                 
     0     -7.6451159     23  1.900                                                                 
     1     -4.0811372     23  1.900                                                                 
     1      2.4879257     23  1.900                                                                 
     2     -4.0817478      7  1.900                                                                 
  local pseudopotential read in
  partial core-charges read in
  partial kinetic energy density read in
  atomic valenz-charges read in
  non local Contribution for L=           0  read in
    real space projection operators read in
  non local Contribution for L=           0  read in
    real space projection operators read in
  non local Contribution for L=           1  read in
    real space projection operators read in
  non local Contribution for L=           1  read in
    real space projection operators read in
    PAW grid and wavefunctions read in

   number of l-projection  operators is LMAX  =           4
   number of lm-projection operators is LMMAX =           8

 -----------------------------------------------------------------------------
|                                                                             |
|               ----> ADVICE to this user running VASP <----                  |
|                                                                             |
|     You have a (more or less) 'large supercell' and for larger cells it     |
|     might be more efficient to use real-space projection operators.         |
|     Therefore, try LREAL= Auto in the INCAR file.                           |
|     Mind: For very accurate calculation, you might also keep the            |
|     reciprocal projection scheme (i.e. LREAL=.FALSE.).                      |
|                                                                             |
 -----------------------------------------------------------------------------

 -----------------------------------------------------------------------------
|                                                                             |
|               ----> ADVICE to this user running VASP <----                  |
|                                                                             |
|     You enforced a specific xc type in the INCAR file but a different       |
|     type was found in the POTCAR file.                                      |
|     I HOPE YOU KNOW WHAT YOU ARE DOING!                                     |
|                                                                             |
 -----------------------------------------------------------------------------

  PAW_PBE H 15Jun2001                   :
 energy of atom  1       EATOM=  -12.4884
 kinetic energy error for atom=    0.0000 (will be added to EATOM!!)
  PAW_PBE Si 05Jan2001                  :
 energy of atom  2       EATOM= -103.0669
 kinetic energy error for atom=    0.0001 (will be added to EATOM!!)


 POSCAR:  H Si
  positions in cartesian coordinates
  No initial velocities read in


 exchange-correlation table for SCAN
   RHO(1)=    0.500       N(1)  =     2000
   RHO(2)=  100.500       N(2)  =     4000



--------------------------------------------------------------------------------------------------------


 ion  position               nearest neighbor table
   1  0.208  0.236  0.311- 119 1.48
   2  0.534  0.605  0.462-  95 1.48
   3  0.365  0.814  0.408-  77 1.51
   4  0.397  0.615  0.434-  38 0.74
   5  0.533  0.199  0.597-  70 1.49
   6  0.341  0.440  0.376-  21 0.75
   7  0.256  0.415  0.482-  76 1.48
   8  0.218  0.301  0.391- 119 1.49
   9  0.673  0.661  0.494-  95 1.48
  10  0.255  0.702  0.615-  73 1.54
  11  0.296  0.521  0.591-  89 1.49
  12  0.664  0.485  0.440-  25 0.75
  13  0.738  0.645  0.565-  68 1.49
  14  0.674  0.529  0.561-  32 0.77
  15  0.571  0.399  0.487-  71 1.48
  16  0.768  0.455  0.349-  46 0.76
  17  0.477  0.499  0.704-  88 1.48
  18  0.034  0.639  0.520-  67 1.49
  19  0.419  0.573  0.551-  29 0.74
  20  0.144  0.442  0.408-  24 0.74
  21  0.322  0.476  0.392-   6 0.75
  22  0.555  0.644  0.579-  82 1.50
  23  0.788  0.423  0.527-  80 1.57 111 1.93
  24  0.171  0.485  0.408-  20 0.74
  25  0.647  0.477  0.415-  12 0.75
  26  0.163  0.309  0.511-  59 1.48
  27  0.954  0.483  0.379-  97 1.49
  28  0.529  0.448  0.334-  52 1.49
  29  0.447  0.532  0.546-  19 0.74
  30  0.139  0.580  0.609-  73 1.50
  31  0.047  0.556  0.456-  35 0.74
  32  0.646  0.492  0.574-  14 0.77
  33  0.319  0.730  0.524-  51 1.50
  34  0.862  0.508  0.466-  80 1.48
  35  0.029  0.511  0.448-  31 0.74
  36  0.787  0.573  0.412-  44 0.74
  37  0.416  0.445  0.482-  76 1.48
  38  0.371  0.572  0.430-   4 0.74
  39  0.229  0.700  0.442-  47 1.49
  40  0.113  0.420  0.566- 104 1.50
  41  0.949  0.460  0.533-  80 1.47
  42  0.197  0.398  0.321- 119 1.48
  43  0.954  0.289  0.478-  99 1.49
  44  0.758  0.610  0.402-  36 0.74
  45  0.856  0.364  0.412-  55 1.68  97 1.70
  46  0.718  0.463  0.353-  16 0.76
  47  0.155  0.764  0.456-  39 1.49  81 2.33  67 2.34  72 2.34
  48  0.376  0.251  0.439-  76 2.33  69 2.34  92 2.35 101 2.36
  49  0.822  0.460  0.645-  58 2.26  78 2.28  98 2.29
  50  0.926  0.650  0.628-  98 2.36  58 2.37  91 2.37  68 2.41
  51  0.373  0.801  0.551-  33 1.50  84 2.35  87 2.35 121 2.39
  52  0.526  0.372  0.370-  28 1.49  94 2.28  69 2.32
  53  0.220  0.026  0.410-  81 2.35 103 2.35  92 2.35 105 2.37
  54  0.140  0.989  0.578- 106 2.37 121 2.38  83 2.39  63 2.50
  55  0.780  0.283  0.427-  45 1.68 122 2.31  94 2.32 111 2.41  97 3.14
  56  0.923  0.149  0.596- 113 2.29 117 2.38  90 2.39 100 2.39
  57  0.594  0.401  0.624-  70 2.28  78 2.32  88 2.35
  58  0.972  0.496  0.642-  49 2.26 104 2.36  50 2.37
  59  0.145  0.209  0.505-  26 1.48  99 2.32  92 2.34  83 2.38
  60  0.709  0.083  0.580- 124 2.30 117 2.34  65 2.35 123 2.37
  61  0.532  0.804  0.338-  79 2.31  77 2.35
  62  0.723  0.064  0.427- 122 2.30 114 2.35  64 2.36 123 2.40
  63  0.046  0.966  0.504-  93 2.30 100 2.39 108 2.42  54 2.50  81 2.54
  64  0.598  0.147  0.396-  94 2.30 101 2.31  62 2.36  85 2.37
  65  0.778  0.968  0.627-  90 2.25 125 2.29  60 2.35
  66  0.657  0.703  0.669- 125 2.32  98 2.33  82 2.38
  67  0.092  0.721  0.529-  18 1.49  93 2.33  47 2.34  73 2.34
  68  0.839  0.643  0.555-  13 1.49  80 2.35  74 2.36  50 2.41
  69  0.402  0.276  0.358-  52 2.32  48 2.34  85 2.34
  70  0.520  0.294  0.578-   5 1.49  57 2.28  71 2.30  75 2.32
  71  0.594  0.307  0.506-  15 1.48  70 2.30 101 2.32 111 2.32
  72  0.038  0.764  0.399-  96 2.32  47 2.34 108 2.40
  73  0.154  0.681  0.604-  30 1.50  10 1.54  67 2.34  91 2.35
  74  0.858  0.780  0.512-  93 2.30 107 2.31  68 2.36  96 2.37
  75  0.364  0.318  0.569- 102 2.32  70 2.32  76 2.35  89 2.36
  76  0.346  0.372  0.491-  37 1.48   7 1.48  48 2.33  75 2.35
  77  0.434  0.883  0.390-   3 1.51 103 2.30  61 2.35 120 2.35
  78  0.731  0.332  0.647-  49 2.28  57 2.32 117 2.38
  79  0.632  0.755  0.396- 112 2.29  61 2.31  95 2.35 114 2.58
  80  0.861  0.500  0.518-  41 1.47  34 1.48  23 1.57  68 2.35
  81  0.199  0.915  0.470-  47 2.33 121 2.34  53 2.35  63 2.54 108 3.05
  82  0.522  0.652  0.629-  22 1.50  88 2.37  84 2.37  66 2.38
  83  0.158  0.152  0.584- 113 2.29 102 2.31  59 2.38  54 2.39
  84  0.391  0.749  0.629-  51 2.35  82 2.37
  85  0.457  0.125  0.356- 103 2.27  69 2.34  64 2.37
  86  0.021  0.286  0.353-  97 2.26 119 2.28 109 2.28
  87  0.514  0.808  0.510- 110 2.31 120 2.33  95 2.35  51 2.35
  88  0.480  0.501  0.651-  17 1.48  57 2.35  82 2.37  89 2.41
  89  0.337  0.445  0.619-  11 1.49 116 2.36  75 2.36  88 2.41
  90  0.920  0.016  0.646-  65 2.25 106 2.33  56 2.39
  91  0.041  0.757  0.649-  73 2.35 106 2.37  50 2.37
  92  0.265  0.143  0.462-  59 2.34  53 2.35  48 2.35 118 2.38
  93  0.990  0.841  0.544-  63 2.30  74 2.30 106 2.33  67 2.33
  94  0.657  0.287  0.374-  52 2.28  64 2.30  55 2.32
  95  0.588  0.690  0.469-   2 1.48   9 1.48  87 2.35  79 2.35
  96  0.894  0.799  0.430-  72 2.32 112 2.35  74 2.37 108 2.41
  97  0.913  0.395  0.362-  27 1.49  45 1.70  86 2.26  55 3.14
  98  0.786  0.608  0.664-  49 2.29  66 2.33  50 2.36
  99  0.999  0.199  0.472-  43 1.49 100 2.31  59 2.32 109 2.33
 100  0.935  0.084  0.518-  99 2.31 123 2.35  63 2.39  56 2.39
 101  0.520  0.193  0.464-  64 2.31 115 2.32  71 2.32  48 2.36
 102  0.314  0.174  0.593-  83 2.31  75 2.32 118 2.37
 103  0.354  0.009  0.364-  85 2.27  77 2.30  53 2.35
 104  0.087  0.393  0.616-  40 1.50 113 2.33  58 2.36 116 2.36
 105  0.074  0.024  0.372- 109 2.32 108 2.33  53 2.37
 106  0.023  0.906  0.618-  93 2.33  90 2.33  91 2.37  54 2.37
 107  0.743  0.889  0.510-  74 2.31 110 2.34 123 2.34 114 2.34
 108  0.008  0.918  0.424- 105 2.33  72 2.40  96 2.41  63 2.42  81 3.05
 109  0.989  0.153  0.392-  86 2.28 105 2.32 122 2.32  99 2.33
 110  0.617  0.878  0.562- 125 2.29  87 2.31 107 2.34 124 2.35
 111  0.753  0.298  0.511-  23 1.93  71 2.32  55 2.41 117 2.41
 112  0.771  0.820  0.378-  79 2.29  96 2.35 114 2.37
 113  0.045  0.239  0.618-  83 2.29  56 2.29 104 2.33
 114  0.685  0.908  0.433- 107 2.34  62 2.35 112 2.37 120 2.43  79 2.58
 115  0.496  0.057  0.504- 118 2.31 124 2.31 101 2.32 120 2.37
 116  0.218  0.376  0.664-  89 2.36 104 2.36
 117  0.780  0.226  0.587-  60 2.34  78 2.38  56 2.38 111 2.41
 118  0.345  0.077  0.528- 115 2.31 121 2.34 102 2.37  92 2.38
 119  0.175  0.309  0.343-   1 1.48  42 1.48   8 1.49  86 2.28
 120  0.525  0.927  0.455-  87 2.33  77 2.35 115 2.37 114 2.43
 121  0.278  0.934  0.542- 118 2.34  81 2.34  54 2.38  51 2.39
 122  0.830  0.153  0.388-  62 2.30  55 2.31 109 2.32
 123  0.780  0.045  0.507- 107 2.34 100 2.35  60 2.37  62 2.40
 124  0.561  0.026  0.577-  60 2.30 115 2.31 110 2.35
 125  0.702  0.830  0.626- 110 2.29  65 2.29  66 2.32

  LATTYP: Found a simple tetragonal cell.
 ALAT       =    14.5768472423
 C/A-ratio  =     1.9258044166
  
  Lattice vectors:
  
 A1 = (  14.5768472423,   0.0000000000,   0.0000000000)
 A2 = (   0.0000000000,  14.5768472423,   0.0000000000)
 A3 = (   0.0000000000,   0.0000000000,  28.0721568000)


Analysis of symmetry for initial positions (statically):
=====================================================================
 Subroutine PRICEL returns:
 Original cell was already a primitive cell.
 

 Routine SETGRP: Setting up the symmetry group for a 
 simple tetragonal supercell.


 Subroutine GETGRP returns: Found  1 space group operations
 (whereof  1 operations were pure point group operations)
 out of a pool of 16 trial point group operations.


The static configuration has the point symmetry C_1 .


Analysis of symmetry for dynamics (positions and initial velocities):
=====================================================================
 Subroutine PRICEL returns:
 Original cell was already a primitive cell.
 

 Routine SETGRP: Setting up the symmetry group for a 
 simple tetragonal supercell.


 Subroutine GETGRP returns: Found  1 space group operations
 (whereof  1 operations were pure point group operations)
 out of a pool of 16 trial point group operations.


The dynamic configuration has the point symmetry C_1 .


 Subroutine INISYM returns: Found  1 space group operations
 (whereof  1 operations are pure point group operations),
 and found     1 'primitive' translations


----------------------------------------------------------------------------------------

                                     Primitive cell                                     

  volume of cell :    5964.8975

  direct lattice vectors                    reciprocal lattice vectors
    14.576847242  0.000000000  0.000000000     0.068601940  0.000000000  0.000000000
     0.000000000 14.576847242  0.000000000     0.000000000  0.068601940  0.000000000
     0.000000000  0.000000000 28.072156800     0.000000000  0.000000000  0.035622486

  length of vectors
    14.576847242 14.576847242 28.072156800     0.068601940  0.068601940  0.035622486

  position of ions in fractional coordinates (direct lattice)
     0.207607424  0.236075625  0.311013641
     0.533702522  0.605008697  0.462488868
     0.365295519  0.814133340  0.408044198
     0.397369673  0.614879155  0.433925364
     0.533122482  0.199148924  0.597223635
     0.340849078  0.439772345  0.376169856
     0.255567103  0.414613791  0.482300839
     0.218179966  0.301467073  0.391189415
     0.672899573  0.660913914  0.493896064
     0.254989991  0.701649132  0.615329307
     0.295780205  0.520969303  0.590665016
     0.664376083  0.484685986  0.439883524
     0.738370050  0.644610138  0.565313836
     0.673565916  0.529433330  0.560964334
     0.570541790  0.398961145  0.486794347
     0.768362136  0.455293072  0.349196663
     0.477286808  0.498671376  0.703618188
     0.033569942  0.638569722  0.520250174
     0.418892961  0.572799675  0.551364726
     0.144273319  0.442347541  0.408086737
     0.322499056  0.476310368  0.392432052
     0.554571855  0.643936824  0.578605178
     0.787599156  0.422623293  0.527163736
     0.171448667  0.485388597  0.407653121
     0.646613561  0.477106223  0.415257503
     0.162754304  0.308695978  0.510764133
     0.953754513  0.483123139  0.378643558
     0.529149637  0.447706390  0.334164760
     0.447290131  0.532023042  0.545757989
     0.138621031  0.580038541  0.609245241
     0.046787420  0.555881846  0.456295339
     0.646389025  0.491607324  0.574191972
     0.318544744  0.729507813  0.524181534
     0.861706654  0.508440421  0.465678770
     0.029292436  0.510964293  0.447738220
     0.786771171  0.572502774  0.411585293
     0.415746955  0.444521984  0.482038183
     0.370571901  0.572352565  0.429632658
     0.229440613  0.700320568  0.442438794
     0.112815503  0.419672867  0.565871530
     0.948847818  0.459681598  0.532927076
     0.196586973  0.398123738  0.321315097
     0.953660907  0.289020446  0.478142242
     0.757776210  0.610261476  0.402271845
     0.855855323  0.363800981  0.412042978
     0.717567304  0.462610588  0.353239551
     0.154687197  0.764304852  0.456198681
     0.376287556  0.250680390  0.438963546
     0.821626060  0.459753474  0.645054826
     0.925690208  0.649620865  0.627854155
     0.372674659  0.800797757  0.550547928
     0.526049387  0.372425033  0.369774836
     0.219714110  0.025531069  0.409703421
     0.140468226  0.989013551  0.577613786
     0.779520008  0.282602557  0.427100145
     0.922864217  0.149280812  0.595856195
     0.594374311  0.400601451  0.624111109
     0.972089082  0.496027350  0.641719189
     0.144564612  0.209159462  0.505037560
     0.708710042  0.082780451  0.579768470
     0.531832886  0.804353102  0.337519502
     0.722693555  0.064126468  0.427015795
     0.046158258  0.966315587  0.504356518
     0.597552321  0.147416826  0.396067059
     0.777717042  0.968059387  0.626645385
     0.657352076  0.702654438  0.669150797
     0.091887914  0.720764205  0.529426407
     0.838560713  0.642924046  0.555014546
     0.401763702  0.275535799  0.357838189
     0.520081134  0.294137976  0.578498004
     0.594099899  0.307386837  0.506370289
     0.037599009  0.763725855  0.399212467
     0.153590131  0.680975189  0.603748921
     0.857936030  0.780422562  0.511855783
     0.363734318  0.318135165  0.569116072
     0.346420669  0.372438224  0.490633658
     0.434175392  0.882892020  0.390004728
     0.731494134  0.332330041  0.646619968
     0.632465931  0.754695231  0.395751741
     0.860726775  0.499749354  0.518079062
     0.198846273  0.915412332  0.469687326
     0.522228114  0.652460447  0.629116391
     0.158087016  0.151650332  0.584030037
     0.391429882  0.749477774  0.629413442
     0.456803982  0.124731243  0.355655756
     0.021181646  0.285930503  0.353028219
     0.514231990  0.808225761  0.510369961
     0.479868094  0.501148751  0.650955577
     0.336680995  0.445049085  0.619357853
     0.919915838  0.016317960  0.645555132
     0.041257675  0.756791946  0.649175113
     0.264888038  0.142880330  0.462191758
     0.989851121  0.840557847  0.544291117
     0.657385903  0.287385520  0.373902724
     0.588318313  0.689632548  0.468867943
     0.894286404  0.799287654  0.430169052
     0.912738394  0.395293209  0.361556771
     0.786197844  0.608424801  0.664375740
     0.999375570  0.198680889  0.471518451
     0.935487788  0.084130172  0.518006688
     0.519732954  0.193478069  0.463652743
     0.314211206  0.174283623  0.593218070
     0.353672559  0.009080134  0.364116087
     0.086687616  0.393357916  0.615817478
     0.073583110  0.024071897  0.372418503
     0.023251638  0.906473944  0.617728682
     0.742641630  0.889384854  0.510175489
     0.008419758  0.918181301  0.424322342
     0.988626826  0.152696067  0.392275480
     0.617114379  0.877566892  0.561749946
     0.752728834  0.298306530  0.511359603
     0.770707801  0.820149840  0.377529762
     0.045048120  0.238968822  0.617770743
     0.684895084  0.908028954  0.432959313
     0.495524628  0.056956500  0.504004335
     0.218292425  0.376427930  0.663988756
     0.779845803  0.226252492  0.587339695
     0.344711021  0.076957210  0.527532460
     0.174654000  0.308581009  0.343452534
     0.525252895  0.927298166  0.455314843
     0.277941024  0.933837269  0.541601081
     0.829694878  0.152571974  0.387877502
     0.780311139  0.045318682  0.506570504
     0.561481867  0.025679062  0.577219477
     0.702029804  0.830051769  0.625616573

  ion indices of the primitive-cell ions
   primitive index   ion index
                 1           1
                 2           2
                 3           3
                 4           4
                 5           5
                 6           6
                 7           7
                 8           8
                 9           9
                10          10
                11          11
                12          12
                13          13
                14          14
                15          15
                16          16
                17          17
                18          18
                19          19
                20          20
                21          21
                22          22
                23          23
                24          24
                25          25
                26          26
                27          27
                28          28
                29          29
                30          30
                31          31
                32          32
                33          33
                34          34
                35          35
                36          36
                37          37
                38          38
                39          39
                40          40
                41          41
                42          42
                43          43
                44          44
                45          45
                46          46
                47          47
                48          48
                49          49
                50          50
                51          51
                52          52
                53          53
                54          54
                55          55
                56          56
                57          57
                58          58
                59          59
                60          60
                61          61
                62          62
                63          63
                64          64
                65          65
                66          66
                67          67
                68          68
                69          69
                70          70
                71          71
                72          72
                73          73
                74          74
                75          75
                76          76
                77          77
                78          78
                79          79
                80          80
                81          81
                82          82
                83          83
                84          84
                85          85
                86          86
                87          87
                88          88
                89          89
                90          90
                91          91
                92          92
                93          93
                94          94
                95          95
                96          96
                97          97
                98          98
                99          99
               100         100
               101         101
               102         102
               103         103
               104         104
               105         105
               106         106
               107         107
               108         108
               109         109
               110         110
               111         111
               112         112
               113         113
               114         114
               115         115
               116         116
               117         117
               118         118
               119         119
               120         120
               121         121
               122         122
               123         123
               124         124
               125         125

----------------------------------------------------------------------------------------


 -----------------------------------------------------------------------------
|                                                                             |
|           W    W    AA    RRRRR   N    N  II  N    N   GGGG   !!!           |
|           W    W   A  A   R    R  NN   N  II  NN   N  G    G  !!!           |
|           W    W  A    A  R    R  N N  N  II  N N  N  G       !!!           |
|           W WW W  AAAAAA  RRRRR   N  N N  II  N  N N  G  GGG   !            |
|           WW  WW  A    A  R   R   N   NN  II  N   NN  G    G                |
|           W    W  A    A  R    R  N    N  II  N    N   GGGG   !!!           |
|                                                                             |
|     The requested file  could not be found or opened for reading            |
|     k-point information. Automatic k-point generation is used as a          |
|     fallback, which may lead to unwanted results.                           |
|                                                                             |
 -----------------------------------------------------------------------------



Automatic generation of k-mesh.
 Grid dimensions derived from KSPACING:
 generate k-points for:    2    2    1

 Generating k-lattice:

  Cartesian coordinates                     Fractional coordinates (reciprocal lattice)
     0.034300970  0.000000000  0.000000000     0.500000000  0.000000000  0.000000000
     0.000000000  0.034300970  0.000000000     0.000000000  0.500000000  0.000000000
     0.000000000  0.000000000  0.035622486     0.000000000  0.000000000  1.000000000

  Length of vectors
     0.034300970  0.034300970  0.035622486

  Shift w.r.t. Gamma in fractional coordinates (k-lattice)
     0.000000000  0.000000000  0.000000000

 
 Subroutine IBZKPT returns following result:
 ===========================================
 
 Found      4 irreducible k-points:
 
 Following reciprocal coordinates:
            Coordinates               Weight
  0.000000  0.000000  0.000000      1.000000
  0.500000  0.000000  0.000000      1.000000
  0.000000  0.500000  0.000000      1.000000
  0.500000  0.500000  0.000000      1.000000
 
 Following cartesian coordinates:
            Coordinates               Weight
  0.000000  0.000000  0.000000      1.000000
  0.034301  0.000000  0.000000      1.000000
  0.000000  0.034301  0.000000      1.000000
  0.034301  0.034301  0.000000      1.000000
 


--------------------------------------------------------------------------------------------------------




 Dimension of arrays:
   k-points           NKPTS =      4   k-points in BZ     NKDIM =      4   number of bands    NBANDS=    248
   number of dos      NEDOS =   2000   number of ions     NIONS =    125
   non local maximal  LDIM  =      4   non local SUM 2l+1 LMDIM =      8
   total plane-waves  NPLWV = ******
   max r-space proj   IRMAX =      1   max aug-charges    IRDMAX= 405153
   dimension x,y,z NGX =   168 NGY =  168 NGZ =  320
   dimension x,y,z NGXF=   336 NGYF=  336 NGZF=  640
   support grid    NGXF=   672 NGYF=  672 NGZF= 1280
   ions per type =              46  79
   NGX,Y,Z   is equivalent  to a cutoff of  19.16, 19.16, 18.95 a.u.
   NGXF,Y,Z  is equivalent  to a cutoff of  38.32, 38.32, 37.90 a.u.

 SYSTEM =  a-Si SPC                                
 POSCAR =   H Si                                   

 Startparameter for this run:
   NWRITE =      2    write-flag & timer
   PREC   = accura    normal or accurate (medium, high low for compatibility)
   ISTART =      1    job   : 0-new  1-cont  2-samecut
   ICHARG =      1    charge: 1-file 2-atom 10-const
   ISPIN  =      1    spin polarized calculation?
   LNONCOLLINEAR =      F non collinear calculations
   LSORBIT =      F    spin-orbit coupling
   INIWAV =      1    electr: 0-lowe 1-rand  2-diag
   LASPH  =      T    aspherical Exc in radial PAW
 Electronic Relaxation 1
   ENCUT  = 1200.0 eV  88.20 Ry    9.39 a.u.  41.17 41.17 79.29*2*pi/ulx,y,z
   ENINI  = 1200.0     initial cutoff
   ENAUG  =  400.0 eV  augmentation charge cutoff
   NELM   =    150;   NELMIN=  2; NELMDL=  0     # of ELM steps 
   EDIFF  = 0.1E-05   stopping-criterion for ELM
   LREAL  =      F    real-space projection
   NLSPLINE    = F    spline interpolate recip. space projectors
   LCOMPAT=      F    compatible to vasp.4.4
   GGA_COMPAT  = T    GGA compatible to vasp.4.4-vasp.4.6
   LMAXPAW     = -100 max onsite density
   LMAXMIX     =    2 max onsite mixed and CHGCAR
   VOSKOWN=      0    Vosko Wilk Nusair interpolation
   ROPT   =    0.00000   0.00000
 Ionic relaxation
   EDIFFG = -.1E-01   stopping-criterion for IOM
   NSW    =      0    number of steps for IOM
   NBLOCK =      1;   KBLOCK =      1    inner block; outer block 
   IBRION =     -1    ionic relax: 0-MD 1-quasi-New 2-CG
   NFREE  =      0    steps in history (QN), initial steepest desc. (CG)
   ISIF   =      2    stress and relaxation
   IWAVPR =     10    prediction:  0-non 1-charg 2-wave 3-comb
   ISYM   =      1    0-nonsym 1-usesym 2-fastsym
   LCORR  =      T    Harris-Foulkes like correction to forces

   POTIM  = 0.5000    time-step for ionic-motion
   TEIN   =    0.0    initial temperature
   TEBEG  =    0.0;   TEEND  =   0.0 temperature during run
   SMASS  =  -3.00    Nose mass-parameter (am)
   estimated Nose-frequenzy (Omega)   =  0.10E-29 period in steps = 0.13E+47 mass=  -0.486E-26a.u.
   SCALEE = 1.0000    scale energy and forces
   NPACO  =    256;   APACO  = 10.0  distance and # of slots for P.C.
   PSTRESS=    0.0 pullay stress

  Mass of Ions in am
   POMASS =   1.00 28.09
  Ionic Valenz
   ZVAL   =   1.00  4.00
  Atomic Wigner-Seitz radii
   RWIGS  =  -1.00 -1.00
  virtual crystal weights 
   VCA    =   1.00  1.00
   NELECT =     362.0000    total number of electrons
   NUPDOWN=      -1.0000    fix difference up-down

 DOS related values:
   EMIN   =  10.00;   EMAX   =-10.00  energy-range for DOS
   EFERMI =   0.00;   METHOD = LEGACY      
   ISMEAR =     0;   SIGMA  =   0.10  broadening in eV -4-tet -1-fermi 0-gaus
   EFERMI_NEDOS =   21; number of points for ismear=-14 and -15

 Electronic relaxation 2 (details)
   IALGO  =     38    algorithm
   LDIAG  =      F    sub-space diagonalisation (order eigenvalues)
   LSUBROT=      F    optimize rotation matrix (better conditioning)
   TURBO    =      0    0=normal 1=particle mesh
   IRESTART =      0    0=no restart 2=restart with 2 vectors
   NREBOOT  =      0    no. of reboots
   NMIN     =      0    reboot dimension
   EREF     =   0.00    reference energy to select bands
   IMIX   =      4    mixing-type and parameters
     AMIX     =   0.40;   BMIX     =  1.00
     AMIX_MAG =   1.60;   BMIX_MAG =  1.00
     AMIN     =   0.10
     WC   =   100.;   INIMIX=   1;  MIXPRE=   1;  MAXMIX= -45

 Intra band minimization:
   WEIMIN = 0.0000     energy-eigenvalue tresh-hold
   EBREAK =  0.10E-08  absolut break condition
   DEPER  =   0.30     relativ break condition  

   TIME   =   0.40     timestep for ELM

  volume/ion in A,a.u.               =      47.72       322.02
  Fermi-wavevector in a.u.,A,eV,Ry     =   0.643344  1.215744  5.631338  0.413892
  Thomas-Fermi vector in A             =   1.710313

 Write flags
   LWAVE        =      F    write WAVECAR
   LDOWNSAMPLE  =      F    k-point downsampling of WAVECAR
   LCHARG       =      F    write CHGCAR
   LVTOT        =      F    write LOCPOT, total local potential
   LVHAR        =      F    write LOCPOT, Hartree potential only
   WRT_POTENTIAL= false  ! write potential to hdf5 file
   LELF         =      F    write electronic localiz. function (ELF)
   LORBIT       =     11    0 simple, 1 ext, 2 COOP (PROOUT), +10 PAW based schemes


 Python interface
   PLUGINS active      =      F    recompile with -DPLUGINS to activate

 Dipole corrections
   LMONO      =      F    monopole corrections only (constant potential shift)
   LDIPOL     =      F    correct potential (dipole corrections)
   IDIPOL     =      0    1-x, 2-y, 3-z, 4-all directions 
   EPSILON    =  1.0000000 bulk dielectric constant
   LVACPOTAV  =      F  vacuum potentials using an averaging scheme for the charge density
   VACPOTFLAT =  0.1000000 required flatness to determine vacuum potential

Coulomb truncation method
  LTRUNCATE          =      F  Coulomb kernel truncation to be used
  IDIMENSIONALITY    =      3  Dimensionality of cutoff (0 molecules / 2 surfaces)
  ISURFACE           =     -1  Direction of surface normal
  LCOARSEN           =      F  Coarsen the charge grid before padding, preferred


 Exchange correlation treatment:
   METAGGA = SCAN    functional components
   XC_C    = 1    coefficients multiplying the functional components
   LIBXC   =     F    Libxc                    
   VOSKOWN =     0    Vosko Wilk Nusair interpolation
   LHFCALC =     F    Hartree Fock is set to
   LHFONE  =     F    Hartree Fock one center treatment
   AEXX    =    0.0000 exact exchange contribution

 Parameters of functionals:
   SCAN:
     P1 =  0.000000E+00
     P2 =  0.000000E+00
     P3 =  0.000000E+00

 Accuracy and mixing parameters for tau-dependent meta-GGA functionals:
   LMAXTAU = 6
   LMIXTAU = T

 Van der Waals corrections
   IVDW    =     0    specifies the selected vdW correction

 Linear response parameters
   LEPSILON=     F    determine dielectric tensor
   LRPA    =     F    only Hartree local field effects (RPA)
   LNABLA  =     F    use nabla operator in PAW spheres
   LVEL    =     F    velocity operator in full k-point grid
   CSHIFT  =0.1000    complex shift for real part using Kramers Kronig
   OMEGAMAX=  -1.0    maximum frequency
   DEG_THRESHOLD= 0.2000000E-02 threshold for treating states as degnerate
   RTIME   =   -0.100 relaxation time in fs
  (WPLASMAI=    0.000 imaginary part of plasma frequency in eV, 0.658/RTIME)
   DFIELD  = 0.0000000 0.0000000 0.0000000 field for delta impulse in time

  Optional k-point grid parameters
   LKPOINTS_OPT  =     F    use optional k-point grid
   KPOINTS_OPT_MODE=     1    mode for optional k-point grid

 Orbital magnetization related:
   ORBITALMAG=     F  switch on orbital magnetization
   LCHIMAG   =     F  perturbation theory with respect to B field
   DQ        =  0.001000  dq finite difference perturbation B field
   LLRAUG    =     F  two centre corrections for induced B field
   LBONE     =     F  B-component reconstruction in AE one-centre
   LVGVCALC  =     T  calculate vGv susceptibility
   LVGVAPPL  =     F  apply vGv susceptibility instead of pGv for G=0

 Random number generation:
   RANDOM_GENERATOR = DEFAULT
   PCG_SEED         = not used


--------------------------------------------------------------------------------------------------------


 Static calculation
 charge density and potential will be updated during run
 non-spin polarized calculation
 Variant of blocked Davidson
 perform Loewdin sub-space diagonalisation
    ordering is kept fixed
    before iterative eigenvector-optimisation
 modified Broyden-mixing scheme, WC =      100.0
 initial mixing is a Kerker type mixing with AMIX =  0.4000 and BMIX =      1.0000
 Hartree-type preconditioning will be used
 using additional bands           67
 reciprocal scheme for non local part
 use partial core corrections
 calculate Harris-corrections to forces   (improved forces if not selfconsistent)
 use gradient corrections 
 use of overlap-Matrix (Vanderbilt PP)
 Gauss-broadening in eV      SIGMA  =   0.10


--------------------------------------------------------------------------------------------------------


  energy-cutoff  :     1200.00
  volume of cell :     5964.90
      direct lattice vectors                 reciprocal lattice vectors
    14.576847242  0.000000000  0.000000000     0.068601940  0.000000000  0.000000000
     0.000000000 14.576847242  0.000000000     0.000000000  0.068601940  0.000000000
     0.000000000  0.000000000 28.072156800     0.000000000  0.000000000  0.035622486

  length of vectors
    14.576847242 14.576847242 28.072156800     0.068601940  0.068601940  0.035622486



 old parameters found on file WAVECAR:
  energy-cutoff  :     1200.00
  volume of cell :     5964.90
      direct lattice vectors                 reciprocal lattice vectors
    14.576847242  0.000000000  0.000000000     0.068601940  0.000000000  0.000000000
     0.000000000 14.576847242  0.000000000     0.000000000  0.068601940  0.000000000
     0.000000000  0.000000000 28.072156800     0.000000000  0.000000000  0.035622486

  length of vectors


 k-points in units of 2pi/SCALE and weight: read from INCAR                         
   0.00000000  0.00000000  0.00000000       0.250
   0.03430097  0.00000000  0.00000000       0.250
   0.00000000  0.03430097  0.00000000       0.250
   0.03430097  0.03430097  0.00000000       0.250

 k-points in reciprocal lattice and weights: read from INCAR                         
   0.00000000  0.00000000  0.00000000       0.250
   0.50000000  0.00000000  0.00000000       0.250
   0.00000000  0.50000000  0.00000000       0.250
   0.50000000  0.50000000  0.00000000       0.250

 position of ions in fractional coordinates (direct lattice) 
   0.20760742  0.23607562  0.31101364
   0.53370252  0.60500870  0.46248887
   0.36529552  0.81413334  0.40804420
   0.39736967  0.61487915  0.43392536
   0.53312248  0.19914892  0.59722364
   0.34084908  0.43977235  0.37616986
   0.25556710  0.41461379  0.48230084
   0.21817997  0.30146707  0.39118941
   0.67289957  0.66091391  0.49389606
   0.25498999  0.70164913  0.61532931
   0.29578020  0.52096930  0.59066502
   0.66437608  0.48468599  0.43988352
   0.73837005  0.64461014  0.56531384
   0.67356592  0.52943333  0.56096433
   0.57054179  0.39896115  0.48679435
   0.76836214  0.45529307  0.34919666
   0.47728681  0.49867138  0.70361819
   0.03356994  0.63856972  0.52025017
   0.41889296  0.57279967  0.55136473
   0.14427332  0.44234754  0.40808674
   0.32249906  0.47631037  0.39243205
   0.55457185  0.64393682  0.57860518
   0.78759916  0.42262329  0.52716374
   0.17144867  0.48538860  0.40765312
   0.64661356  0.47710622  0.41525750
   0.16275430  0.30869598  0.51076413
   0.95375451  0.48312314  0.37864356
   0.52914964  0.44770639  0.33416476
   0.44729013  0.53202304  0.54575799
   0.13862103  0.58003854  0.60924524
   0.04678742  0.55588185  0.45629534
   0.64638902  0.49160732  0.57419197
   0.31854474  0.72950781  0.52418153
   0.86170665  0.50844042  0.46567877
   0.02929244  0.51096429  0.44773822
   0.78677117  0.57250277  0.41158529
   0.41574695  0.44452198  0.48203818
   0.37057190  0.57235257  0.42963266
   0.22944061  0.70032057  0.44243879
   0.11281550  0.41967287  0.56587153
   0.94884782  0.45968160  0.53292708
   0.19658697  0.39812374  0.32131510
   0.95366091  0.28902045  0.47814224
   0.75777621  0.61026148  0.40227184
   0.85585532  0.36380098  0.41204298
   0.71756730  0.46261059  0.35323955
   0.15468720  0.76430485  0.45619868
   0.37628756  0.25068039  0.43896355
   0.82162606  0.45975347  0.64505483
   0.92569021  0.64962086  0.62785416
   0.37267466  0.80079776  0.55054793
   0.52604939  0.37242503  0.36977484
   0.21971411  0.02553107  0.40970342
   0.14046823  0.98901355  0.57761379
   0.77952001  0.28260256  0.42710014
   0.92286422  0.14928081  0.59585620
   0.59437431  0.40060145  0.62411111
   0.97208908  0.49602735  0.64171919
   0.14456461  0.20915946  0.50503756
   0.70871004  0.08278045  0.57976847
   0.53183289  0.80435310  0.33751950
   0.72269356  0.06412647  0.42701580
   0.04615826  0.96631559  0.50435652
   0.59755232  0.14741683  0.39606706
   0.77771704  0.96805939  0.62664538
   0.65735208  0.70265444  0.66915080
   0.09188791  0.72076421  0.52942641
   0.83856071  0.64292405  0.55501455
   0.40176370  0.27553580  0.35783819
   0.52008113  0.29413798  0.57849800
   0.59409990  0.30738684  0.50637029
   0.03759901  0.76372585  0.39921247
   0.15359013  0.68097519  0.60374892
   0.85793603  0.78042256  0.51185578
   0.36373432  0.31813516  0.56911607
   0.34642067  0.37243822  0.49063366
   0.43417539  0.88289202  0.39000473
   0.73149413  0.33233004  0.64661997
   0.63246593  0.75469523  0.39575174
   0.86072677  0.49974935  0.51807906
   0.19884627  0.91541233  0.46968733
   0.52222811  0.65246045  0.62911639
   0.15808702  0.15165033  0.58403004
   0.39142988  0.74947777  0.62941344
   0.45680398  0.12473124  0.35565576
   0.02118165  0.28593050  0.35302822
   0.51423199  0.80822576  0.51036996
   0.47986809  0.50114875  0.65095558
   0.33668099  0.44504909  0.61935785
   0.91991584  0.01631796  0.64555513
   0.04125767  0.75679195  0.64917511
   0.26488804  0.14288033  0.46219176
   0.98985112  0.84055785  0.54429112
   0.65738590  0.28738552  0.37390272
   0.58831831  0.68963255  0.46886794
   0.89428640  0.79928765  0.43016905
   0.91273839  0.39529321  0.36155677
   0.78619784  0.60842480  0.66437574
   0.99937557  0.19868089  0.47151845
   0.93548779  0.08413017  0.51800669
   0.51973295  0.19347807  0.46365274
   0.31421121  0.17428362  0.59321807
   0.35367256  0.00908013  0.36411609
   0.08668762  0.39335792  0.61581748
   0.07358311  0.02407190  0.37241850
   0.02325164  0.90647394  0.61772868
   0.74264163  0.88938485  0.51017549
   0.00841976  0.91818130  0.42432234
   0.98862683  0.15269607  0.39227548
   0.61711438  0.87756689  0.56174995
   0.75272883  0.29830653  0.51135960
   0.77070780  0.82014984  0.37752976
   0.04504812  0.23896882  0.61777074
   0.68489508  0.90802895  0.43295931
   0.49552463  0.05695650  0.50400434
   0.21829243  0.37642793  0.66398876
   0.77984580  0.22625249  0.58733969
   0.34471102  0.07695721  0.52753246
   0.17465400  0.30858101  0.34345253
   0.52525290  0.92729817  0.45531484
   0.27794102  0.93383727  0.54160108
   0.82969488  0.15257197  0.38787750
   0.78031114  0.04531868  0.50657050
   0.56148187  0.02567906  0.57721948
   0.70202980  0.83005177  0.62561657

 position of ions in cartesian coordinates  (Angst):
   3.02626171  3.44123832  8.73082371
   7.77970013  8.81911935 12.98306001
   5.32485698 11.86749733 11.45468071
   5.79239702  8.96299951 12.18122086
   7.77124498  2.90296344 16.76535554
   4.96850494  6.41049430 10.55989919
   3.72536262  6.04376190 13.53922478
   3.18037604  4.39443947 10.98153059
   9.80875428  9.63404116 13.86472774
   3.71695014 10.22783222 17.27362078
   4.31154286  7.59408995 16.58124094
   9.68450868  7.06519358 12.34847926
  10.76310742  9.39638351 15.86957864
   9.81846747  7.71746878 15.74747875
   8.31670052  5.81559567 13.66536724
  11.20029749  6.63673756  9.80270347
   6.95733689  7.26905647 19.75208010
   0.48934391  9.30833329 14.60454447
   6.10613870  8.34961336 15.47799704
   2.10305013  6.44803254 11.45587488
   4.70101948  6.94310348 11.01641410
   8.08390921  9.38656871 16.24269528
  11.48071259  6.16051518 14.79862305
   2.49918103  7.07543543 11.44370232
   9.42558711  6.95470453 11.65717374
   2.37244463  4.49981411 14.33825082
  13.90273384  7.04241219 10.62934132
   7.71333342  6.52614766  9.38072553
   6.52007991  7.75521861 15.32060383
   2.02065759  8.45513321 17.10282794
   0.68201307  8.10300476 12.80919429
   9.42231407  7.16608487 16.11880708
   4.64337808 10.63392395 14.71490621
  12.56096627  7.41145835 13.07260744
   0.42699136  7.44824845 12.56897751
  11.46864317  8.34528548 11.55408689
   6.06027985  6.47972906 13.53185147
   5.40177000  8.34309591 12.06071534
   3.34452076 10.20846594 12.42021120
   1.64449436  6.11750727 15.88523433
  13.83120970  6.70070844 14.96041244
   2.86561827  5.80338891  9.02000779
  13.90136936  4.21300689 13.42248399
  11.04598805  8.89568831 11.29263830
  12.47567231  5.30307132 11.56693508
  10.45986898  6.74340387  9.91619606
   2.25485164 11.14115508 12.80648090
   5.48508623  3.65412975 12.32265348
  11.97671756  6.70175616 18.10808023
  13.49364475  9.46942411 17.62522029
   5.43242157 11.67310657 15.45506775
   7.66814155  5.42878281 10.38037719
   3.20273902  0.37216250 11.50125867
   2.04758388 14.41669946 16.21486478
  11.36294408  4.11945430 11.98962223
  13.45245072  2.17604359 16.72696854
   8.66410354  5.83950616 17.52014490
  14.16999406  7.23051491 18.01444169
   2.10729626  3.04888553 14.17749357
  10.33075802  1.20667799 16.27535139
   7.75244674 11.72493230  9.47490037
  10.53459356  0.93476173 11.98725436
   0.67284187 14.08583470 14.15837527
   8.71042890  2.14887255 11.11845657
  11.33666252 14.11125380 17.59128750
   9.58212080 10.24248640 18.78450611
   1.33943609 10.50646972 14.86214110
  12.22357141  9.37180560 15.58045536
   5.85644811  4.01644325 10.04528975
   7.58114324  4.28760434 16.23968669
   8.66010347  4.48073097 14.21490615
   0.54807501 11.13271512 11.20675498
   2.23885988  9.92647131 16.94853438
  12.50600246 11.37610047 14.36889581
   5.30209959  4.63740770 15.97631561
   5.04972117  5.42897510 13.77314497
   6.32890837 12.86978211 10.94827389
  10.66287825  4.84432424 18.15201714
   9.21935926 11.00107710 11.10960492
  12.54668271  7.28476999 14.54359666
   2.89855175 13.34382572 13.18513625
   7.61243944  9.51081627 17.66065396
   2.30441028  2.21058372 16.39498277
   5.70581359 10.92502303 17.66899283
   6.65876187  1.81818827  9.98402416
   0.30876162  4.16796526  9.91026351
   7.49588117 11.78138345 14.32718558
   6.99496390  7.30516879 18.27372703
   4.90774743  6.48741253 17.38671077
  13.40947264  0.23786441 18.12212490
   0.60140682 11.03164059 18.22374557
   3.86123246  2.08274475 12.97471951
  14.42890858 12.25268333 15.27942557
   9.58261388  4.18917482 10.49625591
   8.57582618 10.05266831 13.16213441
  13.03587630 11.65109403 12.07577307
  13.30484814  5.76212873 10.14967838
  11.46028588  8.86891538 18.65045995
  14.56774502  2.89614097 13.23653988
  13.63646259  1.22635267 14.54156496
   7.57606788  2.82030025 13.01573251
   4.58020875  2.54050575 16.65291069
   5.15543086  0.13235972 10.22152388
   1.26363214  5.73391825 17.28732480
   1.07260975  0.35089236 10.45459060
   0.33893558 13.21353221 17.34097641
  10.82537359 12.96442715 14.32172633
   0.12273353 13.38418856 11.91164331
  14.41106222  2.22582724 11.01201879
   8.99558203 12.79215853 15.76953256
  10.97241323  4.34836872 14.35496695
  11.23448989 11.95519894 10.59807467
   0.65665957  3.48341201 17.34215717
   9.98361102 13.23619936 12.15410172
   7.22318681  0.83024620 14.14848873
   3.18201534  5.48713243 18.63959648
  11.36769315  3.29804801 16.48789201
   5.02479989  1.12179350 14.80897393
   2.54590468  4.49813823  9.64145339
   7.65653122 13.51708372 12.78166968
   4.05150385 13.61240322 15.20391048
  12.09433550  2.22401836 10.88855806
  11.37447627  0.66060351 14.22052663
   8.18463541  0.37431976 16.20379568
  10.23338121 12.09953784 17.56240652



--------------------------------------------------------------------------------------------------------


 k-point     1 :   0.0000 0.0000 0.0000  plane waves:  563111
 k-point     2 :   0.5000 0.0000 0.0000  plane waves:  563054
 k-point     3 :   0.0000 0.5000 0.0000  plane waves:  563054
 k-point     4 :   0.5000 0.5000 0.0000  plane waves:  563060

 maximum and minimum number of plane-waves per node :     35290    35102

 maximum number of plane-waves:    563111
 maximum index in each direction: 
   IXMAX=   41   IYMAX=   41   IZMAX=   79
   IXMIN=  -41   IYMIN=  -41   IZMIN=  -79


 parallel 3D FFT for wavefunctions:
    minimum data exchange during FFTs selected (reduces bandwidth)
 parallel 3D FFT for charge:
    minimum data exchange during FFTs selected (reduces bandwidth)


 total amount of memory used by VASP MPI-rank0   381356. kBytes
=======================================================================

   base                                    :      30000. kBytes
   nonl-proj                               :      88482. kBytes
   fftplans                                :     108864. kBytes
   grid                                    :      83991. kBytes
   one-center                              :         24. kBytes
   wavefun                                 :      69995. kBytes

     INWAV:  cpu time     20.4436: real time     20.4573
 Broyden mixing: mesh for mixing (old mesh)
   NGX = 83   NGY = 83   NGZ =159
  (NGX  =336   NGY  =336   NGZ  =640)
  gives a total of ****** points

 initial charge density was supplied:
 number of electron     361.9999999 magnetization 
 keeping initial charge density in first step


--------------------------------------------------------------------------------------------------------


 Maximum index for augmentation-charges        11289 (set IRDMAX)


--------------------------------------------------------------------------------------------------------


 First call to EWALD:  gamma=   0.098
 Maximum number of real-space cells   3x   3x   2
 Maximum number of reciprocal cells   2x   2x   4

    FEWALD:  cpu time      0.0188: real time      0.0189


--------------------------------------- Ionic step        1  -------------------------------------------




--------------------------------------- Iteration      1(   1)  ---------------------------------------


    POTLOK:  cpu time      2.1699: real time      2.1722
    SETDIJ:  cpu time      1.9076: real time      1.9090
    EDDIAG:  cpu time     41.4211: real time     41.4467
     EDDAV:  cpu time    202.0143: real time    202.1166
       DOS:  cpu time      0.0069: real time      0.0070
    CHARGE:  cpu time     24.0107: real time     24.0327
    MIXING:  cpu time      0.0483: real time      0.0490
    --------------------------------------------
      LOOP:  cpu time    271.5790: real time    271.7332

 eigenvalue-minimisations  :  2104
 total energy-change (2. order) :-0.9596608E+03  (-0.1075645E+01)
 number of electron     361.9999999 magnetization 
 augmentation part      -16.9609553 magnetization 

 Broyden mixing:
  rms(total) = 0.11178E+01    rms(broyden)= 0.28099E+02
  rms(prec ) = 0.11550E+01
  weight for this iteration     100.00
  WARNING: grid for Broyden might be to small

 Free energy of the ion-electron system (eV)
  ---------------------------------------------------
  alpha Z        PSCENC =        47.14944627
  Ewald energy   TEWEN  =     49519.10738692
  -Hartree energ DENC   =    -57142.96985893
  -exchange      EXHF   =         0.00000000
  -V(xc)+E(xc)   XCENC  =      -244.93639099
  PAW double counting   =     31715.31130222   -30928.90064014
  entropy T*S    EENTRO =        -0.14710411
  eigenvalues    EBANDS =     -2641.01957905
  atomic energy  EATOM  =      8716.74468240
  Solvation  Ediel_sol  =         0.00000000
  ---------------------------------------------------
  free energy    TOTEN  =      -959.66075543 eV

  energy without entropy =     -959.51365131  energy(sigma->0) =     -959.58720337


--------------------------------------------------------------------------------------------------------




--------------------------------------- Iteration      1(   2)  ---------------------------------------


    POTLOK:  cpu time      2.1605: real time      2.1625
    SETDIJ:  cpu time      1.9097: real time      1.9113
    EDDIAG:  cpu time     41.3939: real time     41.4181
     EDDAV:  cpu time    197.8137: real time    197.9193
       DOS:  cpu time      0.0022: real time      0.0022
    CHARGE:  cpu time     23.9144: real time     23.9354
    MIXING:  cpu time      0.0426: real time      0.0430
    --------------------------------------------
      LOOP:  cpu time    267.2371: real time    267.3918

 eigenvalue-minimisations  :  2032
 total energy-change (2. order) : 0.6455075E+02  (-0.1088872E+01)
 number of electron     361.9999999 magnetization 
 augmentation part      -16.9110452 magnetization 

 Broyden mixing:
  rms(total) = 0.76451E+00    rms(broyden)= 0.16142E+02
  rms(prec ) = 0.78421E+00
  weight for this iteration     100.00
  WARNING: grid for Broyden might be to small

 eigenvalues of (default mixing * dielectric matrix)
  average eigenvalue GAMMA=   0.6352
  0.6352

 Free energy of the ion-electron system (eV)
  ---------------------------------------------------
  alpha Z        PSCENC =        47.14944627
  Ewald energy   TEWEN  =     49519.10738692
  -Hartree energ DENC   =    -57129.44378725
  -exchange      EXHF   =         0.00000000
  -V(xc)+E(xc)   XCENC  =      -239.50887452
  PAW double counting   =     37686.58238230   -36899.90394300
  entropy T*S    EENTRO =        -0.13400294
  eigenvalues    EBANDS =     -2595.70329668
  atomic energy  EATOM  =      8716.74468240
  Solvation  Ediel_sol  =         0.00000000
  ---------------------------------------------------
  free energy    TOTEN  =      -895.11000650 eV

  energy without entropy =     -894.97600356  energy(sigma->0) =     -895.04300503


--------------------------------------------------------------------------------------------------------




--------------------------------------- Iteration      1(   3)  ---------------------------------------


    POTLOK:  cpu time      2.1633: real time      2.1807
    SETDIJ:  cpu time      1.9165: real time      1.9176
    EDDIAG:  cpu time     41.4642: real time     41.4884
     EDDAV:  cpu time    197.0520: real time    197.1579
       DOS:  cpu time      0.0036: real time      0.0036
    CHARGE:  cpu time     23.9050: real time     23.9258
    MIXING:  cpu time      0.0429: real time      0.0429
    --------------------------------------------
      LOOP:  cpu time    266.5475: real time    266.7169

 eigenvalue-minimisations  :  2016
 total energy-change (2. order) :-0.2263559E+01  (-0.7304518E+00)
 number of electron     361.9999999 magnetization 
 augmentation part      -16.8618494 magnetization 

 Broyden mixing:
  rms(total) = 0.35295E+00    rms(broyden)= 0.21163E+02
  rms(prec ) = 0.41977E+00
  weight for this iteration     100.00
  WARNING: grid for Broyden might be to small

 eigenvalues of (default mixing * dielectric matrix)
  average eigenvalue GAMMA=   0.6836
  0.7469  0.6202

 Free energy of the ion-electron system (eV)
  ---------------------------------------------------
  alpha Z        PSCENC =        47.14944627
  Ewald energy   TEWEN  =     49519.10738692
  -Hartree energ DENC   =    -57131.84039760
  -exchange      EXHF   =         0.00000000
  -V(xc)+E(xc)   XCENC  =      -241.16391082
  PAW double counting   =     44329.42180266   -43542.87680543
  entropy T*S    EENTRO =        -0.13995057
  eigenvalues    EBANDS =     -2593.77581966
  atomic energy  EATOM  =      8716.74468240
  Solvation  Ediel_sol  =         0.00000000
  ---------------------------------------------------
  free energy    TOTEN  =      -897.37356584 eV

  energy without entropy =     -897.23361526  energy(sigma->0) =     -897.30359055


--------------------------------------------------------------------------------------------------------




--------------------------------------- Iteration      1(   4)  ---------------------------------------


    POTLOK:  cpu time      2.1402: real time      2.1578
    SETDIJ:  cpu time      1.9074: real time      1.9089
    EDDIAG:  cpu time     41.4715: real time     41.4966
     EDDAV:  cpu time    203.4668: real time    203.5797
       DOS:  cpu time      0.0027: real time      0.0027
    CHARGE:  cpu time     23.8978: real time     23.9194
    MIXING:  cpu time      0.0417: real time      0.0418
    --------------------------------------------
      LOOP:  cpu time    272.9282: real time    273.1069

 eigenvalue-minimisations  :  2128
 total energy-change (2. order) : 0.3261746E+00  (-0.1011955E+00)
 number of electron     361.9999999 magnetization 
 augmentation part      -16.8587233 magnetization 

 Broyden mixing:
  rms(total) = 0.71080E-01    rms(broyden)= 0.17113E+01
  rms(prec ) = 0.94051E-01
  weight for this iteration     100.00
  WARNING: grid for Broyden might be to small

 eigenvalues of (default mixing * dielectric matrix)
  average eigenvalue GAMMA=   0.9813
  1.7524  0.6408  0.5507

 Free energy of the ion-electron system (eV)
  ---------------------------------------------------
  alpha Z        PSCENC =        47.14944627
  Ewald energy   TEWEN  =     49519.10738692
  -Hartree energ DENC   =    -57132.98860531
  -exchange      EXHF   =         0.00000000
  -V(xc)+E(xc)   XCENC  =      -241.04802115
  PAW double counting   =     50175.29140768   -49388.80658619
  entropy T*S    EENTRO =        -0.14003779
  eigenvalues    EBANDS =     -2592.35706406
  atomic energy  EATOM  =      8716.74468240
  Solvation  Ediel_sol  =         0.00000000
  ---------------------------------------------------
  free energy    TOTEN  =      -897.04739123 eV

  energy without entropy =     -896.90735344  energy(sigma->0) =     -896.97737234


--------------------------------------------------------------------------------------------------------




--------------------------------------- Iteration      1(   5)  ---------------------------------------


    POTLOK:  cpu time      2.1300: real time      2.1596
    SETDIJ:  cpu time      1.9065: real time      1.9079
    EDDIAG:  cpu time     41.4860: real time     41.5127
     EDDAV:  cpu time    215.0758: real time    215.1975
       DOS:  cpu time      0.0022: real time      0.0022
    CHARGE:  cpu time     23.9050: real time     23.9278
    MIXING:  cpu time      0.0419: real time      0.0420
    --------------------------------------------
      LOOP:  cpu time    284.5474: real time    284.7497

 eigenvalue-minimisations  :  2336
 total energy-change (2. order) :-0.1410142E-01  (-0.1562844E-01)
 number of electron     361.9999999 magnetization 
 augmentation part      -16.8571837 magnetization 

 Broyden mixing:
  rms(total) = 0.46328E-01    rms(broyden)= 0.93381E+00
  rms(prec ) = 0.62639E-01
  weight for this iteration     100.00
  WARNING: grid for Broyden might be to small

 eigenvalues of (default mixing * dielectric matrix)
  average eigenvalue GAMMA=   1.0819
  2.4253  0.7383  0.6130  0.5508

 Free energy of the ion-electron system (eV)
  ---------------------------------------------------
  alpha Z        PSCENC =        47.14944627
  Ewald energy   TEWEN  =     49519.10738692
  -Hartree energ DENC   =    -57134.99800991
  -exchange      EXHF   =         0.00000000
  -V(xc)+E(xc)   XCENC  =      -241.84948856
  PAW double counting   =     49951.57370150   -49165.07135931
  entropy T*S    EENTRO =        -0.13643474
  eigenvalues    EBANDS =     -2589.58141722
  atomic energy  EATOM  =      8716.74468240
  Solvation  Ediel_sol  =         0.00000000
  ---------------------------------------------------
  free energy    TOTEN  =      -897.06149265 eV

  energy without entropy =     -896.92505791  energy(sigma->0) =     -896.99327528


--------------------------------------------------------------------------------------------------------




--------------------------------------- Iteration      1(   6)  ---------------------------------------


    POTLOK:  cpu time      2.1333: real time      2.1584
    SETDIJ:  cpu time      1.9072: real time      1.9084
    EDDIAG:  cpu time     41.4227: real time     41.4504
     EDDAV:  cpu time    211.9920: real time    212.1039
       DOS:  cpu time      0.0044: real time      0.0044
    CHARGE:  cpu time     23.8905: real time     23.9137
    MIXING:  cpu time      0.0436: real time      0.0436
    --------------------------------------------
      LOOP:  cpu time    281.3937: real time    281.5830

 eigenvalue-minimisations  :  2280
 total energy-change (2. order) : 0.2553259E-02  (-0.3318003E-02)
 number of electron     361.9999999 magnetization 
 augmentation part      -16.8573987 magnetization 

 Broyden mixing:
  rms(total) = 0.26880E-01    rms(broyden)= 0.11186E+00
  rms(prec ) = 0.32185E-01
  weight for this iteration     100.00
  WARNING: grid for Broyden might be to small

 eigenvalues of (default mixing * dielectric matrix)
  average eigenvalue GAMMA=   1.0286
  2.5562  0.8759  0.6260  0.6260  0.4587

 Free energy of the ion-electron system (eV)
  ---------------------------------------------------
  alpha Z        PSCENC =        47.14944627
  Ewald energy   TEWEN  =     49519.10738692
  -Hartree energ DENC   =    -57134.64940363
  -exchange      EXHF   =         0.00000000
  -V(xc)+E(xc)   XCENC  =      -242.06394252
  PAW double counting   =     49813.43020938   -49026.91773090
  entropy T*S    EENTRO =        -0.14051258
  eigenvalues    EBANDS =     -2589.71907473
  atomic energy  EATOM  =      8716.74468240
  Solvation  Ediel_sol  =         0.00000000
  ---------------------------------------------------
  free energy    TOTEN  =      -897.05893940 eV

  energy without entropy =     -896.91842682  energy(sigma->0) =     -896.98868311


--------------------------------------------------------------------------------------------------------




--------------------------------------- Iteration      1(   7)  ---------------------------------------


    POTLOK:  cpu time      2.1313: real time      2.1583
    SETDIJ:  cpu time      1.8980: real time      1.8991
    EDDIAG:  cpu time     41.4188: real time     41.4459
     EDDAV:  cpu time    202.0140: real time    202.1159
       DOS:  cpu time      0.0031: real time      0.0031
    CHARGE:  cpu time     23.8919: real time     23.9129
    MIXING:  cpu time      0.0430: real time      0.0430
    --------------------------------------------
      LOOP:  cpu time    271.4001: real time    271.5782

 eigenvalue-minimisations  :  2096
 total energy-change (2. order) :-0.3488047E-04  (-0.1091256E-02)
 number of electron     361.9999999 magnetization 
 augmentation part      -16.8561746 magnetization 

 Broyden mixing:
  rms(total) = 0.17668E-01    rms(broyden)= 0.84878E-01
  rms(prec ) = 0.19915E-01
  weight for this iteration     100.00
  WARNING: grid for Broyden might be to small

 eigenvalues of (default mixing * dielectric matrix)
  average eigenvalue GAMMA=   0.9701
  2.5796  1.0083  0.6865  0.6160  0.5649  0.3653

 Free energy of the ion-electron system (eV)
  ---------------------------------------------------
  alpha Z        PSCENC =        47.14944627
  Ewald energy   TEWEN  =     49519.10738692
  -Hartree energ DENC   =    -57134.68676602
  -exchange      EXHF   =         0.00000000
  -V(xc)+E(xc)   XCENC  =      -242.00946208
  PAW double counting   =     49756.35265491   -48969.83037290
  entropy T*S    EENTRO =        -0.14071911
  eigenvalues    EBANDS =     -2589.74582467
  atomic energy  EATOM  =      8716.74468240
  Solvation  Ediel_sol  =         0.00000000
  ---------------------------------------------------
  free energy    TOTEN  =      -897.05897428 eV

  energy without entropy =     -896.91825517  energy(sigma->0) =     -896.98861472


--------------------------------------------------------------------------------------------------------




--------------------------------------- Iteration      1(   8)  ---------------------------------------


    POTLOK:  cpu time      2.1283: real time      2.1545
    SETDIJ:  cpu time      1.8976: real time      1.8988
    EDDIAG:  cpu time     41.4205: real time     41.4462
     EDDAV:  cpu time    202.0442: real time    202.1439
       DOS:  cpu time      0.0023: real time      0.0023
    CHARGE:  cpu time     23.9012: real time     23.9238
    MIXING:  cpu time      0.0435: real time      0.0435
    --------------------------------------------
      LOOP:  cpu time    271.4377: real time    271.6131

 eigenvalue-minimisations  :  2096
 total energy-change (2. order) :-0.4112319E-03  (-0.4751041E-03)
 number of electron     361.9999999 magnetization 
 augmentation part      -16.8542530 magnetization 

 Broyden mixing:
  rms(total) = 0.84889E-02    rms(broyden)= 0.65667E-01
  rms(prec ) = 0.96338E-02
  weight for this iteration     100.00
  WARNING: grid for Broyden might be to small

 eigenvalues of (default mixing * dielectric matrix)
  average eigenvalue GAMMA=   0.9670
  2.5731  1.1847  0.7652  0.7216  0.6303  0.5177  0.3765

 Free energy of the ion-electron system (eV)
  ---------------------------------------------------
  alpha Z        PSCENC =        47.14944627
  Ewald energy   TEWEN  =     49519.10738692
  -Hartree energ DENC   =    -57134.54760093
  -exchange      EXHF   =         0.00000000
  -V(xc)+E(xc)   XCENC  =      -241.86652106
  PAW double counting   =     49758.65213615   -48972.11899873
  entropy T*S    EENTRO =        -0.14069887
  eigenvalues    EBANDS =     -2590.03921765
  atomic energy  EATOM  =      8716.74468240
  Solvation  Ediel_sol  =         0.00000000
  ---------------------------------------------------
  free energy    TOTEN  =      -897.05938551 eV

  energy without entropy =     -896.91868664  energy(sigma->0) =     -896.98903607


--------------------------------------------------------------------------------------------------------




--------------------------------------- Iteration      1(   9)  ---------------------------------------


    POTLOK:  cpu time      2.1346: real time      2.1577
    SETDIJ:  cpu time      1.9021: real time      1.9032
    EDDIAG:  cpu time     41.4447: real time     41.4743
     EDDAV:  cpu time    201.4178: real time    201.5292
       DOS:  cpu time      0.0029: real time      0.0029
    CHARGE:  cpu time     23.8699: real time     23.8920
    MIXING:  cpu time      0.0444: real time      0.0444
    --------------------------------------------
      LOOP:  cpu time    270.8166: real time    271.0040

 eigenvalue-minimisations  :  2088
 total energy-change (2. order) :-0.3107329E-03  (-0.1567484E-03)
 number of electron     361.9999999 magnetization 
 augmentation part      -16.8539634 magnetization 

 Broyden mixing:
  rms(total) = 0.36683E-02    rms(broyden)= 0.34958E-01
  rms(prec ) = 0.44488E-02
  weight for this iteration     100.00
  WARNING: grid for Broyden might be to small

 eigenvalues of (default mixing * dielectric matrix)
  average eigenvalue GAMMA=   0.9872
  2.5603  1.6458  0.8774  0.7046  0.6265  0.5974  0.4933  0.3925

 Free energy of the ion-electron system (eV)
  ---------------------------------------------------
  alpha Z        PSCENC =        47.14944627
  Ewald energy   TEWEN  =     49519.10738692
  -Hartree energ DENC   =    -57134.39355336
  -exchange      EXHF   =         0.00000000
  -V(xc)+E(xc)   XCENC  =      -241.81481207
  PAW double counting   =     49772.42863222   -48985.88809487
  entropy T*S    EENTRO =        -0.14047614
  eigenvalues    EBANDS =     -2590.25290761
  atomic energy  EATOM  =      8716.74468240
  Solvation  Ediel_sol  =         0.00000000
  ---------------------------------------------------
  free energy    TOTEN  =      -897.05969624 eV

  energy without entropy =     -896.91922010  energy(sigma->0) =     -896.98945817


--------------------------------------------------------------------------------------------------------




--------------------------------------- Iteration      1(  10)  ---------------------------------------


    POTLOK:  cpu time      2.1405: real time      2.1709
    SETDIJ:  cpu time      1.9015: real time      1.9025
    EDDIAG:  cpu time     41.4282: real time     41.4520
     EDDAV:  cpu time    204.3839: real time    204.4928
       DOS:  cpu time      0.0091: real time      0.0092
    CHARGE:  cpu time     23.8830: real time     23.9171
    MIXING:  cpu time      0.0605: real time      0.0609
    --------------------------------------------
      LOOP:  cpu time    273.8065: real time    274.0052

 eigenvalue-minimisations  :  2144
 total energy-change (2. order) : 0.4333232E-04  (-0.5749522E-04)
 number of electron     361.9999999 magnetization 
 augmentation part      -16.8538920 magnetization 

 Broyden mixing:
  rms(total) = 0.18544E-02    rms(broyden)= 0.14187E-01
  rms(prec ) = 0.21807E-02
  weight for this iteration     100.00
  WARNING: grid for Broyden might be to small

 eigenvalues of (default mixing * dielectric matrix)
  average eigenvalue GAMMA=   1.0648
  2.4977  2.4977  1.0097  0.8476  0.6557  0.6472  0.5572  0.3913  0.4791

 Free energy of the ion-electron system (eV)
  ---------------------------------------------------
  alpha Z        PSCENC =        47.14944627
  Ewald energy   TEWEN  =     49519.10738692
  -Hartree energ DENC   =    -57134.25439295
  -exchange      EXHF   =         0.00000000
  -V(xc)+E(xc)   XCENC  =      -241.80786559
  PAW double counting   =     49779.60555199   -48993.06194931
  entropy T*S    EENTRO =        -0.14072292
  eigenvalues    EBANDS =     -2590.40178971
  atomic energy  EATOM  =      8716.74468240
  Solvation  Ediel_sol  =         0.00000000
  ---------------------------------------------------
  free energy    TOTEN  =      -897.05965291 eV

  energy without entropy =     -896.91892999  energy(sigma->0) =     -896.98929145


--------------------------------------------------------------------------------------------------------




--------------------------------------- Iteration      1(  11)  ---------------------------------------


    POTLOK:  cpu time      2.1443: real time      2.1570
    SETDIJ:  cpu time      1.9231: real time      1.9243
    EDDIAG:  cpu time     41.4889: real time     41.5135
     EDDAV:  cpu time    203.3537: real time    203.4590
       DOS:  cpu time      0.0047: real time      0.0047
    CHARGE:  cpu time     23.8998: real time     23.9203
    MIXING:  cpu time      0.0458: real time      0.0458
    --------------------------------------------
      LOOP:  cpu time    272.8603: real time    273.0247

 eigenvalue-minimisations  :  2120
 total energy-change (2. order) :-0.6297811E-04  (-0.2030355E-04)
 number of electron     361.9999999 magnetization 
 augmentation part      -16.8540285 magnetization 

 Broyden mixing:
  rms(total) = 0.11284E-02    rms(broyden)= 0.10636E-01
  rms(prec ) = 0.14048E-02
  weight for this iteration     100.00
  WARNING: grid for Broyden might be to small

 eigenvalues of (default mixing * dielectric matrix)
  average eigenvalue GAMMA=   1.0735
  2.6088  2.6088  1.0162  1.0162  0.8047  0.3878  0.5958  0.5958  0.6058  0.4948

 Free energy of the ion-electron system (eV)
  ---------------------------------------------------
  alpha Z        PSCENC =        47.14944627
  Ewald energy   TEWEN  =     49519.10738692
  -Hartree energ DENC   =    -57134.02167192
  -exchange      EXHF   =         0.00000000
  -V(xc)+E(xc)   XCENC  =      -241.81563231
  PAW double counting   =     49776.79991519   -48990.25432371
  entropy T*S    EENTRO =        -0.14056148
  eigenvalues    EBANDS =     -2590.62895725
  atomic energy  EATOM  =      8716.74468240
  Solvation  Ediel_sol  =         0.00000000
  ---------------------------------------------------
  free energy    TOTEN  =      -897.05971589 eV

  energy without entropy =     -896.91915440  energy(sigma->0) =     -896.98943515


--------------------------------------------------------------------------------------------------------




--------------------------------------- Iteration      1(  12)  ---------------------------------------


    POTLOK:  cpu time      2.1312: real time      2.1581
    SETDIJ:  cpu time      1.9094: real time      1.9105
    EDDIAG:  cpu time     41.4341: real time     41.4585
     EDDAV:  cpu time    199.6611: real time    199.7640
       DOS:  cpu time      0.0041: real time      0.0041
    CHARGE:  cpu time     23.9083: real time     23.9295
    MIXING:  cpu time      0.0472: real time      0.0472
    --------------------------------------------
      LOOP:  cpu time    269.0955: real time    269.2720

 eigenvalue-minimisations  :  2056
 total energy-change (2. order) :-0.8146878E-04  (-0.1624242E-04)
 number of electron     361.9999999 magnetization 
 augmentation part      -16.8541215 magnetization 

 Broyden mixing:
  rms(total) = 0.55343E-03    rms(broyden)= 0.80919E-02
  rms(prec ) = 0.79189E-03
  weight for this iteration     100.00
  WARNING: grid for Broyden might be to small

 eigenvalues of (default mixing * dielectric matrix)
  average eigenvalue GAMMA=   1.0911
  2.7130  2.7130  1.3442  0.9316  0.8314  0.8314  0.3866  0.6248  0.5542  0.5542
  0.5170

 Free energy of the ion-electron system (eV)
  ---------------------------------------------------
  alpha Z        PSCENC =        47.14944627
  Ewald energy   TEWEN  =     49519.10738692
  -Hartree energ DENC   =    -57133.81189874
  -exchange      EXHF   =         0.00000000
  -V(xc)+E(xc)   XCENC  =      -241.82052624
  PAW double counting   =     49773.44193315   -48986.89497602
  entropy T*S    EENTRO =        -0.14064586
  eigenvalues    EBANDS =     -2590.83519922
  atomic energy  EATOM  =      8716.74468240
  Solvation  Ediel_sol  =         0.00000000
  ---------------------------------------------------
  free energy    TOTEN  =      -897.05979736 eV

  energy without entropy =     -896.91915149  energy(sigma->0) =     -896.98947442


--------------------------------------------------------------------------------------------------------




--------------------------------------- Iteration      1(  13)  ---------------------------------------


    POTLOK:  cpu time      2.1347: real time      2.1620
    SETDIJ:  cpu time      1.8949: real time      1.8961
    EDDIAG:  cpu time     41.4668: real time     41.4930
     EDDAV:  cpu time    199.6776: real time    199.7871
       DOS:  cpu time      0.0026: real time      0.0026
    CHARGE:  cpu time     23.9066: real time     23.9266
    MIXING:  cpu time      0.0475: real time      0.0475
    --------------------------------------------
      LOOP:  cpu time    269.1306: real time    269.3148

 eigenvalue-minimisations  :  2056
 total energy-change (2. order) :-0.9954809E-04  (-0.1676488E-04)
[...]
   -.578E+01 0.832E+01 -.336E+03   0.614E+01 -.108E+02 0.342E+03   -.145E-01 0.177E+01 -.427E+01   0.334E-04 -.338E-05 0.455E-04
   -.296E+01 -.273E+02 -.204E+03   0.246E+01 0.254E+02 0.204E+03   0.417E+00 0.177E+01 -.238E+00   -.243E-04 -.127E-05 -.142E-04
   -.927E+01 0.126E+02 -.882E+02   0.941E+01 -.125E+02 0.871E+02   -.225E+00 -.238E+00 0.854E+00   -.119E-05 0.245E-04 0.699E-05
   0.211E+01 -.393E+02 0.304E+03   -.158E+00 0.393E+02 -.306E+03   -.118E+01 0.207E+00 0.474E+00   -.153E-04 0.216E-04 -.290E-04
   0.264E+02 0.164E+02 0.128E+03   -.281E+02 -.181E+02 -.127E+03   0.156E+01 0.167E+01 -.847E+00   0.993E-05 0.275E-05 -.215E-04
   -.270E+02 0.376E+02 -.129E+03   0.265E+02 -.356E+02 0.126E+03   0.721E+00 -.192E+01 0.312E+01   0.944E-05 0.160E-04 -.453E-05
   -.941E+01 0.177E+02 0.306E+03   0.856E+01 -.167E+02 -.305E+03   0.730E+00 -.862E+00 -.108E+01   -.986E-05 0.533E-05 -.191E-04
   -.616E+01 -.155E+02 0.809E+01   0.590E+01 0.139E+02 -.656E+01   0.383E+00 0.141E+01 -.131E+01   -.116E-04 -.219E-05 -.275E-04
   0.539E+02 -.814E+01 -.239E+03   -.537E+02 0.778E+01 0.239E+03   -.472E+00 0.485E+00 0.820E+00   -.139E-04 0.187E-04 -.189E-04
   0.868E+01 0.414E+01 -.286E+03   -.103E+02 -.412E+01 0.284E+03   0.162E+01 -.365E+00 0.229E+01   -.752E-05 -.643E-05 0.217E-05
 -----------------------------------------------------------------------------------------------
   -.607E+01 0.332E+01 -.205E+02   -.146E-12 -.187E-13 0.625E-12   0.607E+01 -.330E+01 0.205E+02   0.118E-03 -.445E-04 -.120E-02


 POSITION                                       TOTAL-FORCE (eV/Angst)
 -----------------------------------------------------------------------------------
      3.02626      3.44124      8.73082         0.080138     -0.215041      0.076184
      7.77970      8.81912     12.98306        -0.056120      0.003313     -0.029390
      5.32486     11.86750     11.45468         0.019717      0.064464     -0.008217
      5.79240      8.96300     12.18122        -0.080512      0.040934     -0.007245
      7.77124      2.90296     16.76536         0.126462      0.004473      0.057018
      4.96850      6.41049     10.55990        -0.108609      0.163305      0.070212
      3.72536      6.04376     13.53922        -0.047180      0.084477      0.064395
      3.18038      4.39444     10.98153        -0.212726     -0.102962     -0.028673
      9.80875      9.63404     13.86473         0.117056     -0.014218      0.087098
      3.71695     10.22783     17.27362        -0.140339      0.001153      0.061092
      4.31154      7.59409     16.58124         0.144882     -0.046606     -0.073928
      9.68451      7.06519     12.34848        -0.022449      0.094990      0.012849
     10.76311      9.39638     15.86958         0.101934     -0.002142      0.110377
      9.81847      7.71747     15.74748        -0.229387     -0.085458     -0.020021
      8.31670      5.81560     13.66537        -0.013510     -0.011714     -0.011199
     11.20030      6.63674      9.80270        -0.118737      0.044853     -0.133378
      6.95734      7.26906     19.75208         0.052127     -0.078655      0.157399
      0.48934      9.30833     14.60454        -0.077145     -0.067686      0.045344
      6.10614      8.34961     15.47800         0.003335      0.077792     -0.123010
      2.10305      6.44803     11.45587         0.025835      0.110968      0.020527
      4.70102      6.94310     11.01641         0.073023     -0.122290     -0.166438
      8.08391      9.38657     16.24270         0.159858     -0.100273      0.116683
     11.48071      6.16052     14.79862        -0.093262     -0.082220      0.006263
      2.49918      7.07544     11.44370        -0.015148     -0.029772     -0.030626
      9.42559      6.95470     11.65717         0.026377      0.045200      0.206725
      2.37244      4.49981     14.33825        -0.036462      0.059113      0.003261
     13.90273      7.04241     10.62934        -0.037617      0.027888      0.027280
      7.71333      6.52615      9.38073         0.002830      0.309658      0.153510
      6.52008      7.75522     15.32060         0.081361      0.003767     -0.192993
      2.02066      8.45513     17.10283         0.184944      0.150152      0.096746
      0.68201      8.10300     12.80919        -0.052239      0.019415      0.038361
      9.42231      7.16608     16.11881         0.190043      0.242010     -0.326851
      4.64338     10.63392     14.71491        -0.028555      0.065338      0.048864
     12.56097      7.41146     13.07261        -0.117235     -0.100063     -0.087318
      0.42699      7.44825     12.56898        -0.019874      0.063028      0.037390
     11.46864      8.34529     11.55409         0.120279      0.005307      0.007723
      6.06028      6.47973     13.53185         0.076153      0.105565      0.007873
      5.40177      8.34310     12.06072         0.014424      0.124219      0.038021
      3.34452     10.20847     12.42021         0.137165      0.007229      0.006377
      1.64449      6.11751     15.88523        -0.215613      0.093910      0.005504
     13.83121      6.70071     14.96041         0.089064     -0.201709      0.028119
      2.86562      5.80339      9.02001        -0.046452     -0.038794      0.077128
     13.90137      4.21301     13.42248        -0.044408      0.087350      0.060048
     11.04599      8.89569     11.29264         0.075548      0.119268     -0.031820
     12.47567      5.30307     11.56694        -0.002321     -0.041932     -0.303076
     10.45987      6.74340      9.91620        -0.052881      0.110288     -0.126970
      2.25485     11.14116     12.80648         0.064227     -0.238760     -0.061282
      5.48509      3.65413     12.32265        -0.191533     -0.115302      0.212088
     11.97672      6.70176     18.10808         0.338650     -0.028367      0.434747
     13.49364      9.46942     17.62522        -0.041468     -0.081596     -0.071037
      5.43242     11.67311     15.45507        -0.019241     -0.318977     -0.342107
      7.66814      5.42878     10.38038         0.223761     -0.429499     -0.458799
      3.20274      0.37216     11.50126        -0.152386      0.387160     -0.155692
      2.04758     14.41670     16.21486        -0.042447     -0.186970     -0.209487
     11.36294      4.11945     11.98962        -0.016318     -0.109388     -0.155880
     13.45245      2.17604     16.72697        -0.090773      0.058791      0.008672
      8.66410      5.83951     17.52014         0.430189     -0.841166      0.529477
     14.16999      7.23051     18.01444        -0.555367     -0.174195      0.211517
      2.10730      3.04889     14.17749         0.141171      0.250842      0.026279
     10.33076      1.20668     16.27535        -0.371085      0.071010     -0.000142
      7.75245     11.72493      9.47490         0.063677      0.093379     -0.421990
     10.53459      0.93476     11.98725         0.042167      0.141632     -0.015697
      0.67284     14.08583     14.15838         0.059916      0.336859      0.379349
      8.71043      2.14887     11.11846         0.034170     -0.160377     -0.089546
     11.33666     14.11125     17.59129         0.382087      0.049038      0.093386
      9.58212     10.24249     18.78451         0.582739      0.148900      0.040441
      1.33944     10.50647     14.86214         0.176827      0.001859     -0.078718
     12.22357      9.37181     15.58046        -0.053794      0.280412     -0.103627
      5.85645      4.01644     10.04529         0.003903      0.018229     -0.302650
      7.58114      4.28760     16.23969        -0.104321     -0.094709      0.146520
      8.66010      4.48073     14.21491         0.117605      0.194387     -0.045273
      0.54808     11.13272     11.20675         0.175589      0.193970     -0.244414
      2.23886      9.92647     16.94853        -0.113597     -0.009165     -0.064637
     12.50600     11.37610     14.36890        -0.026171      0.067700     -0.140418
      5.30210      4.63741     15.97632        -0.119282      0.256488     -0.241326
      5.04972      5.42898     13.77314        -0.063259      0.043349     -0.170811
      6.32891     12.86978     10.94827        -0.156943     -0.157777      0.299151
     10.66288      4.84432     18.15202        -0.455581      0.285701     -0.049840
      9.21936     11.00108     11.10960         0.230980      0.111227      0.337315
     12.54668      7.28477     14.54360         0.209251      0.293330      0.016821
      2.89855     13.34383     13.18514        -0.108118     -0.162388      0.042052
      7.61244      9.51082     17.66065         0.172953     -0.256809     -0.819126
      2.30441      2.21058     16.39498         0.204391     -0.145922      0.218831
      5.70581     10.92502     17.66899        -0.286781      0.526856      0.820958
      6.65876      1.81819      9.98402        -0.304447      0.064304      0.614626
      0.30876      4.16797      9.91026        -0.692838      0.518669      0.799220
      7.49588     11.78138     14.32719        -0.186382     -0.004485      0.164528
      6.99496      7.30517     18.27373        -0.098686      0.171871      0.116588
      4.90775      6.48741     17.38671        -0.401317      0.410041      0.000796
     13.40947      0.23786     18.12212        -0.179132     -0.130375     -0.097806
      0.60141     11.03164     18.22375         0.020679     -0.098242      0.070006
      3.86123      2.08274     12.97472         0.147213     -0.193524      0.110503
     14.42891     12.25268     15.27943        -0.184244     -0.410895     -0.167729
      9.58261      4.18917     10.49626         0.129716     -0.081715      0.123976
      8.57583     10.05267     13.16213        -0.080387     -0.143772      0.068469
     13.03588     11.65109     12.07577         0.044295      0.088875      0.478027
     13.30485      5.76213     10.14968         0.347984     -0.525227      0.055774
     11.46029      8.86892     18.65046        -0.382651      0.364858     -0.334129
     14.56775      2.89614     13.23654        -0.122149      0.076041      0.137510
     13.63646      1.22635     14.54156        -0.042206      0.011422     -0.241878
      7.57607      2.82030     13.01573        -0.208680     -0.196519     -0.083626
      4.58021      2.54051     16.65291         0.055063     -0.304657      0.100902
      5.15543      0.13236     10.22152         0.460491      0.093914      0.077971
      1.26363      5.73392     17.28732         0.225532      0.499278     -0.692022
      1.07261      0.35089     10.45459        -0.111826     -0.356477      0.041841
      0.33894     13.21353     17.34098         0.044361      0.241675      0.308876
     10.82537     12.96443     14.32173         0.176045      0.014023      0.206774
      0.12273     13.38419     11.91164        -0.215033     -0.177537     -0.535441
     14.41106      2.22583     11.01202         0.035771     -0.182456     -0.333775
      8.99558     12.79216     15.76953        -0.240098      0.144559      0.102818
     10.97241      4.34837     14.35497         0.032964     -0.231800      0.053290
     11.23449     11.95520     10.59807        -0.017061     -0.068863     -0.586778
      0.65666      3.48341     17.34216         0.286984     -0.249812     -0.049551
      9.98361     13.23620     12.15410        -0.493539     -0.123104      0.103318
      7.22319      0.83025     14.14849         0.200504     -0.012866      0.096309
      3.18202      5.48713     18.63960         0.326771     -0.486038      0.660070
     11.36769      3.29805     16.48789        -0.068507     -0.020157      0.060632
      5.02480      1.12179     14.80897        -0.114629     -0.136006     -0.219435
      2.54590      4.49814      9.64145         0.727897      0.258004     -0.778193
      7.65653     13.51708     12.78167        -0.064177      0.037280     -0.112513
      4.05150     13.61240     15.20391         0.213207      0.042209     -0.009144
     12.09434      2.22402     10.88856        -0.072230      0.181185     -0.206442
     11.37448      0.66060     14.22053         0.151874     -0.199723      0.150138
      8.18464      0.37432     16.20380        -0.042253      0.104017     -0.087619
     10.23338     12.09954     17.56241        -0.024434     -0.275621      0.230801
 -----------------------------------------------------------------------------------
    total drift:                               -0.000594      0.014839     -0.008561


--------------------------------------------------------------------------------------------------------



  FREE ENERGIE OF THE ION-ELECTRON SYSTEM (eV)
  ---------------------------------------------------
  free  energy   TOTEN  =      -897.06038107 eV

  energy  without entropy=     -896.91973908  energy(sigma->0) =     -896.99006007



--------------------------------------------------------------------------------------------------------


    POTLOK:  cpu time      4.0316: real time      4.0350


--------------------------------------------------------------------------------------------------------


     LOOP+:  cpu time   6159.4376: real time   6164.1919
    4ORBIT:  cpu time      0.0000: real time      0.0000



 total charge

# of ion       s       p       d       tot
------------------------------------------
    1        0.578   0.016   0.000   0.593
    2        0.572   0.016   0.000   0.588
    3        0.556   0.015   0.000   0.570
    4        0.615   0.032   0.000   0.647
    5        0.558   0.017   0.000   0.575
    6        0.607   0.033   0.000   0.640
    7        0.575   0.016   0.000   0.590
    8        0.564   0.017   0.000   0.580
    9        0.576   0.016   0.000   0.592
   10        0.551   0.015   0.000   0.567
   11        0.569   0.015   0.000   0.584
   12        0.614   0.032   0.000   0.646
   13        0.568   0.017   0.000   0.585
   14        0.576   0.030   0.000   0.606
   15        0.567   0.016   0.000   0.583
   16        0.603   0.034   0.000   0.636
   17        0.568   0.016   0.000   0.584
   18        0.569   0.015   0.000   0.584
   19        0.614   0.034   0.000   0.648
   20        0.618   0.033   0.000   0.651
   21        0.610   0.031   0.000   0.642
   22        0.569   0.015   0.000   0.584
   23        0.556   0.016   0.000   0.572
   24        0.615   0.033   0.000   0.648
   25        0.611   0.033   0.000   0.644
   26        0.570   0.017   0.000   0.586
   27        0.554   0.016   0.000   0.570
   28        0.563   0.016   0.000   0.579
   29        0.617   0.033   0.000   0.651
   30        0.567   0.016   0.000   0.582
   31        0.616   0.033   0.000   0.649
   32        0.606   0.030   0.000   0.636
   33        0.562   0.015   0.000   0.577
   34        0.579   0.016   0.000   0.595
   35        0.614   0.033   0.000   0.647
   36        0.618   0.033   0.000   0.650
   37        0.579   0.016   0.000   0.595
   38        0.615   0.033   0.000   0.647
   39        0.572   0.015   0.000   0.587
   40        0.560   0.015   0.000   0.575
   41        0.576   0.016   0.000   0.593
   42        0.575   0.015   0.000   0.590
   43        0.570   0.016   0.000   0.586
   44        0.615   0.034   0.000   0.649
   45        0.555   0.015   0.000   0.570
   46        0.607   0.031   0.000   0.637
   47        0.745   0.967   0.000   1.712
   48        0.752   0.947   0.000   1.700
   49        0.775   0.908   0.000   1.683
   50        0.751   0.897   0.000   1.648
   51        0.741   0.965   0.000   1.705
   52        0.790   0.897   0.000   1.687
   53        0.749   0.924   0.000   1.674
   54        0.767   0.873   0.000   1.641
   55        0.776   0.860   0.000   1.636
   56        0.752   0.919   0.000   1.670
   57        0.783   0.890   0.000   1.674
   58        0.777   0.880   0.000   1.657
   59        0.750   0.970   0.000   1.721
   60        0.761   0.932   0.000   1.692
   61        0.876   0.740   0.000   1.616
   62        0.760   0.912   0.000   1.673
   63        0.752   0.942   0.000   1.694
   64        0.757   0.949   0.000   1.705
   65        0.777   0.892   0.000   1.668
   66        0.773   0.871   0.000   1.645
   67        0.749   0.981   0.000   1.730
   68        0.756   0.944   0.000   1.700
   69        0.806   0.871   0.000   1.677
   70        0.748   1.019   0.000   1.767
   71        0.746   1.005   0.000   1.751
   72        0.828   0.835   0.000   1.663
   73        0.745   0.966   0.000   1.711
   74        0.755   0.961   0.000   1.716
   75        0.746   0.969   0.000   1.715
   76        0.742   1.005   0.000   1.747
   77        0.746   0.980   0.000   1.726
   78        0.786   0.879   0.000   1.666
   79        0.783   0.902   0.000   1.686
   80        0.747   0.986   0.000   1.732
   81        0.771   0.892   0.000   1.663
   82        0.745   0.960   0.000   1.705
   83        0.754   0.950   0.000   1.703
   84        0.871   0.739   0.000   1.611
   85        0.782   0.867   0.000   1.650
   86        0.779   0.942   0.000   1.721
   87        0.751   0.967   0.000   1.717
   88        0.738   0.966   0.000   1.704
   89        0.744   0.967   0.000   1.711
   90        0.786   0.887   0.000   1.672
   91        0.798   0.848   0.000   1.647
   92        0.757   0.950   0.000   1.707
   93        0.764   0.966   0.000   1.730
   94        0.791   0.881   0.000   1.672
   95        0.739   1.002   0.000   1.742
   96        0.768   0.888   0.000   1.657
   97        0.791   0.871   0.000   1.662
   98        0.785   0.856   0.000   1.641
   99        0.749   0.984   0.000   1.733
  100        0.759   0.929   0.000   1.688
  101        0.764   0.959   0.000   1.723
  102        0.797   0.873   0.000   1.671
  103        0.769   0.916   0.000   1.686
  104        0.742   0.959   0.000   1.701
  105        0.802   0.862   0.000   1.664
  106        0.754   0.924   0.000   1.678
  107        0.767   0.952   0.000   1.719
  108        0.771   0.883   0.000   1.654
  109        0.750   0.969   0.000   1.719
  110        0.757   0.967   0.000   1.724
  111        0.794   0.837   0.000   1.631
  112        0.829   0.824   0.000   1.653
  113        0.779   0.904   0.000   1.683
  114        0.757   0.937   0.000   1.694
  115        0.751   0.973   0.000   1.724
  116        0.868   0.734   0.000   1.603
  117        0.751   0.909   0.000   1.660
  118        0.760   0.940   0.000   1.700
  119        0.738   1.027   0.000   1.765
  120        0.765   0.917   0.000   1.682
  121        0.751   0.946   0.000   1.697
  122        0.793   0.885   0.000   1.677
  123        0.765   0.916   0.000   1.681
  124        0.803   0.878   0.000   1.680
  125        0.778   0.884   0.000   1.662
--------------------------------------------------
tot         87.693  73.553   0.000 161.246


 total amount of memory used by VASP MPI-rank0   381356. kBytes
=======================================================================

   base                                    :      30000. kBytes
   nonl-proj                               :      88482. kBytes
   fftplans                                :     108864. kBytes
   grid                                    :      83991. kBytes
   one-center                              :         24. kBytes
   wavefun                                 :      69995. kBytes

  
  
 General timing and accounting informations for this job:
 ========================================================
  
                  Total CPU time used (sec):     6312.553
                            User time (sec):     5635.395
                          System time (sec):      677.159
                         Elapsed time (sec):     6317.982
  
                   Maximum memory used (kb):      649280.
                   Average memory used (kb):          N/A
  
                          Minor page faults:     11205370
                          Major page faults:         1198
                 Voluntary context switches:         3061
