 vasp.6.5.0 16Dec24 (build Jan 20 2025 08:32:48) complex                         
 executed on        HPECrayEX_GCC date 2025.07.28  17:08:48
 running  128 mpi-ranks, with    1 threads/rank, on    1 nodes
 distrk:  each k-point on  128 cores,    1 groups
 distr:  one band on NCORE=  16 cores,    8 groups


--------------------------------------------------------------------------------------------------------


 INCAR:
   SYSTEM = a-Si SPC
   NCORE = 16
   ISTART = 1
   ICHARG = 1
   ISPIN = 1
   ISYM = 1
   EDIFF = 1E-6
   NELM = 150
   EDIFFG = -0.01
   NSW = 0
   ISIF = 2
   IBRION = -1
   PREC = Accurate
   ENCUT = 1200
   KSPACING = 0.23
   KGAMMA = .TRUE.
   METAGGA = SCAN
   LASPH = .TRUE.
   LDIAG = .FALSE.
   LMIXTAU = .TRUE.
   ADDGRID = .TRUE.
   ALGO = Normal
   ISMEAR = 0
   SIGMA = 0.1
   LORBIT = 11
   NEDOS = 2000
   LWAVE = .FALSE.
   LCHARG = .FALSE.

 POTCAR:    PAW_PBE H 15Jun2001                   
 POTCAR:    PAW_PBE Si 05Jan2001                  
 POTCAR:    PAW_PBE H 15Jun2001                   
   SHA256 =  030f79b5d3ab3cf0e668861823c8fb652ff669f3e15e46930bd03bfd63a607b6 H/POTCAR              
   COPYR  = (c) Copyright 15Jun2001 Georg Kresse                                                    
   COPYR  = This file is part of the software VASP. Any use, copying, and all other rights are regul
   COPYR  = If you do not have a valid VASP license, you may not use, copy or distribute this file. 
   VRHFIN =H: ultrasoft test                                                                        
   LEXCH  = PE                                                                                      
   EATOM  =    12.4884 eV,    0.9179 Ry                                                             
                                                                                                    
   TITEL  = PAW_PBE H 15Jun2001                                                                     
   LULTRA =        F    use ultrasoft PP ?                                                          
   IUNSCR =        0    unscreen: 0-lin 1-nonlin 2-no                                               
   RPACOR =    0.000    partial core radius                                                         
   POMASS =    1.000; ZVAL   =    1.000    mass and valenz                                          
   RCORE  =    1.100    outmost cutoff radius                                                       
   RWIGS  =    0.700; RWIGS  =    0.370    wigner-seitz radius (au A)                               
   ENMAX  =  250.000; ENMIN  =  200.000 eV                                                          
   RCLOC  =    0.701    cutoff for local pot                                                        
   LCOR   =        T    correct aug charges                                                         
   LPAW   =        T    paw PP                                                                      
   EAUG   =  400.000                                                                                
   RMAX   =    1.123    core radius for proj-oper                                                   
   RAUG   =    1.200    factor for augmentation sphere                                              
   RDEP   =    1.112    radius for radial grids                                                     
   RDEPT  =    0.926    core radius for aug-charge                                                  
                                                                                                    
   Atomic configuration                                                                             
    2 entries                                                                                       
     n  l   j            E        occ.                                                              
     1  0  0.50        -6.4927   1.0000                                                             
     2  1  0.50        -3.4015   0.0000                                                             
   Description                                                                                      
     l       E           TYP  RCUT    TYP  RCUT                                                     
     0     -6.4927494     23  1.100                                                                 
     0      6.8029130     23  1.100                                                                 
     1     -4.0817478     23  1.100                                                                 
  local pseudopotential read in
  atomic valenz-charges read in
  non local Contribution for L=           0  read in
    real space projection operators read in
  non local Contribution for L=           0  read in
    real space projection operators read in
  non local Contribution for L=           1  read in
    real space projection operators read in
    PAW grid and wavefunctions read in

   number of l-projection  operators is LMAX  =           3
   number of lm-projection operators is LMMAX =           5

 POTCAR:    PAW_PBE Si 05Jan2001                  
   SHA256 =  79d9987ad8750f624c4d6acb2a16d13abf6a777132adc04dc6c8399be72b42bb Si/POTCAR             
   COPYR  = (c) Copyright 05Jan2001 Georg Kresse                                                    
   COPYR  = This file is part of the software VASP. Any use, copying, and all other rights are regul
   COPYR  = If you do not have a valid VASP license, you may not use, copy or distribute this file. 
   VRHFIN =Si: s2p2                                                                                 
   LEXCH  = PE                                                                                      
   EATOM  =   103.0669 eV,    7.5752 Ry                                                             
                                                                                                    
   TITEL  = PAW_PBE Si 05Jan2001                                                                    
   LULTRA =        F    use ultrasoft PP ?                                                          
   IUNSCR =        1    unscreen: 0-lin 1-nonlin 2-no                                               
   RPACOR =    1.500    partial core radius                                                         
   POMASS =   28.085; ZVAL   =    4.000    mass and valenz                                          
   RCORE  =    1.900    outmost cutoff radius                                                       
   RWIGS  =    2.480; RWIGS  =    1.312    wigner-seitz radius (au A)                               
   ENMAX  =  245.345; ENMIN  =  184.009 eV                                                          
   ICORE  =        2    local potential                                                             
   LCOR   =        T    correct aug charges                                                         
   LPAW   =        T    paw PP                                                                      
   EAUG   =  322.069                                                                                
   DEXC   =    0.000                                                                                
   RMAX   =    1.950    core radius for proj-oper                                                   
   RAUG   =    1.300    factor for augmentation sphere                                              
   RDEP   =    1.993    radius for radial grids                                                     
   RDEPT  =    1.837    core radius for aug-charge                                                  
                                                                                                    
   Atomic configuration                                                                             
    6 entries                                                                                       
     n  l   j            E        occ.                                                              
     1  0  0.50     -1785.8828   2.0000                                                             
     2  0  0.50      -139.4969   2.0000                                                             
     2  1  1.50       -95.5546   6.0000                                                             
     3  0  0.50       -10.8127   2.0000                                                             
     3  1  0.50        -4.0811   2.0000                                                             
     3  2  1.50        -4.0817   0.0000                                                             
   Description                                                                                      
     l       E           TYP  RCUT    TYP  RCUT                                                     
     0    -10.8127223     23  1.900                                                                 
     0     -7.6451159     23  1.900                                                                 
     1     -4.0811372     23  1.900                                                                 
     1      2.4879257     23  1.900                                                                 
     2     -4.0817478      7  1.900                                                                 
  local pseudopotential read in
  partial core-charges read in
  partial kinetic energy density read in
  atomic valenz-charges read in
  non local Contribution for L=           0  read in
    real space projection operators read in
  non local Contribution for L=           0  read in
    real space projection operators read in
  non local Contribution for L=           1  read in
    real space projection operators read in
  non local Contribution for L=           1  read in
    real space projection operators read in
    PAW grid and wavefunctions read in

   number of l-projection  operators is LMAX  =           4
   number of lm-projection operators is LMMAX =           8

 -----------------------------------------------------------------------------
|                                                                             |
|               ----> ADVICE to this user running VASP <----                  |
|                                                                             |
|     You have a (more or less) 'large supercell' and for larger cells it     |
|     might be more efficient to use real-space projection operators.         |
|     Therefore, try LREAL= Auto in the INCAR file.                           |
|     Mind: For very accurate calculation, you might also keep the            |
|     reciprocal projection scheme (i.e. LREAL=.FALSE.).                      |
|                                                                             |
 -----------------------------------------------------------------------------

 -----------------------------------------------------------------------------
|                                                                             |
|               ----> ADVICE to this user running VASP <----                  |
|                                                                             |
|     You enforced a specific xc type in the INCAR file but a different       |
|     type was found in the POTCAR file.                                      |
|     I HOPE YOU KNOW WHAT YOU ARE DOING!                                     |
|                                                                             |
 -----------------------------------------------------------------------------

  PAW_PBE H 15Jun2001                   :
 energy of atom  1       EATOM=  -12.4884
 kinetic energy error for atom=    0.0000 (will be added to EATOM!!)
  PAW_PBE Si 05Jan2001                  :
 energy of atom  2       EATOM= -103.0669
 kinetic energy error for atom=    0.0001 (will be added to EATOM!!)


 POSCAR:  H Si
  positions in cartesian coordinates
  No initial velocities read in


 exchange-correlation table for SCAN
   RHO(1)=    0.500       N(1)  =     2000
   RHO(2)=  100.500       N(2)  =     4000



--------------------------------------------------------------------------------------------------------


 ion  position               nearest neighbor table
   1  0.333  0.513  0.456-   8 0.83  65 1.87
   2  0.663  0.993  0.351-   5 0.78
   3  0.826  0.909  0.381- 102 1.49
   4  0.510  0.294  0.578-  40 1.64  30 1.65
   5  0.690  0.989  0.328-   2 0.78
   6  0.227  0.288  0.474-  44 1.51
   7  0.812  0.020  0.434-  32 1.49
   8  0.342  0.486  0.481-   1 0.83
   9  0.929  0.982  0.525-  68 2.33  64 2.33  52 2.34  32 2.38
  10  0.723  0.635  0.527-  66 2.31  79 2.32  42 2.32  37 2.35
  11  0.392  0.162  0.464-  29 2.30  44 2.32  28 2.34  47 2.38
  12  0.980  0.272  0.380-  93 2.32  46 2.33  63 2.40
  13  0.304  0.319  0.381-  14 2.32  44 2.34  16 2.34  18 2.43
  14  0.319  0.193  0.332-  13 2.32  38 2.36  36 2.39
  15  0.574  0.173  0.649-  40 2.29  97 2.38  50 2.42
  16  0.211  0.451  0.378-  65 2.31  13 2.34 101 2.37
  17  0.272  0.126  0.577-  22 2.33  29 2.33  80 2.38  72 2.41
  18  0.456  0.365  0.406-  35 2.32  87 2.33  28 2.34  13 2.43
  19  0.145  0.105  0.453-  44 2.31  80 2.35  88 2.38  63 2.39
  20  0.718  0.274  0.423-  46 2.33 105 2.35  76 2.40  35 2.45
  21  0.209  0.327  0.654-  22 2.30  81 2.33  51 2.39
  22  0.314  0.272  0.602-  21 2.30  40 2.33  17 2.33  86 2.45
  23  0.922  0.316  0.507-  89 2.39  93 2.40  53 2.42  76 2.49
  24  0.041  0.877  0.371-  57 2.36  62 2.38  70 2.40 102 2.44
  25  0.519  0.530  0.597-  95 2.29  37 2.32  31 2.32
  26  0.582  0.993  0.411-  67 2.29  47 2.33 100 2.33
  27  0.372  0.776  0.610-  99 2.31  96 2.48  58 2.56
  28  0.437  0.313  0.482-  30 2.28  11 2.34  18 2.34  86 2.42
  29  0.395  0.078  0.531-  11 2.30  98 2.33  17 2.33  41 2.39
  30  0.564  0.307  0.528-   4 1.65  95 2.26  28 2.28  77 2.30
  31  0.364  0.514  0.580-  25 2.32  96 2.36  81 2.37  86 2.39
  32  0.879  0.074  0.462-   7 1.49  76 2.38   9 2.38  63 2.41
  33  0.097  0.607  0.470-  90 2.32 101 2.34  54 2.36  94 2.39
  34  0.052  0.766  0.569-  68 2.38  94 2.39  43 2.41 103 2.44
  35  0.566  0.255  0.388-  18 2.32  36 2.36  20 2.45
  36  0.479  0.160  0.339-  47 2.31  35 2.36  14 2.39
  37  0.604  0.661  0.580-  25 2.32  73 2.33  10 2.35  49 2.37
  38  0.225  0.063  0.346-  45 2.33  14 2.36  57 2.37
  39  0.467  0.841  0.489-  78 2.36  98 2.38  49 2.38 100 2.46  67 2.61
  40  0.465  0.279  0.629-   4 1.64  15 2.29  22 2.33
  41  0.556  0.074  0.549-  67 2.30  97 2.34  29 2.39  77 2.39
  42  0.646  0.524  0.485-  10 2.32  95 2.32  91 2.33 105 2.34
  43  0.120  0.908  0.596-  99 2.35  64 2.38  34 2.41  72 2.50
  44  0.252  0.218  0.438-   6 1.51  19 2.31  11 2.32  13 2.34
  45  0.321  0.963  0.387-  38 2.33  88 2.35  56 2.36  47 2.40
  46  0.826  0.307  0.366-  12 2.33  20 2.33  55 2.40 105 3.03
  47  0.443  0.070  0.401-  36 2.31  26 2.33  11 2.38  45 2.40
  48  0.889  0.765  0.457-  79 2.31  54 2.32 102 2.33  68 2.34
  49  0.564  0.810  0.553-  58 2.31  82 2.35  37 2.37  39 2.38  73 2.85  67 3.05
  50  0.708  0.243  0.614-  83 2.29  77 2.35  69 2.36  15 2.42
  51  0.061  0.298  0.622-  53 2.34  85 2.38  71 2.39  21 2.39
  52  0.809  0.925  0.571- 107 2.27 104 2.30  82 2.31   9 2.34
  53  0.069  0.280  0.542-  80 2.32  51 2.34  59 2.37  23 2.42
  54  0.935  0.614  0.470-  48 2.32  66 2.34  92 2.35  33 2.36
  55  0.743  0.447  0.351-  74 2.33 105 2.37  46 2.40  92 2.91
  56  0.386  0.818  0.369- 100 2.35 106 2.36  45 2.36
  57  0.065  0.033  0.352-  24 2.36  38 2.37  63 2.37
  58  0.522  0.863  0.625-  49 2.31  73 2.41  97 2.44  27 2.56
  59  0.171  0.398  0.519- 101 2.35  86 2.37  53 2.37  61 2.41
  60  0.925  0.561  0.659-  85 2.36 103 2.38
  61  0.133  0.506  0.579-  81 2.31  94 2.36  85 2.37  59 2.41
  62  0.106  0.861  0.445-  90 2.30  88 2.31  68 2.33  24 2.38
  63  0.002  0.123  0.412-  57 2.37  19 2.39  12 2.40  32 2.41
  64  0.038  0.044  0.576-  80 2.32   9 2.33  43 2.38  71 2.40
  65  0.327  0.554  0.395-   1 1.87  87 2.28  16 2.31 106 2.31
  66  0.871  0.583  0.542-  10 2.31  54 2.34  89 2.34 103 2.36
  67  0.587  0.975  0.489-  82 2.26  26 2.29  41 2.30  39 2.61  49 3.05 100 3.14
  68  0.996  0.844  0.503-   9 2.33  62 2.33  48 2.34  34 2.38
  69  0.737  0.401  0.603-  89 2.33  95 2.35  50 2.36
  70  0.129  0.749  0.343-  90 2.36  24 2.40
  71  0.981  0.155  0.630-  83 2.28  51 2.39  64 2.40
  72  0.233  0.013  0.634-  99 2.35  17 2.41  43 2.50
  73  0.652  0.763  0.638-  37 2.33 104 2.36  58 2.41  49 2.85
  74  0.848  0.568  0.349-  75 2.33  55 2.33  92 2.35
  75  0.773  0.706  0.364-  74 2.33 102 2.43  84 2.48
  76  0.797  0.207  0.487-  32 2.38  20 2.40  77 2.41  23 2.49
  77  0.670  0.192  0.540-  30 2.30  50 2.35  41 2.39  76 2.41
  78  0.408  0.691  0.481- 106 2.35  39 2.36  96 2.41  91 2.45
  79  0.735  0.758  0.477-  82 2.28  48 2.31  10 2.32  84 2.35
  80  0.135  0.136  0.532-  64 2.32  53 2.32  19 2.35  17 2.38
  81  0.246  0.477  0.633-  61 2.31  21 2.33  31 2.37
  82  0.694  0.881  0.521-  67 2.26  79 2.28  52 2.31  49 2.35
  83  0.825  0.148  0.638- 107 2.27  71 2.28  50 2.29
  84  0.637  0.725  0.415-  79 2.35 100 2.37  91 2.42  75 2.48
  85  0.997  0.448  0.613-  89 2.34  60 2.36  61 2.37  51 2.38
  86  0.330  0.378  0.537-  59 2.37  31 2.39  28 2.42  22 2.45
  87  0.479  0.518  0.384-  65 2.28  18 2.33  91 2.34
  88  0.227  0.963  0.453-  62 2.31  45 2.35  98 2.37  19 2.38
  89  0.874  0.427  0.563-  69 2.33  85 2.34  66 2.34  23 2.39
  90  0.156  0.719  0.421-  62 2.30 106 2.31  33 2.32  70 2.36
  91  0.535  0.608  0.445-  42 2.33  87 2.34  84 2.42  78 2.45
  92  0.876  0.501  0.421-  74 2.35  93 2.35  54 2.35 105 2.37  55 2.91
  93  0.981  0.383  0.437-  12 2.32  92 2.35 101 2.37  23 2.40
  94  0.156  0.650  0.544-  61 2.36  33 2.39  34 2.39  96 2.46
  95  0.618  0.444  0.553-  30 2.26  25 2.29  42 2.32  69 2.35
  96  0.324  0.662  0.552-  31 2.36  78 2.41  94 2.46  27 2.48
  97  0.587  0.018  0.623- 107 2.33  41 2.34  15 2.38  58 2.44
  98  0.339  0.934  0.510-  29 2.33  88 2.37  99 2.37  39 2.38
  99  0.279  0.895  0.584-  27 2.31  43 2.35  72 2.35  98 2.37
 100  0.525  0.843  0.410-  26 2.33  56 2.35  84 2.37  39 2.46  67 3.14
 101  0.126  0.456  0.447-  33 2.34  59 2.35  16 2.37  93 2.37
 102  0.884  0.825  0.383-   3 1.49  48 2.33  75 2.43  24 2.44
 103  0.924  0.679  0.602- 104 2.35  66 2.36  60 2.38  34 2.44
 104  0.799  0.781  0.605-  52 2.30 103 2.35  73 2.36
 105  0.728  0.435  0.432-  42 2.34  20 2.35  55 2.37  92 2.37  46 3.03
 106  0.314  0.707  0.416-  65 2.31  90 2.31  78 2.35  56 2.36
 107  0.747  0.015  0.627-  52 2.27  83 2.27  97 2.33

  LATTYP: Found a simple tetragonal cell.
 ALAT       =    14.5330482480
 C/A-ratio  =     1.9999031864
  
  Lattice vectors:
  
 A1 = (  14.5330482480,   0.0000000000,   0.0000000000)
 A2 = (   0.0000000000,  14.5330482480,   0.0000000000)
 A3 = (   0.0000000000,   0.0000000000,  29.0646895000)


Analysis of symmetry for initial positions (statically):
=====================================================================
 Subroutine PRICEL returns:
 Original cell was already a primitive cell.
 

 Routine SETGRP: Setting up the symmetry group for a 
 simple tetragonal supercell.


 Subroutine GETGRP returns: Found  1 space group operations
 (whereof  1 operations were pure point group operations)
 out of a pool of 16 trial point group operations.


The static configuration has the point symmetry C_1 .


Analysis of symmetry for dynamics (positions and initial velocities):
=====================================================================
 Subroutine PRICEL returns:
 Original cell was already a primitive cell.
 

 Routine SETGRP: Setting up the symmetry group for a 
 simple tetragonal supercell.


 Subroutine GETGRP returns: Found  1 space group operations
 (whereof  1 operations were pure point group operations)
 out of a pool of 16 trial point group operations.


The dynamic configuration has the point symmetry C_1 .


 Subroutine INISYM returns: Found  1 space group operations
 (whereof  1 operations are pure point group operations),
 and found     1 'primitive' translations


----------------------------------------------------------------------------------------

                                     Primitive cell                                     

  volume of cell :    6138.7383

  direct lattice vectors                    reciprocal lattice vectors
    14.533048248  0.000000000  0.000000000     0.068808689  0.000000000  0.000000000
     0.000000000 14.533048248  0.000000000     0.000000000  0.068808689  0.000000000
     0.000000000  0.000000000 29.064689500     0.000000000  0.000000000  0.034406010

  length of vectors
    14.533048248 14.533048248 29.064689500     0.068808689  0.068808689  0.034406010

  position of ions in fractional coordinates (direct lattice)
     0.332830059  0.513190896  0.456260421
     0.663357757  0.993151383  0.350982340
     0.825791708  0.909222951  0.381113558
     0.510383031  0.293906026  0.577816968
     0.689505474  0.988872015  0.327649654
     0.227296964  0.287898806  0.474458440
     0.812463811  0.020477200  0.434001059
     0.341558600  0.485617486  0.481077728
     0.928927341  0.982215124  0.525407927
     0.723438374  0.634646443  0.527079348
     0.392199023  0.162342534  0.464306874
     0.979507840  0.272394957  0.379905807
     0.304204676  0.319220325  0.380642034
     0.318881798  0.192947731  0.332161147
     0.574007492  0.172670332  0.648970819
     0.211368158  0.451006391  0.378190926
     0.271889216  0.126001619  0.576569041
     0.456307814  0.365310513  0.406204201
     0.144768513  0.105206953  0.452957096
     0.718409683  0.274287726  0.422946282
     0.209450176  0.327167501  0.654143759
     0.314399858  0.272202927  0.601552835
     0.922458372  0.316424376  0.507088617
     0.041115403  0.876955478  0.370654615
     0.519352186  0.530331195  0.596896300
     0.582116311  0.992500237  0.411080252
     0.371521657  0.776480099  0.610009283
     0.437308759  0.312948513  0.481864333
     0.395412095  0.077748042  0.531230872
     0.563812386  0.306960224  0.528312572
     0.364182752  0.514264641  0.579531736
     0.878858198  0.074198336  0.462343682
     0.096948224  0.607471020  0.470392753
     0.051607021  0.766410607  0.569484341
     0.565837312  0.255217818  0.388459756
     0.479178722  0.160262088  0.338769902
     0.604246564  0.661335611  0.580311017
     0.224833121  0.063217266  0.346259278
     0.466677289  0.841088726  0.488959676
     0.464766962  0.278611334  0.628807548
     0.555842960  0.074031280  0.549018828
     0.645624899  0.523676466  0.484823507
     0.119763805  0.907611821  0.596194544
     0.252318194  0.218478690  0.437982134
     0.320530904  0.962792608  0.386585443
     0.825672930  0.306546977  0.365628035
     0.442905878  0.069992294  0.401451736
     0.888650114  0.765256420  0.457345428
     0.564099445  0.809758550  0.553098917
     0.707879698  0.242877487  0.614246696
     0.060503034  0.298047890  0.622109822
     0.809071503  0.925016687  0.571232566
     0.069089974  0.279551658  0.542188024
     0.934937343  0.614314934  0.470129949
     0.743027855  0.446556578  0.350903681
     0.386208337  0.818392076  0.369192627
     0.065080048  0.033300515  0.351711349
     0.521823657  0.863380875  0.624831156
     0.171442189  0.398069466  0.519270444
     0.924620822  0.561074704  0.658747165
     0.132762181  0.506273661  0.579155978
     0.106164472  0.861380824  0.445378990
     0.002478535  0.122540665  0.412395741
     0.038075223  0.043546356  0.575732903
     0.327383068  0.553967298  0.395116748
     0.870780461  0.582981419  0.542110293
     0.586761642  0.974609042  0.489229353
     0.995722472  0.843637134  0.502898589
     0.737485646  0.400897811  0.602741146
     0.128727767  0.748923154  0.342751802
     0.980741053  0.155128222  0.629540752
     0.233477227  0.012765116  0.633957694
     0.651894340  0.763159791  0.637558212
     0.847926154  0.568102777  0.348659610
     0.772661832  0.705938874  0.363944292
     0.797012255  0.206838923  0.487179196
     0.669891651  0.191511336  0.539847435
     0.408052738  0.690727590  0.481441711
     0.734848198  0.758377980  0.477038112
     0.134820563  0.135539502  0.532076316
     0.246268645  0.477000374  0.632865174
     0.694116933  0.881319224  0.521077611
     0.824868499  0.148411581  0.638042279
     0.637287458  0.724891072  0.414787758
     0.997023148  0.447800736  0.613308257
     0.329651277  0.378108425  0.536531874
     0.478669290  0.517732721  0.383962679
     0.227393367  0.963458480  0.452581334
     0.873688597  0.427185694  0.562757580
     0.156324947  0.718837565  0.421421513
     0.534897216  0.607623551  0.444701520
     0.875714773  0.500669638  0.420635828
     0.981156609  0.383011286  0.437441955
     0.156384545  0.650330129  0.543941940
     0.618115416  0.444363999  0.552868185
     0.324463843  0.661789081  0.551550321
     0.587074047  0.017931277  0.622825845
     0.338515973  0.933974846  0.510352130
     0.278774711  0.894692850  0.583629395
     0.524583895  0.842564532  0.409552947
     0.125704952  0.455872645  0.447419325
     0.883687112  0.824687490  0.382789467
     0.924069532  0.679221778  0.601983567
     0.799165554  0.781425500  0.604515904
     0.727803049  0.434996488  0.431824983
     0.314479976  0.706852687  0.415835854
     0.747166187  0.014653545  0.627186697

  ion indices of the primitive-cell ions
   primitive index   ion index
                 1           1
                 2           2
                 3           3
                 4           4
                 5           5
                 6           6
                 7           7
                 8           8
                 9           9
                10          10
                11          11
                12          12
                13          13
                14          14
                15          15
                16          16
                17          17
                18          18
                19          19
                20          20
                21          21
                22          22
                23          23
                24          24
                25          25
                26          26
                27          27
                28          28
                29          29
                30          30
                31          31
                32          32
                33          33
                34          34
                35          35
                36          36
                37          37
                38          38
                39          39
                40          40
                41          41
                42          42
                43          43
                44          44
                45          45
                46          46
                47          47
                48          48
                49          49
                50          50
                51          51
                52          52
                53          53
                54          54
                55          55
                56          56
                57          57
                58          58
                59          59
                60          60
                61          61
                62          62
                63          63
                64          64
                65          65
                66          66
                67          67
                68          68
                69          69
                70          70
                71          71
                72          72
                73          73
                74          74
                75          75
                76          76
                77          77
                78          78
                79          79
                80          80
                81          81
                82          82
                83          83
                84          84
                85          85
                86          86
                87          87
                88          88
                89          89
                90          90
                91          91
                92          92
                93          93
                94          94
                95          95
                96          96
                97          97
                98          98
                99          99
               100         100
               101         101
               102         102
               103         103
               104         104
               105         105
               106         106
               107         107

----------------------------------------------------------------------------------------


 -----------------------------------------------------------------------------
|                                                                             |
|           W    W    AA    RRRRR   N    N  II  N    N   GGGG   !!!           |
|           W    W   A  A   R    R  NN   N  II  NN   N  G    G  !!!           |
|           W    W  A    A  R    R  N N  N  II  N N  N  G       !!!           |
|           W WW W  AAAAAA  RRRRR   N  N N  II  N  N N  G  GGG   !            |
|           WW  WW  A    A  R   R   N   NN  II  N   NN  G    G                |
|           W    W  A    A  R    R  N    N  II  N    N   GGGG   !!!           |
|                                                                             |
|     The requested file  could not be found or opened for reading            |
|     k-point information. Automatic k-point generation is used as a          |
|     fallback, which may lead to unwanted results.                           |
|                                                                             |
 -----------------------------------------------------------------------------



Automatic generation of k-mesh.
 Grid dimensions derived from KSPACING:
 generate k-points for:    2    2    1

 Generating k-lattice:

  Cartesian coordinates                     Fractional coordinates (reciprocal lattice)
     0.034404345  0.000000000  0.000000000     0.500000000  0.000000000  0.000000000
     0.000000000  0.034404345  0.000000000     0.000000000  0.500000000  0.000000000
     0.000000000  0.000000000  0.034406010     0.000000000  0.000000000  1.000000000

  Length of vectors
     0.034404345  0.034404345  0.034406010

  Shift w.r.t. Gamma in fractional coordinates (k-lattice)
     0.000000000  0.000000000  0.000000000

 
 Subroutine IBZKPT returns following result:
 ===========================================
 
 Found      4 irreducible k-points:
 
 Following reciprocal coordinates:
            Coordinates               Weight
  0.000000  0.000000  0.000000      1.000000
  0.500000  0.000000  0.000000      1.000000
  0.000000  0.500000  0.000000      1.000000
  0.500000  0.500000  0.000000      1.000000
 
 Following cartesian coordinates:
            Coordinates               Weight
  0.000000  0.000000  0.000000      1.000000
  0.034404  0.000000  0.000000      1.000000
  0.000000  0.034404  0.000000      1.000000
  0.034404  0.034404  0.000000      1.000000
 


--------------------------------------------------------------------------------------------------------




 Dimension of arrays:
   k-points           NKPTS =      4   k-points in BZ     NKDIM =      4   number of bands    NBANDS=    256
   number of dos      NEDOS =   2000   number of ions     NIONS =    107
   non local maximal  LDIM  =      4   non local SUM 2l+1 LMDIM =      8
   total plane-waves  NPLWV = ******
   max r-space proj   IRMAX =      1   max aug-charges    IRDMAX= 413360
   dimension x,y,z NGX =   168 NGY =  168 NGZ =  336
   dimension x,y,z NGXF=   336 NGYF=  336 NGZF=  672
   support grid    NGXF=   672 NGYF=  672 NGZF= 1344
   ions per type =               8  99
   NGX,Y,Z   is equivalent  to a cutoff of  19.22, 19.22, 19.22 a.u.
   NGXF,Y,Z  is equivalent  to a cutoff of  38.44, 38.44, 38.44 a.u.

 SYSTEM =  a-Si SPC                                
 POSCAR =   H Si                                   

 Startparameter for this run:
   NWRITE =      2    write-flag & timer
   PREC   = accura    normal or accurate (medium, high low for compatibility)
   ISTART =      1    job   : 0-new  1-cont  2-samecut
   ICHARG =      1    charge: 1-file 2-atom 10-const
   ISPIN  =      1    spin polarized calculation?
   LNONCOLLINEAR =      F non collinear calculations
   LSORBIT =      F    spin-orbit coupling
   INIWAV =      1    electr: 0-lowe 1-rand  2-diag
   LASPH  =      T    aspherical Exc in radial PAW
 Electronic Relaxation 1
   ENCUT  = 1200.0 eV  88.20 Ry    9.39 a.u.  41.05 41.05 82.09*2*pi/ulx,y,z
   ENINI  = 1200.0     initial cutoff
   ENAUG  =  400.0 eV  augmentation charge cutoff
   NELM   =    150;   NELMIN=  2; NELMDL=  0     # of ELM steps 
   EDIFF  = 0.1E-05   stopping-criterion for ELM
   LREAL  =      F    real-space projection
   NLSPLINE    = F    spline interpolate recip. space projectors
   LCOMPAT=      F    compatible to vasp.4.4
   GGA_COMPAT  = T    GGA compatible to vasp.4.4-vasp.4.6
   LMAXPAW     = -100 max onsite density
   LMAXMIX     =    2 max onsite mixed and CHGCAR
   VOSKOWN=      0    Vosko Wilk Nusair interpolation
   ROPT   =    0.00000   0.00000
 Ionic relaxation
   EDIFFG = -.1E-01   stopping-criterion for IOM
   NSW    =      0    number of steps for IOM
   NBLOCK =      1;   KBLOCK =      1    inner block; outer block 
   IBRION =     -1    ionic relax: 0-MD 1-quasi-New 2-CG
   NFREE  =      0    steps in history (QN), initial steepest desc. (CG)
   ISIF   =      2    stress and relaxation
   IWAVPR =     10    prediction:  0-non 1-charg 2-wave 3-comb
   ISYM   =      1    0-nonsym 1-usesym 2-fastsym
   LCORR  =      T    Harris-Foulkes like correction to forces

   POTIM  = 0.5000    time-step for ionic-motion
   TEIN   =    0.0    initial temperature
   TEBEG  =    0.0;   TEEND  =   0.0 temperature during run
   SMASS  =  -3.00    Nose mass-parameter (am)
   estimated Nose-frequenzy (Omega)   =  0.10E-29 period in steps = 0.13E+47 mass=  -0.483E-26a.u.
   SCALEE = 1.0000    scale energy and forces
   NPACO  =    256;   APACO  = 10.0  distance and # of slots for P.C.
   PSTRESS=    0.0 pullay stress

  Mass of Ions in am
   POMASS =   1.00 28.09
  Ionic Valenz
   ZVAL   =   1.00  4.00
  Atomic Wigner-Seitz radii
   RWIGS  =  -1.00 -1.00
  virtual crystal weights 
   VCA    =   1.00  1.00
   NELECT =     404.0000    total number of electrons
   NUPDOWN=      -1.0000    fix difference up-down

 DOS related values:
   EMIN   =  10.00;   EMAX   =-10.00  energy-range for DOS
   EFERMI =   0.00;   METHOD = LEGACY      
   ISMEAR =     0;   SIGMA  =   0.10  broadening in eV -4-tet -1-fermi 0-gaus
   EFERMI_NEDOS =   21; number of points for ismear=-14 and -15

 Electronic relaxation 2 (details)
   IALGO  =     38    algorithm
   LDIAG  =      F    sub-space diagonalisation (order eigenvalues)
   LSUBROT=      F    optimize rotation matrix (better conditioning)
   TURBO    =      0    0=normal 1=particle mesh
   IRESTART =      0    0=no restart 2=restart with 2 vectors
   NREBOOT  =      0    no. of reboots
   NMIN     =      0    reboot dimension
   EREF     =   0.00    reference energy to select bands
   IMIX   =      4    mixing-type and parameters
     AMIX     =   0.40;   BMIX     =  1.00
     AMIX_MAG =   1.60;   BMIX_MAG =  1.00
     AMIN     =   0.10
     WC   =   100.;   INIMIX=   1;  MIXPRE=   1;  MAXMIX= -45

 Intra band minimization:
   WEIMIN = 0.0000     energy-eigenvalue tresh-hold
   EBREAK =  0.98E-09  absolut break condition
   DEPER  =   0.30     relativ break condition  

   TIME   =   0.40     timestep for ELM

  volume/ion in A,a.u.               =      57.37       387.16
  Fermi-wavevector in a.u.,A,eV,Ry     =   0.660961  1.249034  5.943963  0.436869
  Thomas-Fermi vector in A             =   1.733571

 Write flags
   LWAVE        =      F    write WAVECAR
   LDOWNSAMPLE  =      F    k-point downsampling of WAVECAR
   LCHARG       =      F    write CHGCAR
   LVTOT        =      F    write LOCPOT, total local potential
   LVHAR        =      F    write LOCPOT, Hartree potential only
   WRT_POTENTIAL= false  ! write potential to hdf5 file
   LELF         =      F    write electronic localiz. function (ELF)
   LORBIT       =     11    0 simple, 1 ext, 2 COOP (PROOUT), +10 PAW based schemes


 Python interface
   PLUGINS active      =      F    recompile with -DPLUGINS to activate

 Dipole corrections
   LMONO      =      F    monopole corrections only (constant potential shift)
   LDIPOL     =      F    correct potential (dipole corrections)
   IDIPOL     =      0    1-x, 2-y, 3-z, 4-all directions 
   EPSILON    =  1.0000000 bulk dielectric constant
   LVACPOTAV  =      F  vacuum potentials using an averaging scheme for the charge density
   VACPOTFLAT =  0.1000000 required flatness to determine vacuum potential

Coulomb truncation method
  LTRUNCATE          =      F  Coulomb kernel truncation to be used
  IDIMENSIONALITY    =      3  Dimensionality of cutoff (0 molecules / 2 surfaces)
  ISURFACE           =     -1  Direction of surface normal
  LCOARSEN           =      F  Coarsen the charge grid before padding, preferred


 Exchange correlation treatment:
   METAGGA = SCAN    functional components
   XC_C    = 1    coefficients multiplying the functional components
   LIBXC   =     F    Libxc                    
   VOSKOWN =     0    Vosko Wilk Nusair interpolation
   LHFCALC =     F    Hartree Fock is set to
   LHFONE  =     F    Hartree Fock one center treatment
   AEXX    =    0.0000 exact exchange contribution

 Parameters of functionals:
   SCAN:
     P1 =  0.000000E+00
     P2 =  0.000000E+00
     P3 =  0.000000E+00

 Accuracy and mixing parameters for tau-dependent meta-GGA functionals:
   LMAXTAU = 6
   LMIXTAU = T

 Van der Waals corrections
   IVDW    =     0    specifies the selected vdW correction

 Linear response parameters
   LEPSILON=     F    determine dielectric tensor
   LRPA    =     F    only Hartree local field effects (RPA)
   LNABLA  =     F    use nabla operator in PAW spheres
   LVEL    =     F    velocity operator in full k-point grid
   CSHIFT  =0.1000    complex shift for real part using Kramers Kronig
   OMEGAMAX=  -1.0    maximum frequency
   DEG_THRESHOLD= 0.2000000E-02 threshold for treating states as degnerate
   RTIME   =   -0.100 relaxation time in fs
  (WPLASMAI=    0.000 imaginary part of plasma frequency in eV, 0.658/RTIME)
   DFIELD  = 0.0000000 0.0000000 0.0000000 field for delta impulse in time

  Optional k-point grid parameters
   LKPOINTS_OPT  =     F    use optional k-point grid
   KPOINTS_OPT_MODE=     1    mode for optional k-point grid

 Orbital magnetization related:
   ORBITALMAG=     F  switch on orbital magnetization
   LCHIMAG   =     F  perturbation theory with respect to B field
   DQ        =  0.001000  dq finite difference perturbation B field
   LLRAUG    =     F  two centre corrections for induced B field
   LBONE     =     F  B-component reconstruction in AE one-centre
   LVGVCALC  =     T  calculate vGv susceptibility
   LVGVAPPL  =     F  apply vGv susceptibility instead of pGv for G=0

 Random number generation:
   RANDOM_GENERATOR = DEFAULT
   PCG_SEED         = not used


--------------------------------------------------------------------------------------------------------


 Static calculation
 charge density and potential will be updated during run
 non-spin polarized calculation
 Variant of blocked Davidson
 perform Loewdin sub-space diagonalisation
    ordering is kept fixed
    before iterative eigenvector-optimisation
 modified Broyden-mixing scheme, WC =      100.0
 initial mixing is a Kerker type mixing with AMIX =  0.4000 and BMIX =      1.0000
 Hartree-type preconditioning will be used
 using additional bands           54
 reciprocal scheme for non local part
 use partial core corrections
 calculate Harris-corrections to forces   (improved forces if not selfconsistent)
 use gradient corrections 
 use of overlap-Matrix (Vanderbilt PP)
 Gauss-broadening in eV      SIGMA  =   0.10


--------------------------------------------------------------------------------------------------------


  energy-cutoff  :     1200.00
  volume of cell :     6138.74
      direct lattice vectors                 reciprocal lattice vectors
    14.533048248  0.000000000  0.000000000     0.068808689  0.000000000  0.000000000
     0.000000000 14.533048248  0.000000000     0.000000000  0.068808689  0.000000000
     0.000000000  0.000000000 29.064689500     0.000000000  0.000000000  0.034406010

  length of vectors
    14.533048248 14.533048248 29.064689500     0.068808689  0.068808689  0.034406010



 old parameters found on file WAVECAR:
  energy-cutoff  :     1200.00
  volume of cell :     6138.74
      direct lattice vectors                 reciprocal lattice vectors
    14.533048248  0.000000000  0.000000000     0.068808689  0.000000000  0.000000000
     0.000000000 14.533048248  0.000000000     0.000000000  0.068808689  0.000000000
     0.000000000  0.000000000 29.064689500     0.000000000  0.000000000  0.034406010

  length of vectors


 k-points in units of 2pi/SCALE and weight: read from INCAR                         
   0.00000000  0.00000000  0.00000000       0.250
   0.03440434  0.00000000  0.00000000       0.250
   0.00000000  0.03440434  0.00000000       0.250
   0.03440434  0.03440434  0.00000000       0.250

 k-points in reciprocal lattice and weights: read from INCAR                         
   0.00000000  0.00000000  0.00000000       0.250
   0.50000000  0.00000000  0.00000000       0.250
   0.00000000  0.50000000  0.00000000       0.250
   0.50000000  0.50000000  0.00000000       0.250

 position of ions in fractional coordinates (direct lattice) 
   0.33283006  0.51319090  0.45626042
   0.66335776  0.99315138  0.35098234
   0.82579171  0.90922295  0.38111356
   0.51038303  0.29390603  0.57781697
   0.68950547  0.98887201  0.32764965
   0.22729696  0.28789881  0.47445844
   0.81246381  0.02047720  0.43400106
   0.34155860  0.48561749  0.48107773
   0.92892734  0.98221512  0.52540793
   0.72343837  0.63464644  0.52707935
   0.39219902  0.16234253  0.46430687
   0.97950784  0.27239496  0.37990581
   0.30420468  0.31922032  0.38064203
   0.31888180  0.19294773  0.33216115
   0.57400749  0.17267033  0.64897082
   0.21136816  0.45100639  0.37819093
   0.27188922  0.12600162  0.57656904
   0.45630781  0.36531051  0.40620420
   0.14476851  0.10520695  0.45295710
   0.71840968  0.27428773  0.42294628
   0.20945018  0.32716750  0.65414376
   0.31439986  0.27220293  0.60155284
   0.92245837  0.31642438  0.50708862
   0.04111540  0.87695548  0.37065461
   0.51935219  0.53033119  0.59689630
   0.58211631  0.99250024  0.41108025
   0.37152166  0.77648010  0.61000928
   0.43730876  0.31294851  0.48186433
   0.39541209  0.07774804  0.53123087
   0.56381239  0.30696022  0.52831257
   0.36418275  0.51426464  0.57953174
   0.87885820  0.07419834  0.46234368
   0.09694822  0.60747102  0.47039275
   0.05160702  0.76641061  0.56948434
   0.56583731  0.25521782  0.38845976
   0.47917872  0.16026209  0.33876990
   0.60424656  0.66133561  0.58031102
   0.22483312  0.06321727  0.34625928
   0.46667729  0.84108873  0.48895968
   0.46476696  0.27861133  0.62880755
   0.55584296  0.07403128  0.54901883
   0.64562490  0.52367647  0.48482351
   0.11976381  0.90761182  0.59619454
   0.25231819  0.21847869  0.43798213
   0.32053090  0.96279261  0.38658544
   0.82567293  0.30654698  0.36562803
   0.44290588  0.06999229  0.40145174
   0.88865011  0.76525642  0.45734543
   0.56409944  0.80975855  0.55309892
   0.70787970  0.24287749  0.61424670
   0.06050303  0.29804789  0.62210982
   0.80907150  0.92501669  0.57123257
   0.06908997  0.27955166  0.54218802
   0.93493734  0.61431493  0.47012995
   0.74302786  0.44655658  0.35090368
   0.38620834  0.81839208  0.36919263
   0.06508005  0.03330051  0.35171135
   0.52182366  0.86338088  0.62483116
   0.17144219  0.39806947  0.51927044
   0.92462082  0.56107470  0.65874716
   0.13276218  0.50627366  0.57915598
   0.10616447  0.86138082  0.44537899
   0.00247854  0.12254066  0.41239574
   0.03807522  0.04354636  0.57573290
   0.32738307  0.55396730  0.39511675
   0.87078046  0.58298142  0.54211029
   0.58676164  0.97460904  0.48922935
   0.99572247  0.84363713  0.50289859
   0.73748565  0.40089781  0.60274115
   0.12872777  0.74892315  0.34275180
   0.98074105  0.15512822  0.62954075
   0.23347723  0.01276512  0.63395769
   0.65189434  0.76315979  0.63755821
   0.84792615  0.56810278  0.34865961
   0.77266183  0.70593887  0.36394429
   0.79701225  0.20683892  0.48717920
   0.66989165  0.19151134  0.53984744
   0.40805274  0.69072759  0.48144171
   0.73484820  0.75837798  0.47703811
   0.13482056  0.13553950  0.53207632
   0.24626865  0.47700037  0.63286517
   0.69411693  0.88131922  0.52107761
   0.82486850  0.14841158  0.63804228
   0.63728746  0.72489107  0.41478776
   0.99702315  0.44780074  0.61330826
   0.32965128  0.37810842  0.53653187
   0.47866929  0.51773272  0.38396268
   0.22739337  0.96345848  0.45258133
   0.87368860  0.42718569  0.56275758
   0.15632495  0.71883757  0.42142151
   0.53489722  0.60762355  0.44470152
   0.87571477  0.50066964  0.42063583
   0.98115661  0.38301129  0.43744195
   0.15638455  0.65033013  0.54394194
   0.61811542  0.44436400  0.55286819
   0.32446384  0.66178908  0.55155032
   0.58707405  0.01793128  0.62282585
   0.33851597  0.93397485  0.51035213
   0.27877471  0.89469285  0.58362939
   0.52458390  0.84256453  0.40955295
   0.12570495  0.45587264  0.44741932
   0.88368711  0.82468749  0.38278947
   0.92406953  0.67922178  0.60198357
   0.79916555  0.78142550  0.60451590
   0.72780305  0.43499649  0.43182498
   0.31447998  0.70685269  0.41583585
   0.74716619  0.01465354  0.62718670

 position of ions in cartesian coordinates  (Angst):
   4.83703530  7.45822805 13.26106747
   9.64061029 14.43351697 10.20119272
  12.00127074 13.21378102 11.07694722
   7.41742121  4.27135046 16.79407077
  10.02061632 14.37132470  9.52303547
   3.30331774  4.18404724 13.78998725
  11.80757577  0.29759613 12.61410601
   4.96388761  7.05750236 13.98237480
  13.50014587 14.27457978 15.27081826
  10.51376479  9.22334737 15.31939760
   5.69984732  2.35933188 13.49493513
  14.23523470  3.95872905 11.04184432
   4.42102123  4.63924438 11.06324254
   4.63432455  2.80411869  9.65416060
   8.34207858  2.50942627 18.86213534
   3.07182364  6.55449764 10.99200185
   3.95137909  1.83118761 16.75780016
   6.63154347  5.30907531 11.80619897
   2.10392779  1.52897773 13.16505736
  10.44068259  3.98623676 12.29280235
   3.04394952  4.75474108 19.01248523
   4.56918830  3.95593827 17.48394637
  13.40613203  4.59861073 14.73837320
   0.59753213 12.74483627 10.77296129
   7.54777038  7.70732884 17.34860562
   8.45992444 14.42405383 11.94791987
   5.39934216 11.28462274 17.72973040
   6.35542929  4.54809584 14.00523723
   5.74654305  1.12991604 15.44006034
   8.19391261  4.46106774 15.35524087
   5.29268551  7.47383284 16.84390997
  12.77248859  1.07832799 13.43787555
   1.40895322  8.82840565 13.67181932
   0.75000733 11.13828233 16.55188555
   8.22334096  3.70909287 11.29046218
   6.96392749  2.32909665  9.84624202
   8.78154447  9.61122234 16.86655953
   3.26751059  0.91873957 10.06391841
   6.78224356 12.22358303 14.21146115
   6.75448068  4.04907196 18.27609614
   8.07809256  1.07590017 15.95706176
   9.38289781  7.61061535 14.09124470
   1.74053316 13.19036639 17.32820930
   3.66695248  3.17516135 12.72981473
   4.65829110 13.99231143 11.23598588
  11.99954453  4.45506201 10.62686530
   6.43677250  1.01720139 11.66807005
  12.91479498 11.12150847 13.29260287
   8.19808445 11.76826007 16.07564829
  10.28764980  3.52975023 17.85288951
   0.87929351  4.33154436 18.08142881
  11.75827519 13.44331214 16.60269715
   1.00408793  4.06273774 15.75852658
  13.58748951  8.92786857 13.66418098
  10.79845967  6.48982829 10.19890652
   5.61278439 11.89373153 10.73046908
   0.94581148  0.48395799 10.22238115
   7.58368839 12.54755592 18.16052355
   2.49157761  5.78516275 15.09243421
  13.43755902  8.15412574 19.14628180
   1.92943918  7.35769954 16.83298867
   1.54289340 12.51848907 12.94480206
   0.03602067  1.78088939 11.98615416
   0.55334905  0.63286130 16.73349807
   4.75787392  8.05083347 11.48394560
  12.65509445  8.47249709 15.75626733
   8.52743525 14.16404023 14.21929923
  14.47088272 12.26061917 14.61659135
  10.71791448  5.82626723 17.51848427
   1.87080685 10.88413633  9.96197469
  14.25315704  2.25448593 18.29740649
   3.39313580  0.18551604 18.42578353
   9.47401189 11.09103807 18.53043148
  12.32295171  8.25626507 10.13368332
  11.22913169 10.25944371 10.57792783
  11.58301755  3.00600005 14.15971206
   9.73556769  2.78324348 15.69049808
   5.93025013 10.03837739 13.99295383
  10.67958431 11.02154377 13.86496461
   1.95935375  1.96980212 15.46463291
   3.57903410  6.93226945 18.39402978
  10.08763488 12.80825481 15.14495896
  11.98785370  2.15687267 18.54450072
   9.26172937 10.53487692 12.05567739
  14.48978551  6.50790970 17.82561407
   4.79083791  5.49506798 15.59413232
   6.95652388  7.52423461 11.15975605
   3.30471877 14.00198858 13.15413596
  12.69735854  6.20831030 16.35637434
   2.27187800 10.44690102 12.24848543
   7.77368705  8.83062239 12.92511161
  12.72680505  7.27625600 12.22564974
  14.25919634  5.56632150 12.71411459
   2.27274414  9.45127914 15.80950360
   8.98310117  6.45796344 16.06894214
   4.71544868  9.61781265 16.03063883
   8.53197545  0.26059612 18.10223980
   4.91966897 13.57350150 14.83322618
   4.05144633 13.00261435 16.96300714
   7.62380306 12.24503100 11.90352925
   1.82687613  6.62521914 13.00410375
  12.84266743 11.98522308 11.12565701
  13.42954709  9.87116287 17.49646546
  11.61431156 11.35649449 17.57006706
  10.57719682  6.32182495 12.55085904
   4.57035266 10.27272421 12.08613997
  10.85860224  0.21296067 18.22898661



--------------------------------------------------------------------------------------------------------


 k-point     1 :   0.0000 0.0000 0.0000  plane waves:  578957
 k-point     2 :   0.5000 0.0000 0.0000  plane waves:  579334
 k-point     3 :   0.0000 0.5000 0.0000  plane waves:  579334
 k-point     4 :   0.5000 0.5000 0.0000  plane waves:  579916

 maximum and minimum number of plane-waves per node :     36272    36121

 maximum number of plane-waves:    579916
 maximum index in each direction: 
   IXMAX=   41   IYMAX=   41   IZMAX=   82
   IXMIN=  -41   IYMIN=  -41   IZMIN=  -82


 parallel 3D FFT for wavefunctions:
    minimum data exchange during FFTs selected (reduces bandwidth)
 parallel 3D FFT for charge:
    minimum data exchange during FFTs selected (reduces bandwidth)


 total amount of memory used by VASP MPI-rank0   387448. kBytes
=======================================================================

   base                                    :      30000. kBytes
   nonl-proj                               :      80615. kBytes
   fftplans                                :     114278. kBytes
   grid                                    :      88184. kBytes
   one-center                              :         21. kBytes
   wavefun                                 :      74350. kBytes

     INWAV:  cpu time     21.7041: real time     21.7176
 Broyden mixing: mesh for mixing (old mesh)
   NGX = 83   NGY = 83   NGZ =165
  (NGX  =336   NGY  =336   NGZ  =672)
  gives a total of ****** points

 initial charge density was supplied:
 number of electron     403.9999999 magnetization 
 keeping initial charge density in first step


--------------------------------------------------------------------------------------------------------


 Maximum index for augmentation-charges        11505 (set IRDMAX)


--------------------------------------------------------------------------------------------------------


 First call to EWALD:  gamma=   0.097
 Maximum number of real-space cells   3x   3x   2
 Maximum number of reciprocal cells   2x   2x   4

    FEWALD:  cpu time      0.0196: real time      0.0200


--------------------------------------- Ionic step        1  -------------------------------------------




--------------------------------------- Iteration      1(   1)  ---------------------------------------


    POTLOK:  cpu time      2.3438: real time      2.3449
    SETDIJ:  cpu time      1.8127: real time      1.8145
    EDDIAG:  cpu time     44.9439: real time     44.9682
     EDDAV:  cpu time    211.1070: real time    211.2252
       DOS:  cpu time      0.0067: real time      0.0068
    CHARGE:  cpu time     26.1108: real time     26.1355
    MIXING:  cpu time      0.0521: real time      0.0524
    --------------------------------------------
      LOOP:  cpu time    286.3771: real time    286.5474

 eigenvalue-minimisations  :  2048
 total energy-change (2. order) :-0.1029030E+04  (-0.1138558E+01)
 number of electron     403.9999999 magnetization 
 augmentation part      -22.3290696 magnetization 

 Broyden mixing:
  rms(total) = 0.12310E+01    rms(broyden)= 0.12310E+01
  rms(prec ) = 0.12324E+01
  weight for this iteration     100.00

 Free energy of the ion-electron system (eV)
  ---------------------------------------------------
  alpha Z        PSCENC =        56.11435480
  Ewald energy   TEWEN  =     66557.53020326
  -Hartree energ DENC   =    -75775.43556429
  -exchange      EXHF   =         0.00000000
  -V(xc)+E(xc)   XCENC  =      -464.26354005
  PAW double counting   =     36966.55342289   -35979.59073584
  entropy T*S    EENTRO =        -0.20360664
  eigenvalues    EBANDS =     -2693.25795166
  atomic energy  EATOM  =     10303.52363856
  Solvation  Ediel_sol  =         0.00000000
  ---------------------------------------------------
  free energy    TOTEN  =     -1029.02977898 eV

  energy without entropy =    -1028.82617233  energy(sigma->0) =    -1028.92797565


--------------------------------------------------------------------------------------------------------




--------------------------------------- Iteration      1(   2)  ---------------------------------------


    POTLOK:  cpu time      2.2986: real time      2.3167
    SETDIJ:  cpu time      1.8222: real time      1.8230
    EDDIAG:  cpu time     44.9450: real time     44.9718
     EDDAV:  cpu time    212.4503: real time    212.5700
       DOS:  cpu time      0.0047: real time      0.0047
    CHARGE:  cpu time     25.9684: real time     25.9928
    MIXING:  cpu time      0.0450: real time      0.0451
    --------------------------------------------
      LOOP:  cpu time    287.5341: real time    287.7242

 eigenvalue-minimisations  :  2080
 total energy-change (2. order) : 0.7146954E+02  (-0.1080924E+01)
 number of electron     403.9999999 magnetization 
 augmentation part      -22.2427662 magnetization 

 Broyden mixing:
  rms(total) = 0.83187E+00    rms(broyden)= 0.83187E+00
  rms(prec ) = 0.83303E+00
  weight for this iteration     100.00

 eigenvalues of (default mixing * dielectric matrix)
  average eigenvalue GAMMA=   2.6874
  2.6874

 Free energy of the ion-electron system (eV)
  ---------------------------------------------------
  alpha Z        PSCENC =        56.11435480
  Ewald energy   TEWEN  =     66557.53020326
  -Hartree energ DENC   =    -75762.38505767
  -exchange      EXHF   =         0.00000000
  -V(xc)+E(xc)   XCENC  =      -453.79992122
  PAW double counting   =     44201.64225004   -43214.42352298
  entropy T*S    EENTRO =        -0.19429119
  eigenvalues    EBANDS =     -2645.56789424
  atomic energy  EATOM  =     10303.52363856
  Solvation  Ediel_sol  =         0.00000000
  ---------------------------------------------------
  free energy    TOTEN  =      -957.56024063 eV

  energy without entropy =     -957.36594944  energy(sigma->0) =     -957.46309504


--------------------------------------------------------------------------------------------------------




--------------------------------------- Iteration      1(   3)  ---------------------------------------


    POTLOK:  cpu time      2.2891: real time      2.3103
    SETDIJ:  cpu time      1.8206: real time      1.8218
    EDDIAG:  cpu time     45.0077: real time     45.0352
     EDDAV:  cpu time    210.7370: real time    210.8539
       DOS:  cpu time      0.0039: real time      0.0039
    CHARGE:  cpu time     25.9668: real time     25.9923
    MIXING:  cpu time      0.0431: real time      0.0432
    --------------------------------------------
      LOOP:  cpu time    285.8683: real time    286.0606

 eigenvalue-minimisations  :  2048
 total energy-change (2. order) :-0.3069717E+01  (-0.8946336E+00)
 number of electron     403.9999999 magnetization 
 augmentation part      -22.1600804 magnetization 

 Broyden mixing:
  rms(total) = 0.95488E-01    rms(broyden)= 0.95487E-01
  rms(prec ) = 0.12589E+00
  weight for this iteration     100.00

 eigenvalues of (default mixing * dielectric matrix)
  average eigenvalue GAMMA=   1.7815
  0.9707  2.5922

 Free energy of the ion-electron system (eV)
  ---------------------------------------------------
  alpha Z        PSCENC =        56.11435480
  Ewald energy   TEWEN  =     66557.53020326
  -Hartree energ DENC   =    -75759.11153111
  -exchange      EXHF   =         0.00000000
  -V(xc)+E(xc)   XCENC  =      -457.07690376
  PAW double counting   =     58840.26866378   -57853.31206271
  entropy T*S    EENTRO =        -0.18932859
  eigenvalues    EBANDS =     -2648.37699170
  atomic energy  EATOM  =     10303.52363856
  Solvation  Ediel_sol  =         0.00000000
  ---------------------------------------------------
  free energy    TOTEN  =      -960.62995748 eV

  energy without entropy =     -960.44062889  energy(sigma->0) =     -960.53529318


--------------------------------------------------------------------------------------------------------




--------------------------------------- Iteration      1(   4)  ---------------------------------------


    POTLOK:  cpu time      2.3055: real time      2.3235
    SETDIJ:  cpu time      1.8138: real time      1.8152
    EDDIAG:  cpu time     44.9624: real time     44.9885
     EDDAV:  cpu time    228.9167: real time    229.0369
       DOS:  cpu time      0.0053: real time      0.0053
    CHARGE:  cpu time     25.9798: real time     26.0030
    MIXING:  cpu time      0.0434: real time      0.0434
    --------------------------------------------
      LOOP:  cpu time    304.0268: real time    304.2156

 eigenvalue-minimisations  :  2360
 total energy-change (2. order) :-0.3691544E+00  (-0.1094081E+00)
 number of electron     403.9999999 magnetization 
 augmentation part      -22.1613324 magnetization 

 Broyden mixing:
  rms(total) = 0.10922E+00    rms(broyden)= 0.10922E+00
  rms(prec ) = 0.17887E+00
  weight for this iteration     100.00

 eigenvalues of (default mixing * dielectric matrix)
  average eigenvalue GAMMA=   1.3425
  2.5674  1.0390  0.4211

 Free energy of the ion-electron system (eV)
  ---------------------------------------------------
  alpha Z        PSCENC =        56.11435480
  Ewald energy   TEWEN  =     66557.53020326
  -Hartree energ DENC   =    -75762.20725358
  -exchange      EXHF   =         0.00000000
  -V(xc)+E(xc)   XCENC  =      -459.51324962
  PAW double counting   =     58837.50746914   -57850.49719489
  entropy T*S    EENTRO =        -0.20627133
  eigenvalues    EBANDS =     -2643.25080821
  atomic energy  EATOM  =     10303.52363856
  Solvation  Ediel_sol  =         0.00000000
  ---------------------------------------------------
  free energy    TOTEN  =      -960.99911186 eV

  energy without entropy =     -960.79284054  energy(sigma->0) =     -960.89597620


--------------------------------------------------------------------------------------------------------




--------------------------------------- Iteration      1(   5)  ---------------------------------------


    POTLOK:  cpu time      2.2922: real time      2.3101
    SETDIJ:  cpu time      1.8223: real time      1.8231
    EDDIAG:  cpu time     44.9574: real time     44.9848
     EDDAV:  cpu time    226.7513: real time    226.8804
       DOS:  cpu time      0.0031: real time      0.0031
    CHARGE:  cpu time     25.9801: real time     26.0084
    MIXING:  cpu time      0.0436: real time      0.0437
    --------------------------------------------
      LOOP:  cpu time    301.8502: real time    302.0537

 eigenvalue-minimisations  :  2328
 total energy-change (2. order) : 0.2253886E-01  (-0.2557235E-01)
 number of electron     403.9999999 magnetization 
 augmentation part      -22.1638314 magnetization 

 Broyden mixing:
  rms(total) = 0.50306E-01    rms(broyden)= 0.50306E-01
  rms(prec ) = 0.60304E-01
  weight for this iteration     100.00

 eigenvalues of (default mixing * dielectric matrix)
  average eigenvalue GAMMA=   1.2079
  2.5229  1.2590  0.7312  0.3184

 Free energy of the ion-electron system (eV)
  ---------------------------------------------------
  alpha Z        PSCENC =        56.11435480
  Ewald energy   TEWEN  =     66557.53020326
  -Hartree energ DENC   =    -75763.30595060
  -exchange      EXHF   =         0.00000000
  -V(xc)+E(xc)   XCENC  =      -460.68392170
  PAW double counting   =     58720.62197117   -57733.59367626
  entropy T*S    EENTRO =        -0.19424859
  eigenvalues    EBANDS =     -2640.98894363
  atomic energy  EATOM  =     10303.52363856
  Solvation  Ediel_sol  =         0.00000000
  ---------------------------------------------------
  free energy    TOTEN  =      -960.97657301 eV

  energy without entropy =     -960.78232441  energy(sigma->0) =     -960.87944871


--------------------------------------------------------------------------------------------------------




--------------------------------------- Iteration      1(   6)  ---------------------------------------


    POTLOK:  cpu time      2.2903: real time      2.3110
    SETDIJ:  cpu time      1.8145: real time      1.8157
    EDDIAG:  cpu time     44.9803: real time     45.0091
     EDDAV:  cpu time    218.4043: real time    218.5295
       DOS:  cpu time      0.0113: real time      0.0115
    CHARGE:  cpu time     25.9911: real time     26.0169
    MIXING:  cpu time      0.0601: real time      0.0602
    --------------------------------------------
      LOOP:  cpu time    293.5518: real time    293.7537

 eigenvalue-minimisations  :  2184
 total energy-change (2. order) :-0.5044731E-02  (-0.7464338E-02)
 number of electron     403.9999999 magnetization 
 augmentation part      -22.1625188 magnetization 

 Broyden mixing:
  rms(total) = 0.33397E-01    rms(broyden)= 0.33397E-01
  rms(prec ) = 0.35363E-01
  weight for this iteration     100.00

 eigenvalues of (default mixing * dielectric matrix)
  average eigenvalue GAMMA=   1.3263
  2.3838  2.3838  0.8873  0.6621  0.3144

 Free energy of the ion-electron system (eV)
  ---------------------------------------------------
  alpha Z        PSCENC =        56.11435480
  Ewald energy   TEWEN  =     66557.53020326
  -Hartree energ DENC   =    -75763.66267058
  -exchange      EXHF   =         0.00000000
  -V(xc)+E(xc)   XCENC  =      -460.81534452
  PAW double counting   =     58620.73520774   -57633.68714182
  entropy T*S    EENTRO =        -0.19617449
  eigenvalues    EBANDS =     -2640.52369069
  atomic energy  EATOM  =     10303.52363856
  Solvation  Ediel_sol  =         0.00000000
  ---------------------------------------------------
  free energy    TOTEN  =      -960.98161774 eV

  energy without entropy =     -960.78544325  energy(sigma->0) =     -960.88353049


--------------------------------------------------------------------------------------------------------




--------------------------------------- Iteration      1(   7)  ---------------------------------------


    POTLOK:  cpu time      2.3877: real time      2.3900
    SETDIJ:  cpu time      1.8248: real time      1.8264
    EDDIAG:  cpu time     45.0114: real time     45.0375
     EDDAV:  cpu time    225.8937: real time    226.0208
       DOS:  cpu time      0.0025: real time      0.0025
    CHARGE:  cpu time     26.0033: real time     26.0271
    MIXING:  cpu time      0.0455: real time      0.0456
    --------------------------------------------
      LOOP:  cpu time    301.1689: real time    301.3498

 eigenvalue-minimisations  :  2312
 total energy-change (2. order) :-0.2351013E-02  (-0.1431620E-02)
 number of electron     403.9999999 magnetization 
 augmentation part      -22.1592136 magnetization 

 Broyden mixing:
  rms(total) = 0.17151E-01    rms(broyden)= 0.17151E-01
  rms(prec ) = 0.19498E-01
  weight for this iteration     100.00

 eigenvalues of (default mixing * dielectric matrix)
  average eigenvalue GAMMA=   1.3134
  2.6159  2.6159  0.8875  0.8875  0.5627  0.3112

 Free energy of the ion-electron system (eV)
  ---------------------------------------------------
  alpha Z        PSCENC =        56.11435480
  Ewald energy   TEWEN  =     66557.53020326
  -Hartree energ DENC   =    -75763.17405293
  -exchange      EXHF   =         0.00000000
  -V(xc)+E(xc)   XCENC  =      -460.54691807
  PAW double counting   =     58560.59224646   -57573.51718889
  entropy T*S    EENTRO =        -0.19596874
  eigenvalues    EBANDS =     -2641.31028320
  atomic energy  EATOM  =     10303.52363856
  Solvation  Ediel_sol  =         0.00000000
  ---------------------------------------------------
  free energy    TOTEN  =      -960.98396875 eV

  energy without entropy =     -960.78800001  energy(sigma->0) =     -960.88598438


--------------------------------------------------------------------------------------------------------




--------------------------------------- Iteration      1(   8)  ---------------------------------------


    POTLOK:  cpu time      2.3117: real time      2.3135
    SETDIJ:  cpu time      1.8211: real time      1.8221
    EDDIAG:  cpu time     45.0263: real time     45.0541
     EDDAV:  cpu time    222.7257: real time    222.8572
       DOS:  cpu time      0.0026: real time      0.0026
    CHARGE:  cpu time     26.0098: real time     26.0338
    MIXING:  cpu time      0.0459: real time      0.0459
    --------------------------------------------
      LOOP:  cpu time    297.9431: real time    298.1291

 eigenvalue-minimisations  :  2256
 total energy-change (2. order) :-0.9111127E-03  (-0.4391093E-03)
 number of electron     403.9999999 magnetization 
 augmentation part      -22.1576218 magnetization 

 Broyden mixing:
  rms(total) = 0.76064E-02    rms(broyden)= 0.76064E-02
  rms(prec ) = 0.92625E-02
  weight for this iteration     100.00

 eigenvalues of (default mixing * dielectric matrix)
  average eigenvalue GAMMA=   1.2420
  2.6167  2.6167  0.9964  0.9964  0.3102  0.6590  0.4985

 Free energy of the ion-electron system (eV)
  ---------------------------------------------------
  alpha Z        PSCENC =        56.11435480
  Ewald energy   TEWEN  =     66557.53020326
  -Hartree energ DENC   =    -75763.04040368
  -exchange      EXHF   =         0.00000000
  -V(xc)+E(xc)   XCENC  =      -460.39224991
  PAW double counting   =     58597.68317399   -57610.59193836
  entropy T*S    EENTRO =        -0.19643882
  eigenvalues    EBANDS =     -2641.61521971
  atomic energy  EATOM  =     10303.52363856
  Solvation  Ediel_sol  =         0.00000000
  ---------------------------------------------------
  free energy    TOTEN  =      -960.98487986 eV

  energy without entropy =     -960.78844104  energy(sigma->0) =     -960.88666045


--------------------------------------------------------------------------------------------------------




--------------------------------------- Iteration      1(   9)  ---------------------------------------


    POTLOK:  cpu time      2.3351: real time      2.3523
    SETDIJ:  cpu time      1.8177: real time      1.8185
    EDDIAG:  cpu time     45.0991: real time     45.1260
     EDDAV:  cpu time    220.2232: real time    220.3451
       DOS:  cpu time      0.0033: real time      0.0033
    CHARGE:  cpu time     26.0104: real time     26.0346
    MIXING:  cpu time      0.0465: real time      0.0465
    --------------------------------------------
      LOOP:  cpu time    295.5354: real time    295.7263

 eigenvalue-minimisations  :  2216
 total energy-change (2. order) : 0.3553505E-05  (-0.1903416E-03)
 number of electron     403.9999999 magnetization 
 augmentation part      -22.1580359 magnetization 

 Broyden mixing:
  rms(total) = 0.38432E-02    rms(broyden)= 0.38432E-02
  rms(prec ) = 0.44840E-02
  weight for this iteration     100.00

 eigenvalues of (default mixing * dielectric matrix)
  average eigenvalue GAMMA=   1.2033
  2.6408  2.6408  1.2119  0.9923  0.7572  0.3103  0.6110  0.4620

 Free energy of the ion-electron system (eV)
  ---------------------------------------------------
  alpha Z        PSCENC =        56.11435480
  Ewald energy   TEWEN  =     66557.53020326
  -Hartree energ DENC   =    -75762.83621606
  -exchange      EXHF   =         0.00000000
  -V(xc)+E(xc)   XCENC  =      -460.41488844
  PAW double counting   =     58623.21084185   -57636.11544082
  entropy T*S    EENTRO =        -0.19620004
  eigenvalues    EBANDS =     -2641.80116943
  atomic energy  EATOM  =     10303.52363856
  Solvation  Ediel_sol  =         0.00000000
  ---------------------------------------------------
  free energy    TOTEN  =      -960.98487631 eV

  energy without entropy =     -960.78867628  energy(sigma->0) =     -960.88677629


--------------------------------------------------------------------------------------------------------




--------------------------------------- Iteration      1(  10)  ---------------------------------------


    POTLOK:  cpu time      2.3129: real time      2.3151
    SETDIJ:  cpu time      1.8215: real time      1.8224
    EDDIAG:  cpu time     44.9957: real time     45.0238
     EDDAV:  cpu time    220.5776: real time    220.7022
       DOS:  cpu time      0.0023: real time      0.0023
    CHARGE:  cpu time     26.0167: real time     26.0399
    MIXING:  cpu time      0.0473: real time      0.0473
    --------------------------------------------
      LOOP:  cpu time    295.7740: real time    295.9530

 eigenvalue-minimisations  :  2216
 total energy-change (2. order) :-0.2095481E-04  (-0.6683371E-04)
 number of electron     403.9999999 magnetization 
 augmentation part      -22.1579834 magnetization 

 Broyden mixing:
  rms(total) = 0.19400E-02    rms(broyden)= 0.19400E-02
  rms(prec ) = 0.21277E-02
  weight for this iteration     100.00

 eigenvalues of (default mixing * dielectric matrix)
  average eigenvalue GAMMA=   1.2575
  2.7278  2.7278  1.8365  1.0405  0.3104  0.8193  0.7681  0.6228  0.4644

 Free energy of the ion-electron system (eV)
  ---------------------------------------------------
  alpha Z        PSCENC =        56.11435480
  Ewald energy   TEWEN  =     66557.53020326
  -Hartree energ DENC   =    -75762.67589717
  -exchange      EXHF   =         0.00000000
  -V(xc)+E(xc)   XCENC  =      -460.42370490
  PAW double counting   =     58620.90015835   -57633.80229579
  entropy T*S    EENTRO =        -0.19627607
  eigenvalues    EBANDS =     -2641.95507831
  atomic energy  EATOM  =     10303.52363856
  Solvation  Ediel_sol  =         0.00000000
  ---------------------------------------------------
  free energy    TOTEN  =      -960.98489727 eV

  energy without entropy =     -960.78862119  energy(sigma->0) =     -960.88675923


--------------------------------------------------------------------------------------------------------




--------------------------------------- Iteration      1(  11)  ---------------------------------------


    POTLOK:  cpu time      2.2912: real time      2.3135
    SETDIJ:  cpu time      1.8253: real time      1.8259
    EDDIAG:  cpu time     45.0182: real time     45.0454
     EDDAV:  cpu time    222.8379: real time    222.9611
       DOS:  cpu time      0.0028: real time      0.0028
    CHARGE:  cpu time     26.0199: real time     26.0445
    MIXING:  cpu time      0.0476: real time      0.0486
    --------------------------------------------
      LOOP:  cpu time    298.0428: real time    298.2417

 eigenvalue-minimisations  :  2256
 total energy-change (2. order) :-0.5322983E-04  (-0.3174104E-04)
 number of electron     403.9999999 magnetization 
 augmentation part      -22.1581197 magnetization 

 Broyden mixing:
  rms(total) = 0.92311E-03    rms(broyden)= 0.92311E-03
  rms(prec ) = 0.11385E-02
  weight for this iteration     100.00

 eigenvalues of (default mixing * dielectric matrix)
  average eigenvalue GAMMA=   1.2704
  2.8276  2.8276  2.1107  1.1031  0.8536  0.8536  0.3103  0.7294  0.6163  0.4720

 Free energy of the ion-electron system (eV)
  ---------------------------------------------------
  alpha Z        PSCENC =        56.11435480
  Ewald energy   TEWEN  =     66557.53020326
  -Hartree energ DENC   =    -75762.36533572
  -exchange      EXHF   =         0.00000000
  -V(xc)+E(xc)   XCENC  =      -460.43824792
  PAW double counting   =     58614.19806333   -57627.09795254
  entropy T*S    EENTRO =        -0.19628122
  eigenvalues    EBANDS =     -2642.25339304
  atomic energy  EATOM  =     10303.52363856
  Solvation  Ediel_sol  =         0.00000000
  ---------------------------------------------------
  free energy    TOTEN  =      -960.98495049 eV

  energy without entropy =     -960.78866927  energy(sigma->0) =     -960.88680988


--------------------------------------------------------------------------------------------------------




--------------------------------------- Iteration      1(  12)  ---------------------------------------


    POTLOK:  cpu time      2.3102: real time      2.3117
    SETDIJ:  cpu time      1.8259: real time      1.8270
    EDDIAG:  cpu time     44.9972: real time     45.0233
     EDDAV:  cpu time    216.1943: real time    216.3181
       DOS:  cpu time      0.0022: real time      0.0022
    CHARGE:  cpu time     26.0059: real time     26.0296
    MIXING:  cpu time      0.0490: real time      0.0490
    --------------------------------------------
      LOOP:  cpu time    291.3847: real time    291.5608

 eigenvalue-minimisations  :  2144
 total energy-change (2. order) :-0.1014268E-03  (-0.1589421E-04)
 number of electron     403.9999999 magnetization 
 augmentation part      -22.1582079 magnetization 

 Broyden mixing:
  rms(total) = 0.46963E-03    rms(broyden)= 0.46963E-03
  rms(prec ) = 0.65452E-03
  weight for this iteration     100.00

 eigenvalues of (default mixing * dielectric matrix)
  average eigenvalue GAMMA=   1.2666
  2.8769  2.8769  2.2256  1.2629  0.9361  0.9361  0.3103  0.7074  0.7074  0.6222
  0.4712

 Free energy of the ion-electron system (eV)
  ---------------------------------------------------
  alpha Z        PSCENC =        56.11435480
  Ewald energy   TEWEN  =     66557.53020326
  -Hartree energ DENC   =    -75762.12075467
  -exchange      EXHF   =         0.00000000
  -V(xc)+E(xc)   XCENC  =      -460.44776005
  PAW double counting   =     58612.54267542   -57625.44185764
  entropy T*S    EENTRO =        -0.19627592
  eigenvalues    EBANDS =     -2642.48927568
  atomic energy  EATOM  =     10303.52363856
  Solvation  Ediel_sol  =         0.00000000
  ---------------------------------------------------
  free energy    TOTEN  =      -960.98505192 eV

  energy without entropy =     -960.78877601  energy(sigma->0) =     -960.88691396


--------------------------------------------------------------------------------------------------------




--------------------------------------- Iteration      1(  13)  ---------------------------------------


    POTLOK:  cpu time      2.3084: real time      2.3095
    SETDIJ:  cpu time      1.8160: real time      1.8173
    EDDIAG:  cpu time     45.0041: real time     45.0327
     EDDAV:  cpu time    214.1389: real time    214.2529
       DOS:  cpu time      0.0061: real time      0.0064
    CHARGE:  cpu time     26.0189: real time     26.0425
    MIXING:  cpu time      0.0501: real time      0.0501
    --------------------------------------------
      LOOP:  cpu time    289.3424: real time    289.5113

 eigenvalue-minimisations  :  2112
 total energy-change (2. order) :-0.1000667E-03  (-0.1221255E-04)
 number of electron     403.9999999 magnetization 
 augmentation part      -22.1582504 magnetization 

 Broyden mixing:
  rms(total) = 0.32460E-03    rms(broyden)= 0.32460E-03
  rms(prec ) = 0.47854E-03
  weight for this iteration     100.00

 eigenvalues of (default mixing * dielectric matrix)
  average eigenvalue GAMMA=   1.2849
  3.1072  2.7831  2.2362  1.7378  0.9415  0.9415  0.9465  0.3103  0.6814  0.6814
  0.4705  0.5814

 Free energy of the ion-electron system (eV)
  ---------------------------------------------------
  alpha Z        PSCENC =        56.11435480
  Ewald energy   TEWEN  =     66557.53020326
  -Hartree energ DENC   =    -75761.93187016
  -exchange      EXHF   =         0.00000000
  -V(xc)+E(xc)   XCENC  =      -460.45296736
  PAW double counting   =     58612.78378236   -57625.68304197
  entropy T*S    EENTRO =        -0.19629790
  eigenvalues    EBANDS =     -2642.67295358
  atomic energy  EATOM  =     10303.52363856
  Solvation  Ediel_sol  =         0.00000000
  ---------------------------------------------------
  free energy    TOTEN  =      -960.98515199 eV

  energy without entropy =     -960.78885409  energy(sigma->0) =     -960.88700304


--------------------------------------------------------------------------------------------------------




--------------------------------------- Iteration      1(  14)  ---------------------------------------


    POTLOK:  cpu time      2.2939: real time      2.3180
    SETDIJ:  cpu time      1.8205: real time      1.8215
    EDDIAG:  cpu time     44.9767: real time     45.0022
     EDDAV:  cpu time    214.1484: real time    214.2644
       DOS:  cpu time      0.0129: real time      0.0131
    CHARGE:  cpu time     26.0090: real time     26.0470
    MIXING:  cpu time      0.0662: real time      0.0663
    --------------------------------------------
      LOOP:  cpu time    289.3283: real time    289.5332

 eigenvalue-minimisations  :  2112
 total energy-change (2. order) :-0.1028369E-03  (-0.1294656E-04)
 number of electron     403.9999999 magnetization 
 augmentation part      -22.1582792 magnetization 

 Broyden mixing:
  rms(total) = 0.21741E-03    rms(broyden)= 0.21741E-03
  rms(prec ) = 0.33501E-03
  weight for this iteration     100.00

 eigenvalues of (default mixing * dielectric matrix)
  average eigenvalue GAMMA=   1.3226
  3.3837  2.6941  2.5046  2.0974  1.0772  1.0772  0.9315  0.3103  0.7364  0.7364
  0.4695  0.5885  0.5870

 Free energy of the ion-electron system (eV)
  ---------------------------------------------------
  alpha Z        PSCENC =        56.11435480
  Ewald energy   TEWEN  =     66557.53020326
  -Hartree energ DENC   =    -75761.75989872
  -exchange      EXHF   =         0.00000000
  -V(xc)+E(xc)   XCENC  =      -460.45637431
  PAW double counting   =     58612.43709738   -57625.33660097
  entropy T*S    EENTRO =        -0.19628446
  eigenvalues    EBANDS =     -2642.84139037
  atomic energy  EATOM  =     10303.52363856
  Solvation  Ediel_sol  =         0.00000000
  ---------------------------------------------------
  free energy    TOTEN  =      -960.98525483 eV

  energy without entropy =     -960.78897037  energy(sigma->0) =     -960.88711260


--------------------------------------------------------------------------------------------------------




[...]
   0.122E+02 0.115E+02 -.882E+02   -.131E+02 -.110E+02 0.882E+02   0.101E+01 -.341E+00 0.872E-02   -.469E-06 0.114E-04 -.685E-04
   -.181E+02 -.521E+02 -.386E+03   0.167E+02 0.500E+02 0.383E+03   0.128E+01 0.171E+01 0.253E+01   0.186E-04 0.352E-04 -.356E-04
   -.308E+02 -.264E+02 -.431E+02   0.288E+02 0.254E+02 0.424E+02   0.175E+01 0.790E+00 0.807E+00   -.191E-04 0.248E-06 -.138E-04
   -.236E+02 -.567E+01 -.359E+03   0.230E+02 0.545E+01 0.356E+03   0.113E+01 0.780E-01 0.239E+01   -.154E-04 -.141E-04 0.709E-05
   -.311E+01 0.972E+00 0.267E+03   0.191E+01 -.116E+00 -.264E+03   0.950E+00 -.734E+00 -.276E+01   -.231E-04 -.570E-05 -.229E-04
   0.880E+01 -.705E+01 -.322E+03   -.104E+02 0.824E+01 0.320E+03   0.159E+01 -.122E+01 0.110E+01   0.850E-05 0.247E-05 -.312E-04
   -.161E+02 -.106E+02 -.962E+02   0.146E+02 0.100E+02 0.974E+02   0.136E+01 0.241E+00 -.107E+01   0.408E-05 0.865E-05 -.464E-04
   -.327E+02 -.123E+02 0.341E+03   0.314E+02 0.126E+02 -.341E+03   0.141E+01 -.309E+00 -.132E+00   -.324E-05 0.180E-05 -.288E-05
   0.107E+02 0.156E+02 0.101E+03   -.110E+02 -.159E+02 -.102E+03   0.148E+00 0.458E+00 0.140E+01   0.455E-05 0.386E-05 -.676E-04
   0.152E+02 0.134E+02 -.170E+03   -.146E+02 -.128E+02 0.171E+03   -.313E+00 -.616E+00 -.113E+01   0.762E-05 0.252E-05 -.498E-04
   0.499E+01 0.226E+02 0.206E+03   -.542E+01 -.211E+02 -.207E+03   0.144E+00 -.141E+01 0.470E+00   0.501E-05 0.896E-05 -.354E-04
   0.274E+01 0.553E+01 0.151E+03   -.203E+01 -.722E+01 -.152E+03   -.661E+00 0.147E+01 0.765E+00   -.177E-04 0.364E-05 -.232E-04
   -.155E+02 -.768E+01 0.212E+03   0.163E+02 0.739E+01 -.211E+03   -.805E+00 0.154E+00 -.126E+01   0.638E-05 -.136E-04 -.427E-04
   -.927E+01 0.629E+01 0.175E+03   0.908E+01 -.567E+01 -.175E+03   -.152E+00 -.583E+00 0.183E+00   0.518E-05 -.110E-04 -.463E-04
   -.126E+02 -.282E+02 -.143E+03   0.110E+02 0.258E+02 0.143E+03   0.153E+01 0.228E+01 0.198E+00   0.163E-04 -.331E-06 -.395E-04
   -.490E+01 -.656E+01 -.157E+03   0.333E+01 0.510E+01 0.157E+03   0.151E+01 0.124E+01 0.919E-01   -.168E-04 0.361E-05 -.486E-04
   0.956E+01 -.129E+02 -.161E+03   -.840E+01 0.115E+02 0.160E+03   -.892E+00 0.123E+01 0.158E+00   0.104E-04 0.131E-04 -.347E-04
   0.242E+02 0.165E+02 -.345E+03   -.222E+02 -.146E+02 0.341E+03   -.198E+01 -.182E+01 0.330E+01   0.515E-05 0.859E-05 0.116E-05
   0.145E+02 0.241E+02 -.399E+02   -.141E+02 -.225E+02 0.417E+02   -.323E+00 -.161E+01 -.161E+01   0.131E-04 -.161E-04 -.511E-04
   0.538E+01 0.272E+02 -.244E+03   -.446E+01 -.256E+02 0.245E+03   -.599E+00 -.105E+01 -.148E+01   0.451E-04 -.489E-04 -.468E-04
   -.246E+02 0.966E+01 0.274E+03   0.242E+02 -.846E+01 -.274E+03   0.467E+00 -.108E+01 0.889E-01   -.236E-04 -.147E-04 -.275E-04
   0.359E+01 -.189E+01 0.162E+03   -.366E+01 0.254E+01 -.162E+03   0.275E+00 -.578E+00 -.954E+00   0.853E-05 -.191E-05 -.378E-04
   0.747E+01 -.150E+02 0.324E+03   -.101E+02 0.170E+02 -.321E+03   0.241E+01 -.195E+01 -.292E+01   0.296E-04 0.123E-04 -.337E-04
   -.203E+02 -.221E+02 -.304E+03   0.199E+02 0.197E+02 0.304E+03   0.726E+00 0.225E+01 0.317E+00   0.732E-05 0.159E-04 -.260E-04
   -.278E+02 0.394E+01 -.311E+03   0.266E+02 -.333E+01 0.310E+03   0.674E+00 -.596E+00 0.164E+01   -.312E-05 0.179E-04 -.199E-04
   0.205E+02 0.284E+01 0.162E+03   -.193E+02 -.214E+01 -.163E+03   -.105E+01 -.792E+00 0.123E+01   0.912E-05 -.288E-05 -.369E-04
   0.422E+01 -.226E+00 0.228E+03   -.424E+01 -.544E+00 -.228E+03   -.404E-01 0.934E+00 -.413E+00   -.629E-05 0.109E-04 -.200E-04
   -.244E+02 0.186E+02 -.349E+03   0.251E+02 -.174E+02 0.347E+03   -.726E+00 -.115E+01 0.226E+01   -.145E-04 0.278E-05 -.219E-05
 -----------------------------------------------------------------------------------------------
   0.503E+01 0.562E+01 -.439E+01   -.114E-12 0.924E-13 0.000E+00   -.502E+01 -.562E+01 0.439E+01   -.766E-04 -.611E-04 -.303E-02


 POSITION                                       TOTAL-FORCE (eV/Angst)
 -----------------------------------------------------------------------------------
      4.83704      7.45823     13.26107         0.165899     -0.614619      1.195187
      9.64061     14.43352     10.20119         0.464310     -0.005016     -0.702738
     12.00127     13.21378     11.07695         0.058104      0.035439      0.191795
      7.41742      4.27135     16.79407         0.058846      0.084071     -0.057394
     10.02062     14.37132      9.52304        -0.138515     -0.009284      0.188626
      3.30332      4.18405     13.78999        -0.139892      0.186824      0.207392
     11.80758      0.29760     12.61411        -0.036046     -0.061293      0.091874
      4.96389      7.05750     13.98237        -0.193698      0.483246     -0.466933
     13.50015     14.27458     15.27082        -0.109257      0.030900      0.167891
     10.51376      9.22335     15.31940        -0.006827     -0.107123     -0.063987
      5.69985      2.35933     13.49494        -0.049846     -0.091505     -0.210949
     14.23523      3.95873     11.04184         0.100554     -0.295690     -0.090854
      4.42102      4.63924     11.06324        -0.061426      0.216767     -0.266975
      4.63432      2.80412      9.65416         0.127447     -0.089779      0.548607
      8.34208      2.50943     18.86214        -0.189975      0.130132     -0.326220
      3.07182      6.55450     10.99200        -0.155135      0.219869      0.101970
      3.95138      1.83119     16.75780        -0.263026      0.049585      0.115932
      6.63154      5.30908     11.80620        -0.134649      0.474714     -0.226129
      2.10393      1.52898     13.16506         0.002143     -0.030822     -0.106792
     10.44068      3.98624     12.29280        -0.216287     -0.314949      0.204747
      3.04395      4.75474     19.01249        -0.027429      0.006715      0.099940
      4.56919      3.95594     17.48395         0.169074     -0.027783     -0.146296
     13.40613      4.59861     14.73837        -0.051168      0.031461     -0.120462
      0.59753     12.74484     10.77296         0.023435     -0.193283     -0.108500
      7.54777      7.70733     17.34861        -0.162211     -0.359713      0.048608
      8.45992     14.42405     11.94792        -0.138013      0.396528      0.462773
      5.39934     11.28462     17.72973        -0.014415     -0.189956      0.169498
      6.35543      4.54810     14.00524        -0.206770      0.028813      0.086803
      5.74654      1.12992     15.44006         0.021554      0.148272      0.091882
      8.19391      4.46107     15.35524         0.023834      0.308123      0.010007
      5.29269      7.47383     16.84391         0.163653      0.097414      0.101989
     12.77249      1.07833     13.43788        -0.073563     -0.083467     -0.001279
      1.40895      8.82841     13.67182         0.038358      0.158535     -0.106858
      0.75001     11.13828     16.55189        -0.076550      0.139616      0.075719
      8.22334      3.70909     11.29046        -0.103499     -0.151582      0.261409
      6.96393      2.32910      9.84624        -0.048051     -0.367790     -0.439555
      8.78154      9.61122     16.86656         0.166063     -0.045994      0.161542
      3.26751      0.91874     10.06392         0.025766      0.268547      0.098962
      6.78224     12.22358     14.21146        -0.462031     -0.058755     -0.408583
      6.75448      4.04907     18.27610         0.396340      0.144879      0.093154
      8.07809      1.07590     15.95706        -0.271690     -0.045362      0.173056
      9.38290      7.61062     14.09124        -0.196054     -0.097549      0.091342
      1.74053     13.19037     17.32821        -0.124059     -0.043460      0.043144
      3.66695      3.17516     12.72981         0.013142     -0.143901      0.083832
      4.65829     13.99231     11.23599         0.035368     -0.096698     -0.143254
     11.99954      4.45506     10.62687        -0.237236      0.665922      0.160539
      6.43677      1.01720     11.66807         0.158228     -0.005815      0.177321
     12.91479     11.12151     13.29260        -0.040885     -0.186166     -0.081657
      8.19808     11.76826     16.07565         0.419248      0.163545     -0.125030
     10.28765      3.52975     17.85289        -0.339434     -0.098604      0.487559
      0.87929      4.33154     18.08143        -0.197977      0.135654      0.220664
     11.75828     13.44331     16.60270         0.138258      0.132031     -0.336816
      1.00409      4.06274     15.75853         0.047212     -0.092816     -0.152166
     13.58749      8.92787     13.66418         0.219496      0.222184     -0.025738
     10.79846      6.48983     10.19891         0.302073     -0.445294      0.327921
      5.61278     11.89373     10.73047         0.121809      0.052795      0.179100
      0.94581      0.48396     10.22238         0.139133     -0.106358      0.022343
      7.58369     12.54756     18.16052         0.067647      0.092106      0.166531
      2.49158      5.78516     15.09243         0.109548     -0.235421      0.033539
     13.43756      8.15413     19.14628        -0.326525     -0.130670      0.268042
      1.92944      7.35770     16.83299        -0.205742      0.256915      0.099329
      1.54289     12.51849     12.94480         0.037488     -0.104486      0.242255
      0.03602      1.78089     11.98615         0.021922      0.199102      0.109115
      0.55335      0.63286     16.73350        -0.167975     -0.131247     -0.120439
      4.75787      8.05083     11.48395         0.117960     -0.277071     -0.696073
     12.65509      8.47250     15.75627        -0.175264      0.022360     -0.079503
      8.52744     14.16404     14.21930         0.005079     -0.157031     -0.485332
     14.47088     12.26062     14.61659         0.002505      0.282000      0.144174
     10.71791      5.82627     17.51848         0.080281      0.353129      0.081863
      1.87081     10.88414      9.96197         0.067065      0.008328     -0.285870
     14.25316      2.25449     18.29741        -0.165728      0.127117     -0.175846
      3.39314      0.18552     18.42578         0.317024     -0.349810     -0.056317
      9.47401     11.09104     18.53043         0.163018     -0.213467      0.051301
     12.32295      8.25627     10.13368        -0.002611      0.696480     -0.590741
     11.22913     10.25944     10.57793         0.400571     -0.296302      0.438366
     11.58302      3.00600     14.15971         0.131943     -0.015893     -0.193840
      9.73557      2.78324     15.69050         0.222867     -0.076437     -0.042022
      5.93025     10.03838     13.99295         0.088459     -0.023080      0.249687
     10.67958     11.02154     13.86496         0.128742      0.104348      0.091704
      1.95935      1.96980     15.46463         0.122316      0.132284      0.042935
      3.57903      6.93227     18.39403        -0.124898     -0.459967     -0.446657
     10.08763     12.80825     15.14496        -0.217145     -0.225445      0.156552
     11.98785      2.15687     18.54450         0.502939     -0.198512     -0.193139
      9.26173     10.53488     12.05568        -0.186844      0.110663     -0.162305
     14.48979      6.50791     17.82561         0.046576     -0.097085     -0.140200
      4.79084      5.49507     15.59413        -0.013261     -0.243182      0.137776
      6.95652      7.52423     11.15976        -0.084063     -0.040553     -0.168369
      3.30472     14.00199     13.15414        -0.074524      0.162551     -0.228931
     12.69736      6.20831     16.35637         0.284478      0.000567     -0.067760
      2.27188     10.44690     12.24849        -0.255551     -0.010024      0.002225
      7.77369      8.83062     12.92511         0.042149     -0.129022     -0.090521
     12.72681      7.27626     12.22565        -0.079511     -0.125502      0.376471
     14.25920      5.56632     12.71411        -0.384778      0.015760     -0.125246
      2.27274      9.45128     15.80950         0.009612     -0.018176      0.019334
      8.98310      6.45796     16.06894         0.010695     -0.169382     -0.166656
      4.71545      9.61781     16.03064         0.217658     -0.089417     -0.104449
      8.53198      0.26060     18.10224        -0.012701      0.034704      0.170474
      4.91967     13.57350     14.83323         0.009683     -0.054775      0.112314
      4.05145     13.00261     16.96301         0.269489      0.497640     -0.111718
      7.62380     12.24503     11.90353         0.067185      0.080130     -0.046548
      1.82688      6.62522     13.00410         0.178242      0.055850     -0.107941
     12.84267     11.98522     11.12566        -0.147100     -0.012199     -0.066692
     13.42955      9.87116     17.49647         0.224324      0.018029      0.082853
     11.61431     11.35649     17.57007        -0.475880      0.012575      0.092348
     10.57720      6.32182     12.55086         0.171428     -0.159830     -0.208999
      4.57035     10.27272     12.08614        -0.067388      0.167778     -0.002107
     10.85860      0.21296     18.22899        -0.085137      0.061416     -0.032932
 -----------------------------------------------------------------------------------
    total drift:                                0.010418     -0.004291     -0.010533


--------------------------------------------------------------------------------------------------------



  FREE ENERGIE OF THE ION-ELECTRON SYSTEM (eV)
  ---------------------------------------------------
  free  energy   TOTEN  =      -960.98555649 eV

  energy  without entropy=     -960.78925764  energy(sigma->0) =     -960.88740707



--------------------------------------------------------------------------------------------------------


    POTLOK:  cpu time      4.1098: real time      4.1122


--------------------------------------------------------------------------------------------------------


     LOOP+:  cpu time   6581.0108: real time   6585.3842
    4ORBIT:  cpu time      0.0000: real time      0.0000



 total charge

# of ion       s       p       d       tot
------------------------------------------
    1        0.576   0.028   0.000   0.604
    2        0.588   0.032   0.000   0.620
    3        0.565   0.016   0.000   0.581
    4        0.581   0.018   0.000   0.599
    5        0.589   0.026   0.000   0.615
    6        0.569   0.018   0.000   0.587
    7        0.564   0.016   0.000   0.580
    8        0.548   0.025   0.000   0.574
    9        0.750   0.952   0.000   1.702
   10        0.759   0.967   0.000   1.726
   11        0.758   0.963   0.000   1.721
   12        0.798   0.857   0.000   1.655
   13        0.761   0.919   0.000   1.680
   14        0.795   0.838   0.000   1.633
   15        0.786   0.855   0.000   1.642
   16        0.798   0.868   0.000   1.667
   17        0.763   0.925   0.000   1.688
   18        0.761   0.924   0.000   1.685
   19        0.752   0.926   0.000   1.678
   20        0.758   0.898   0.000   1.655
   21        0.798   0.863   0.000   1.661
   22        0.757   0.925   0.000   1.682
   23        0.759   0.881   0.000   1.639
   24        0.757   0.913   0.000   1.670
   25        0.784   0.889   0.000   1.673
   26        0.816   0.881   0.000   1.697
   27        0.813   0.779   0.000   1.593
   28        0.758   0.944   0.000   1.702
   29        0.759   0.954   0.000   1.713
   30        0.780   0.940   0.000   1.721
   31        0.755   0.917   0.000   1.672
   32        0.740   0.948   0.000   1.689
   33        0.753   0.944   0.000   1.697
   34        0.754   0.878   0.000   1.633
   35        0.796   0.818   0.000   1.614
   36        0.809   0.845   0.000   1.654
   37        0.760   0.923   0.000   1.683
   38        0.776   0.854   0.000   1.630
   39        0.759   0.922   0.000   1.681
   40        0.810   0.832   0.000   1.642
   41        0.756   0.918   0.000   1.674
   42        0.759   0.957   0.000   1.716
   43        0.762   0.881   0.000   1.644
   44        0.760   0.965   0.000   1.725
   45        0.757   0.920   0.000   1.677
   46        0.800   0.833   0.000   1.633
   47        0.758   0.907   0.000   1.665
   48        0.754   0.973   0.000   1.727
   49        0.774   0.911   0.000   1.684
   50        0.755   0.918   0.000   1.672
   51        0.750   0.913   0.000   1.663
   52        0.752   0.976   0.000   1.728
   53        0.758   0.930   0.000   1.689
   54        0.760   0.955   0.000   1.715
   55        0.818   0.809   0.000   1.627
   56        0.796   0.853   0.000   1.649
   57        0.790   0.842   0.000   1.631
   58        0.777   0.854   0.000   1.631
   59        0.762   0.914   0.000   1.676
   60        0.878   0.710   0.000   1.588
   61        0.760   0.936   0.000   1.696
   62        0.761   0.957   0.000   1.718
   63        0.749   0.902   0.000   1.651
   64        0.748   0.926   0.000   1.673
   65        0.795   0.888   0.000   1.684
   66        0.756   0.948   0.000   1.704
   67        0.793   0.901   0.000   1.694
   68        0.755   0.948   0.000   1.703
   69        0.790   0.866   0.000   1.656
   70        0.885   0.703   0.000   1.588
   71        0.769   0.865   0.000   1.634
   72        0.842   0.773   0.000   1.615
   73        0.802   0.835   0.000   1.638
   74        0.805   0.860   0.000   1.665
   75        0.794   0.808   0.000   1.602
   76        0.748   0.889   0.000   1.637
   77        0.760   0.917   0.000   1.678
   78        0.772   0.886   0.000   1.659
   79        0.755   0.981   0.000   1.736
   80        0.758   0.957   0.000   1.714
   81        0.799   0.861   0.000   1.660
   82        0.765   0.989   0.000   1.754
   83        0.765   0.915   0.000   1.680
   84        0.756   0.897   0.000   1.653
   85        0.756   0.938   0.000   1.694
   86        0.767   0.878   0.000   1.645
   87        0.793   0.893   0.000   1.687
   88        0.755   0.940   0.000   1.695
   89        0.754   0.937   0.000   1.691
   90        0.754   0.982   0.000   1.736
   91        0.755   0.905   0.000   1.661
   92        0.763   0.903   0.000   1.666
   93        0.757   0.925   0.000   1.681
   94        0.750   0.910   0.000   1.660
   95        0.754   0.983   0.000   1.737
   96        0.760   0.873   0.000   1.633
   97        0.756   0.897   0.000   1.653
   98        0.756   0.932   0.000   1.688
   99        0.754   0.938   0.000   1.692
  100        0.764   0.897   0.000   1.661
  101        0.752   0.936   0.000   1.688
  102        0.741   0.937   0.000   1.678
  103        0.756   0.923   0.000   1.679
  104        0.797   0.847   0.000   1.644
  105        0.762   0.918   0.000   1.681
  106        0.756   0.958   0.000   1.714
  107        0.775   0.915   0.000   1.690
--------------------------------------------------
tot         80.955  89.443   0.000 170.398


 total amount of memory used by VASP MPI-rank0   387448. kBytes
=======================================================================

   base                                    :      30000. kBytes
   nonl-proj                               :      80615. kBytes
   fftplans                                :     114278. kBytes
   grid                                    :      88184. kBytes
   one-center                              :         21. kBytes
   wavefun                                 :      74350. kBytes

  
  
 General timing and accounting informations for this job:
 ========================================================
  
                  Total CPU time used (sec):     6740.049
                            User time (sec):     6011.493
                          System time (sec):      728.557
                         Elapsed time (sec):     6744.508
  
                   Maximum memory used (kb):      641968.
                   Average memory used (kb):          N/A
  
                          Minor page faults:      8846463
                          Major page faults:         1174
                 Voluntary context switches:         2926
