ITEM: TIMESTEP
119756
ITEM: NUMBER OF ATOMS
11500
ITEM: BOX BOUNDS pp pp pp
-8.7119545608851945e-01 5.8792379062265539e+01
-8.7119545608851945e-01 5.8792379062265539e+01
-8.7119545608851945e-01 5.9997602353551827e+01
ITEM: ATOMS id type xs ys zs
1 2 0.962352 0.0355758 0.267377
2 2 0.770271 0.410009 0.26962
3 2 0.459063 0.513148 0.463373
4 2 0.894062 0.984147 0.477557
5 2 0.26835 0.120601 0.42812
6 2 0.324973 0.870747 0.161258
7 2 0.0193045 0.290008 0.583294
8 2 0.418453 0.151476 0.263758
9 2 0.191861 0.354623 0.463272
10 2 0.144059 0.103765 0.306715
11 2 0.335744 0.203883 0.125687
12 2 0.25071 0.318351 0.18981
13 2 0.187017 0.437017 0.093865
14 2 0.0591362 0.3805 0.594771
15 2 0.545445 0.249149 0.446324
16 2 0.359846 0.141435 0.690435
17 2 0.292645 0.24854 0.0998706
18 2 0.0440323 0.136895 0.930505
19 2 0.0697337 0.357624 0.496523
20 2 0.275694 0.138876 0.202194
21 2 0.0299535 0.0749716 0.174125
22 2 0.452351 0.0692337 0.497985
23 2 0.868063 0.0645071 0.634172
24 2 0.592964 0.0849868 0.462568
25 2 0.143359 0.337916 0.396192
26 2 0.71711 0.203681 0.144175
27 2 0.805433 0.121007 0.0596947
28 2 0.209329 0.318082 0.30827
29 2 0.178589 0.137887 0.0808152
30 2 0.15978 0.241639 0.555909
31 2 0.415353 0.143036 0.439818
32 2 0.30842 0.425812 0.12102
33 2 0.149519 0.459133 0.240855
34 2 0.227851 0.0659876 0.696624
35 2 0.1344 0.297871 0.979201
36 2 0.333505 0.938612 0.0246843
37 2 0.521721 0.039292 0.0784341
38 2 0.312349 0.550566 0.664044
39 2 0.933129 0.655463 0.190135
40 2 0.947185 0.203441 0.442126
41 2 0.775293 0.483562 0.0758395
42 2 0.888071 0.676994 0.13527
43 2 0.0778314 0.206884 0.0728479
44 2 0.362664 0.31673 0.15108
45 2 0.985519 0.798299 0.138317
46 2 0.918587 0.46901 0.145027
47 2 0.00446873 0.706586 0.510286
48 2 0.360582 0.527254 0.479545
49 2 0.196636 0.0322473 0.0537587
50 2 0.250209 0.134215 0.231617
51 2 0.543904 0.0662313 0.518086
52 2 0.265474 0.0878611 0.620656
53 2 0.346513 0.895516 0.274235
54 2 0.411744 0.439868 0.295104
55 2 0.891899 0.40703 0.531567
56 2 0.134375 0.426328 0.723296
57 2 0.496868 0.232755 0.814882
58 2 0.100946 0.242816 0.586515
59 2 0.719517 0.436234 0.394611
60 2 0.326026 0.181186 0.470831
61 2 0.064942 0.173523 0.507294
62 2 0.355492 0.39031 0.444316
63 2 0.900536 0.407404 0.280566
64 2 0.968026 0.754695 0.979776
65 2 0.565568 0.470132 0.791575
66 2 0.508316 0.25297 0.169395
67 2 0.292366 0.200599 0.305789
68 2 0.73114 0.338728 0.0830643
69 2 0.866057 0.692283 0.386992
70 2 0.552523 0.303379 0.169036
71 2 0.319755 0.52238 0.202957
72 2 0.0389524 0.144153 0.240296
73 2 0.273483 0.0234694 0.379137
74 2 0.475548 0.343395 0.456368
75 2 0.512063 0.470778 0.22714
76 2 0.463899 0.1922 0.187558
77 2 0.396018 0.255858 0.260742
78 2 0.0434143 0.196807 0.0560061
79 2 0.23462 0.0434814 0.258881
80 2 0.492846 0.233384 0.288969
81 2 0.160744 0.561054 0.0238518
82 2 0.180315 0.435134 0.191266
83 2 0.274291 0.915419 0.038454
84 2 0.851678 0.399381 0.0754649
85 2 0.1491 0.489414 0.149183
86 2 0.329808 0.322933 0.0954304
87 2 0.574108 0.606467 0.247337
88 2 0.675239 0.184856 0.607421
89 2 0.399618 0.355525 0.240348
90 2 0.296614 0.134146 0.281413
91 2 0.22624 0.22429 0.255764
92 2 0.407355 0.172172 0.650679
93 2 0.383449 0.299422 0.179854
94 2 0.323836 0.208413 0.371729
95 2 0.136369 0.642445 0.0785386
96 2 0.131785 0.396079 0.505138
97 2 0.811308 0.386272 0.191969
98 2 0.401438 0.418794 0.799873
99 2 0.753227 0.913144 0.486135
100 2 0.149339 0.619893 0.311295
101 2 0.3524 0.368082 0.197767
102 2 0.539672 0.0942467 0.262629
103 2 0.416014 0.0839185 0.358847
104 2 0.30777 0.000470893 0.532488
105 2 0.484433 0.228636 0.514837
106 2 0.187309 0.0721352 0.887042
107 2 0.392364 0.375685 0.981566
108 2 0.220687 0.873982 0.277739
109 2 0.218865 0.659519 0.00868067
110 2 0.420266 0.387286 0.436232
111 2 0.291864 0.432046 0.204735
112 2 0.486329 0.378039 0.679794
113 2 0.292337 0.402318 0.180363
114 2 0.290755 0.573438 0.356022
115 2 0.83383 0.973112 0.227962
116 2 0.882081 0.972518 0.309129
117 2 0.452191 0.379503 0.549119
118 2 0.286745 0.232939 0.749975
119 2 0.117862 0.45492 0.26609
120 2 0.403578 0.0861106 0.282635
121 2 0.286739 0.885618 0.302587
122 2 0.901228 0.493413 0.48189
123 2 0.846479 0.818231 0.228353
124 2 0.734514 0.384008 0.325565
125 2 0.189393 0.273657 0.285346
126 2 0.221177 0.111349 0.17869
127 2 0.283494 0.615137 0.192947
128 2 0.550226 0.356734 0.314113
129 2 0.362111 0.352526 0.570614
130 2 0.911488 0.895813 0.461953
131 2 0.0284705 0.328958 0.923919
132 2 0.417137 0.313423 0.777433
133 2 0.746852 0.691077 0.499193
134 2 0.408891 0.559458 0.592183
135 2 0.14486 0.675252 0.908025
136 2 0.695202 0.1622 0.307234
137 2 0.128649 0.125332 0.559742
138 2 0.288934 0.102103 0.303352
139 2 0.359428 0.513762 0.207576
140 2 0.312376 0.252487 0.539967
141 2 0.920706 0.291793 0.635365
142 2 0.0122223 0.734682 0.483566
143 2 0.0973587 0.0675562 0.172181
144 2 0.961666 0.494013 0.406398
145 2 0.201593 0.309998 0.149005
146 2 0.259207 0.0226737 0.236511
147 2 0.0994837 0.347994 0.344848
148 2 0.36224 0.365602 0.506093
149 2 0.52665 0.208524 0.559858
150 2 0.123969 0.228328 0.34129
151 2 0.83347 0.305818 0.962708
152 2 0.478949 0.473864 0.912544
153 2 0.310925 0.163496 0.411047
154 2 0.245678 0.301948 0.396791
155 2 0.493978 0.142532 0.855018
156 2 0.373764 0.157117 0.561469
157 2 0.448325 0.519082 0.269105
158 2 0.171348 0.479954 0.733027
159 2 0.0810539 0.119634 0.0892597
160 2 0.33089 0.917168 0.213626
161 2 0.232383 0.310935 0.25261
162 2 0.971449 0.26294 0.395388
163 2 0.536889 0.578085 0.197159
164 2 0.0112127 0.0826334 0.243779
165 2 0.230629 0.124566 0.123108
166 2 0.284977 0.582589 0.541974
167 2 0.788609 0.230538 0.0399511
168 2 0.321465 0.0909948 0.358326
169 2 0.901241 0.586705 0.360344
170 2 0.536985 0.299862 0.910225
171 2 0.454781 0.310114 0.243555
172 2 0.130405 0.0285151 0.90957
173 2 0.379158 0.218724 0.467198
174 2 0.374051 0.188456 0.0193691
175 2 0.238648 0.241609 0.419002
176 2 0.261587 0.258244 0.920953
177 2 0.604578 0.162538 0.430021
178 2 0.886281 0.280836 0.257606
179 2 0.381708 0.782175 0.201305
180 2 0.364344 0.32527 0.601939
181 2 0.979337 0.351624 0.106967
182 2 0.519423 0.338786 0.113739
183 2 0.048705 0.329262 0.314806
184 2 0.385603 0.270297 0.43262
185 2 0.0165452 0.949763 0.502969
186 2 0.168324 0.491369 0.252665
187 2 0.435911 0.292327 0.213932
188 2 0.167508 0.14966 0.00555873
189 2 0.337034 0.287376 0.231235
190 2 0.246331 0.213263 0.22391
191 2 0.18496 0.306714 0.744142
192 2 0.285844 0.768863 0.118387
193 2 0.579434 0.472562 0.566921
194 2 0.423678 0.625395 0.514977
195 2 0.210428 0.191364 0.439963
196 2 0.646603 0.0294575 0.0106
197 2 0.229574 0.142055 0.0116197
198 2 0.773071 0.151252 0.727217
199 2 0.0750551 0.43298 0.729309
200 2 0.314793 0.22194 0.852714
201 2 0.307812 0.54567 0.096159
202 2 0.757313 0.283881 0.235744
203 2 0.889163 0.172842 0.0605845
204 2 0.685618 0.0966771 0.435441
205 2 0.196879 0.458345 0.429814
206 2 0.258045 0.665891 0.255154
207 2 0.184569 0.907853 0.0194284
208 2 0.0820747 0.930699 0.179734
209 2 0.413482 0.878723 0.47972
210 2 0.981052 0.502993 0.881725
211 2 0.0465301 0.983931 0.575167
212 2 0.984986 0.962399 0.632236
213 2 0.357945 0.407995 0.318781
214 2 0.484544 0.197611 0.954178
215 2 0.988365 0.918718 0.236895
216 2 0.176241 0.962248 0.119718
217 2 0.156297 0.866816 0.325238
218 2 0.881121 0.220618 0.338945
219 2 0.259289 0.0827878 0.880951
220 2 0.234807 0.126233 0.375785
221 2 0.84401 0.269435 0.82272
222 2 0.815509 0.205553 0.028172
223 2 0.168667 0.0489609 0.366107
224 2 0.342342 0.856482 0.19162
225 2 0.402899 0.63115 0.274594
226 2 0.428275 0.368572 0.799096
227 2 0.217016 0.506729 0.164072
228 2 0.133198 0.197239 0.692745
229 2 0.759199 0.349234 0.254913
230 2 0.485407 0.406826 0.416511
231 2 0.212258 0.324084 0.474517
232 2 0.324092 0.2307 0.259724
233 2 0.16711 0.939699 0.567929
234 2 0.511815 0.616525 0.639946
235 2 0.304066 0.843447 0.0477939
236 2 0.355547 0.991018 0.600685
237 2 0.053933 0.891863 0.285131
238 2 0.159476 0.396142 0.235648
239 2 0.947474 0.205324 0.0772405
240 2 0.854934 0.427165 0.906617
241 2 0.197738 0.309245 0.272313
242 2 0.106335 0.327746 0.287046
243 2 0.76413 0.272826 0.148235
244 2 0.43121 0.423653 0.0899758
245 2 0.921468 0.28673 0.59679
246 2 0.108457 0.221729 0.240998
247 2 0.451123 0.70995 0.34855
248 2 0.232575 0.372071 0.0269117
249 2 0.516577 0.831624 0.298918
250 2 0.955383 0.630795 0.429952
251 2 0.661605 0.976277 0.0986577
252 2 0.286737 0.881446 0.995611
253 2 0.366754 0.942283 0.971463
254 2 0.231146 0.0860703 0.509882
255 2 0.613456 0.357228 0.242661
256 2 0.122493 0.549811 0.108198
257 2 0.486888 0.0859776 0.504489
258 2 0.522533 0.914583 0.88956
259 2 0.573207 0.573329 0.270327
260 2 0.480445 0.306529 0.326935
261 2 0.107689 0.0661459 0.0233475
262 2 0.224184 0.262497 0.183909
263 2 0.348967 0.401605 0.606072
264 2 0.413141 0.850172 0.899123
265 2 0.440432 0.97863 0.831124
266 2 0.503267 0.119503 0.151225
267 2 0.294311 0.388387 0.82243
268 2 0.228664 0.413989 0.456541
269 2 0.892343 0.018335 0.583209
270 2 0.147882 0.682063 0.293966
271 2 0.319896 0.0553943 0.174373
272 2 0.32934 0.568012 0.137983
273 2 0.504056 0.22596 0.107516
274 2 0.28006 0.0752023 0.27756
275 2 0.365935 0.406183 0.198076
276 2 0.599915 0.944102 0.50309
277 2 0.76488 0.345216 0.138843
278 2 0.621621 0.523903 0.473292
279 2 0.708632 0.231798 0.400226
280 2 0.0112046 0.325295 0.427649
281 2 0.950179 0.517302 0.110821
282 2 0.283573 0.527687 0.14774
283 2 0.323763 0.960147 0.468199
284 2 0.50593 0.919288 0.494378
285 2 0.541959 0.226831 0.480296
286 2 0.154284 0.171925 0.478933
287 2 0.108904 0.178441 0.38009
288 2 0.427005 0.726641 0.189496
289 2 0.310017 0.315523 0.23677
290 2 0.288066 0.0349182 0.921889
291 2 0.816048 0.474278 0.19258
292 2 0.257071 0.350633 0.129071
293 2 0.41563 0.874898 0.259383
294 2 0.15936 0.491438 0.337548
295 2 0.494784 0.270688 0.276597
296 2 0.983022 0.919329 0.275786
297 2 0.467302 0.220673 0.568722
298 2 0.143502 0.994554 0.190115
299 2 0.39585 0.354463 0.299654
300 2 0.599777 0.970265 0.334391
301 2 0.0434405 0.518966 0.156588
302 2 0.441286 0.114329 0.126316
303 2 0.168992 0.186219 0.679323
304 2 0.25365 0.319052 0.997959
305 2 0.449742 0.0320534 0.378332
306 2 0.0192119 0.300099 0.105646
307 2 0.342299 0.56278 0.56283
308 2 0.174943 0.296109 0.176147
309 2 0.370252 0.683918 0.143065
310 2 0.886931 0.428393 0.0212618
311 2 0.815155 0.358774 0.764637
312 2 0.116871 0.393962 0.56876
313 2 0.277053 0.414813 0.371654
314 2 0.742884 0.0160301 0.869473
315 2 0.486079 0.360976 0.223515
316 2 0.381597 0.389178 0.0787722
317 2 0.238138 0.314472 0.903681
318 2 0.0365563 0.120991 0.517953
319 2 0.162589 0.101175 0.234314
320 2 0.440486 0.153949 0.565935
321 2 0.345225 0.792905 0.193641
322 2 0.0679066 0.287125 0.267574
323 2 0.318796 0.0828435 0.320311
324 2 0.921905 0.18933 0.382928
325 2 0.188723 0.227794 0.333049
326 2 0.418925 0.322948 0.253708
327 2 0.435806 0.0697055 0.267394
328 2 0.489518 0.181667 0.332725
329 2 0.181607 0.360705 0.18601
330 2 0.335058 0.362417 0.280908
331 2 0.194807 0.350127 0.148666
332 2 0.906466 0.585476 0.200447
333 2 0.107822 0.359278 0.0144795
334 2 0.611956 0.324145 0.364258
335 2 0.532212 0.602662 0.99805
336 2 0.958994 0.967725 0.224871
337 2 0.969333 0.177204 0.751784
338 2 0.409578 0.349485 0.117138
339 2 0.340145 0.1496 0.148835
340 2 0.341265 0.486555 0.407798
341 2 0.180708 0.980462 0.1877
342 2 0.283555 0.367932 0.104465
343 2 0.489212 0.0266941 0.380135
344 2 0.723637 0.513265 0.0856233
345 2 0.380733 0.207385 0.175847
346 2 0.3167 0.0340478 0.260518
347 2 0.526064 0.541121 0.206658
348 2 0.955505 0.416011 0.408859
349 2 0.95718 0.598888 0.949832
350 2 0.873021 0.458662 0.0757175
351 2 0.310544 0.185854 0.869681
352 2 0.152188 0.9574 0.273119
353 2 0.326877 0.894161 0.637474
354 2 0.166419 0.0108358 0.610818
355 2 0.387365 0.156831 0.465641
356 2 0.709295 0.494377 0.281154
357 2 0.4043 0.518511 0.172452
358 2 0.232212 0.761948 0.684896
359 2 0.663782 0.103088 0.49245
360 2 0.0836122 0.126988 0.166024
361 2 0.8977 0.792558 0.381834
362 2 0.419671 0.301609 0.575843
363 2 0.722044 0.264067 0.418546
364 2 0.361677 0.141859 0.212445
365 2 0.535281 0.35668 0.46002
366 2 0.190115 0.537293 0.758754
367 2 0.374239 0.0065933 0.299598
368 2 0.463917 0.987239 0.0154183
369 2 0.250163 0.977103 0.312333
370 2 0.948365 0.170866 0.0158131
371 2 0.691042 0.268544 0.355391
372 2 0.0278816 0.140904 0.0754927
373 2 0.157689 0.113039 0.198212
374 2 0.182032 0.365283 0.247124
375 2 0.523938 0.976778 0.283113
376 2 0.271522 0.447669 0.722415
377 2 0.303619 0.200052 0.0742837
378 2 0.30955 0.671063 0.0771675
379 2 0.257182 0.242758 0.272543
380 2 0.371149 0.302059 0.216997
381 2 0.274642 0.992188 0.256968
382 2 0.322148 0.0804151 0.533428
383 2 0.416771 0.403457 0.3765
384 2 0.973046 0.351554 0.381023
385 2 0.326488 0.0176056 0.410446
386 2 0.120661 0.398025 0.290418
387 2 0.290776 0.305561 0.27005
388 2 0.589949 0.475838 0.317502
389 2 0.313372 0.391912 0.878852
390 2 0.984635 0.562671 0.906024
391 2 0.428146 0.544966 0.623869
392 2 0.165659 0.331127 0.258247
393 2 0.115307 0.175 0.111473
394 2 0.98952 0.58194 0.575347
395 2 0.240742 0.930186 0.0256919
396 2 0.531191 0.116311 0.470497
397 2 0.989926 0.815665 0.302399
398 2 0.707114 0.0225292 0.115556
399 2 0.559103 0.257577 0.129693
400 2 0.821001 0.977445 0.0703424
401 2 0.516329 0.0650228 0.414306
402 2 0.266985 0.488111 0.0440149
403 2 0.535844 0.41046 0.712109
404 2 0.700338 0.34483 0.285934
405 2 0.718638 0.103898 0.705242
406 2 0.542548 0.981736 0.247924
407 2 0.601246 0.440383 0.427043
408 2 0.136333 0.0661695 0.600789
409 2 0.12946 0.331755 0.926465
410 2 0.842442 0.765568 0.0238888
411 2 0.312291 0.170154 0.319882
412 2 0.952558 0.35208 0.914465
413 2 0.277566 0.66045 0.539094
414 2 0.180493 0.304844 0.85688
415 2 0.10095 0.0361532 0.300749
416 2 0.904973 0.953145 0.774487
417 2 0.0505889 0.0703838 0.302307
418 2 0.117881 0.206181 0.3067
419 2 0.551184 0.547069 0.518937
420 2 0.082197 0.210839 0.881924
421 2 0.165353 0.0337191 0.112388
422 2 0.56094 0.944171 0.533873
423 2 0.828183 0.201095 0.509431
424 2 0.0288009 0.104395 0.298648
425 2 0.168132 0.112611 0.336588
426 2 0.0098503 0.345027 0.0261395
427 2 0.112118 0.97415 0.67928
428 2 0.0573231 0.000899765 0.328642
429 2 0.0978458 0.245791 0.122654
430 2 0.301405 0.610009 0.0684271
431 2 0.415548 0.985118 0.484082
432 2 0.279898 0.416144 0.0649507
433 2 0.748313 0.976228 0.11085
434 2 0.401996 0.305156 0.345619
435 2 0.104378 0.132554 0.264232
436 2 0.0271364 0.186073 0.433463
437 2 0.283642 0.302955 0.206785
438 2 0.228895 0.40431 0.148658
439 2 0.975283 0.222679 0.179029
440 2 0.250164 0.229747 0.484283
441 2 0.294225 0.0851358 0.172389
442 2 0.172598 0.50433 0.120906
443 2 0.21821 0.243261 0.611975
444 2 0.123745 0.897396 0.473291
445 2 0.515288 0.408864 0.186267
446 2 0.0422166 0.488986 0.497279
447 2 0.220067 0.0814988 0.953142
448 2 0.23927 0.452243 0.339233
449 2 0.361085 0.599512 0.573055
450 2 0.392543 0.426216 0.326755
451 2 0.63339 0.995685 0.268143
452 2 0.250407 0.573368 0.491618
453 2 0.0504772 0.13643 0.106169
454 2 0.696841 0.986957 0.321206
455 2 0.573232 0.385462 0.154986
456 2 0.319789 0.475684 0.157343
457 2 0.224394 0.123208 0.310335
458 2 0.549006 0.338486 0.278104
459 2 0.354449 0.0949371 0.122145
460 2 0.438092 0.306098 0.418054
461 2 0.795731 0.79233 0.885178
462 2 0.486785 0.400249 0.0105393
463 2 0.0108936 0.945302 0.288709
464 2 0.0578994 0.243532 0.317624
465 2 0.977797 0.191568 0.883318
466 2 0.553846 0.3196 0.407844
467 2 0.384741 0.0546681 0.977425
468 2 0.623265 0.170936 0.82494
469 2 0.146434 0.479968 0.611133
470 2 0.308983 0.181235 0.21748
471 2 0.429932 0.993914 0.448865
472 2 0.990756 0.0582607 0.133256
473 2 0.241322 0.070635 0.341765
474 2 0.377915 0.0853406 0.35056
475 2 0.424948 0.143291 0.0478457
476 2 0.748427 0.149522 0.278543
477 2 0.822248 0.684586 0.444346
478 2 0.263669 0.285194 0.137051
479 2 0.279645 0.0120116 0.139153
480 2 0.72804 0.148168 0.442432
481 2 0.411466 0.159865 0.0802511
482 2 0.679603 0.19718 0.191984
483 2 0.7543 0.164817 0.33734
484 2 0.384449 0.288139 0.899259
485 2 0.110092 0.288228 0.401728
486 2 0.455293 0.264256 0.193678
487 2 0.324606 0.237485 0.757269
488 2 0.857319 0.180422 0.382157
489 2 0.756284 0.6051 0.331722
490 2 0.402935 0.485554 0.478468
491 2 0.314551 0.0221315 0.564849
492 2 0.372238 0.430294 0.387412
493 2 0.327152 0.447108 0.640806
494 2 0.203596 0.478307 0.0360406
495 2 0.312347 0.0960309 0.695955
496 2 0.194892 0.304227 0.782465
497 2 0.0162583 0.220491 0.774702
498 2 0.0273445 0.436121 0.366576
499 2 0.29769 0.357911 0.630148
500 2 0.608073 0.482258 0.12725
501 2 0.981939 0.197295 0.0616958
502 2 0.0386451 0.113773 0.0495313
503 2 0.251786 0.00530665 0.11306
504 2 0.732283 0.978866 0.395641
505 2 0.492063 0.0188495 0.836352
506 2 0.232145 0.303135 0.620554
507 2 0.377809 0.319686 0.740604
508 2 0.18097 0.330532 0.0676925
509 2 0.0398095 0.543044 0.879363
510 2 0.323566 0.365645 0.993706
511 2 0.300521 0.253427 0.0370155
512 2 0.961283 0.348274 0.160311
513 2 0.899257 0.341298 0.275365
514 2 0.650055 0.336869 0.984455
515 2 0.290126 0.0393009 0.290763
516 2 0.342256 0.388977 0.0844621
517 2 0.110224 0.205977 0.944216
518 2 0.284812 0.530838 0.409294
519 2 0.15954 0.783025 0.300245
520 2 0.600022 0.445643 0.388929
521 2 0.328674 0.134412 0.259464
522 2 0.344518 0.834523 0.106949
523 2 0.0329768 0.410578 0.425671
524 2 0.135473 0.332549 0.818217
525 2 0.374991 0.760317 0.259517
526 2 0.382659 0.965903 0.800296
527 2 0.13876 0.289481 0.499417
528 2 0.521666 0.431001 0.221823
529 2 0.542701 0.184663 0.244788
530 2 0.293896 0.958562 0.074345
531 2 0.0996189 0.329826 0.0733924
532 2 0.482255 0.75391 0.376539
533 2 0.107827 0.543794 0.143776
534 2 0.16592 0.22669 0.210774
535 2 0.564132 0.216564 0.54858
536 2 0.938651 0.32881 0.134938
537 2 0.140277 0.130106 0.864316
538 2 0.609228 0.919102 0.209626
539 2 0.496407 0.0406922 0.322789
540 2 0.203711 0.0992559 0.768501
541 2 0.93117 0.967422 0.799092
542 2 0.165379 0.36946 0.0294139
543 2 0.230819 0.456489 0.276658
544 2 0.194506 0.21101 0.662054
545 2 0.33332 0.423653 0.034587
546 2 0.478604 0.422138 0.177841
547 2 0.383557 0.267005 0.643918
548 2 0.661525 0.356388 0.288374
549 2 0.717419 0.93821 0.741152
550 2 0.887277 0.204128 0.657381
551 2 0.256039 0.589856 0.239169
552 2 0.253863 0.388179 0.176441
553 2 0.774153 0.102986 0.993279
554 2 0.591768 0.956018 0.96598
555 2 0.467693 0.386896 0.842789
556 2 0.202137 0.292333 0.113591
557 2 0.268519 0.371337 0.905868
558 2 0.939386 0.391742 0.237845
559 2 0.601254 0.318238 0.246716
560 2 0.69625 0.111034 0.350374
561 2 0.836717 0.294079 0.768922
562 2 0.169693 0.406738 0.503585
563 2 0.328419 0.143863 0.483183
564 2 0.181334 0.0156187 0.248115
565 2 0.0914145 0.200632 0.167043
566 2 0.417318 0.594017 0.338505
567 2 0.41501 0.320051 0.639912
568 2 0.155112 0.893625 0.233438
569 2 0.970224 0.328033 0.267731
570 2 0.22877 0.0745621 0.408216
571 2 0.411671 0.533597 0.961551
572 2 0.0978423 0.289864 0.292174
573 2 0.553677 0.345948 0.3767
574 2 0.457608 0.428894 0.960893
575 2 0.984428 0.112356 0.0247793
576 2 0.256039 0.104879 0.325711
577 2 0.811992 0.585017 0.315564
578 2 0.411054 0.883583 0.130282
579 2 0.684327 0.16847 0.782954
580 2 0.0824566 0.312593 0.209637
581 2 0.565403 0.167565 0.50996
582 2 0.124731 0.187481 0.222306
583 2 0.265013 0.853414 0.238856
584 2 0.484651 0.150746 0.0944692
585 2 0.119393 0.540679 0.783435
586 2 0.34988 0.544869 0.383857
587 2 0.547857 0.487035 0.232992
588 2 0.0383257 0.586608 0.31933
589 2 0.90146 0.393894 0.928215
590 2 0.40305 0.817158 0.441772
591 2 0.284856 0.0896522 0.374796
592 2 0.109628 0.505019 0.0634889
593 2 0.0399143 0.835376 0.0137982
594 2 0.106156 0.637603 0.687044
595 2 0.930239 0.891187 0.0693694
596 2 0.907111 0.160337 0.323809
597 2 0.11426 0.431535 0.159123
598 2 0.199269 0.664955 0.570428
599 2 0.107977 0.138473 0.88491
600 2 0.894343 0.296691 0.969545
601 2 0.437282 0.206376 0.296934
602 2 0.936517 0.351109 0.36521
603 2 0.42457 0.583459 0.158721
604 2 0.308627 0.543125 0.260464
605 2 0.0403756 0.590448 0.053497
606 2 0.624149 0.517959 0.130737
607 2 0.417415 0.373487 0.399878
608 2 0.123386 0.58045 0.857766
609 2 0.173348 0.429584 0.252677
610 2 0.135595 0.331506 0.128139
611 2 0.280198 0.017031 0.089671
612 2 0.200949 0.148908 0.131578
613 2 0.366007 0.301344 0.86622
614 2 0.203055 0.259932 0.507586
615 2 0.130011 0.306739 0.709358
616 2 0.482604 0.95894 0.109901
617 2 0.178295 0.260995 0.404097
618 2 0.967397 0.000227253 0.0768857
619 2 0.164727 0.358234 0.124008
620 2 0.172958 0.532473 0.478453
621 2 0.310669 0.252307 0.162137
622 2 0.0901009 0.482688 0.270273
623 2 0.518126 0.620316 0.334488
624 2 0.407881 0.482245 0.186803
625 2 0.230399 0.318691 0.527018
626 2 0.0956555 0.106617 0.515381
627 2 0.385095 0.211546 0.938755
628 2 0.369395 0.841948 0.236325
629 2 0.780941 0.289143 0.415734
630 2 0.592673 0.183187 0.621523
631 2 0.471354 0.206093 0.824942
632 2 0.200322 0.213963 0.367805
633 2 0.0913507 0.303784 0.650984
634 2 0.726568 0.692076 0.233749
635 2 0.684989 0.413181 0.898366
636 2 0.296613 0.417047 0.590382
637 2 0.335337 0.288365 0.948683
638 2 0.143015 0.0334285 0.198381
639 2 0.152634 0.264994 0.128738
640 2 0.365039 0.474239 0.435857
641 2 0.493953 0.00746437 0.447175
642 2 0.1143 0.396 0.469452
643 2 0.43759 0.957528 0.43463
644 2 0.756516 0.259257 0.863544
645 2 0.343717 0.609663 0.281207
646 2 0.0512309 0.172908 0.620544
647 2 0.444688 0.0371149 0.286994
648 2 0.386751 0.462018 0.275063
649 2 0.140586 0.278655 0.232529
650 2 0.334191 0.000167886 0.150958
651 2 0.237087 0.365759 0.964102
652 2 0.106012 0.842167 0.999116
653 2 0.339839 0.133193 0.97885
654 2 0.250965 0.370804 0.338785
655 2 0.473938 0.339738 0.937629
656 2 0.160408 0.246661 0.736295
657 2 0.248205 0.140358 0.91226
658 2 0.198356 0.513198 0.941913
659 2 0.98934 0.0102743 0.045227
660 2 0.141012 0.456636 0.579304
661 2 0.328957 0.183543 0.929395
662 2 0.250138 0.346076 0.262794
663 2 0.762184 0.895892 0.338299
664 2 0.406404 0.27715 0.372581
665 2 0.477749 0.424749 0.274174
666 2 0.980681 0.666553 0.0843691
667 2 0.274454 0.3075 0.339881
668 2 0.908897 0.303309 0.193759
669 2 0.326309 0.387092 0.843886
670 2 0.835401 0.127526 0.534647
671 2 0.148923 0.583557 0.327729
672 2 0.870659 0.577236 0.517964
673 2 0.0737845 0.531192 0.323843
674 2 0.527512 0.215055 0.294763
675 2 0.418372 0.0904992 0.102239
676 2 0.191763 0.375208 0.497094
677 2 0.17847 0.809149 0.122672
678 2 0.0162189 0.650885 0.895015
679 2 0.278683 0.268276 0.223547
680 2 0.954759 0.33208 0.609005
681 2 0.909565 0.376351 0.587147
682 2 0.207463 0.114252 0.0648137
683 2 0.0869617 0.639191 0.401074
684 2 0.00436522 0.665412 0.256271
685 2 0.285832 0.952214 0.128951
686 2 0.596846 0.395571 0.469008
687 2 0.42966 0.568725 0.964178
688 2 0.0614916 0.340562 0.699489
689 2 0.559471 0.245839 0.819386
690 2 0.0513996 0.0546304 0.516559
691 2 0.475713 0.204862 0.389961
692 2 0.599266 0.243227 0.499431
693 2 0.277745 0.338298 0.288341
694 2 0.216648 0.489639 0.294025
695 2 0.384253 0.256857 0.128831
696 2 0.844288 0.118918 0.823978
697 2 0.0489342 0.432967 0.209772
698 2 0.58213 0.939466 0.90676
699 2 0.272548 0.117796 0.973078
700 2 0.220395 0.317755 0.216003
701 2 0.602058 0.727467 0.723466
702 2 0.91307 0.350355 0.111976
703 2 0.610949 0.438053 0.524558
704 2 0.376323 0.324583 0.411654
705 2 0.187131 0.0266771 0.339647
706 2 0.169105 0.273184 0.0592219
707 2 0.995683 0.172834 0.913135
708 2 0.147089 0.509191 0.883232
709 2 0.101508 0.488531 0.0978808
710 2 0.250805 0.508032 0.518687
711 2 0.824027 0.914322 0.91841
712 2 0.306441 0.32189 0.643175
713 2 0.880653 0.241067 0.156618
714 2 0.356157 0.394979 0.280982
715 2 0.634028 0.0605798 0.258513
716 2 0.02668 0.536924 0.0997304
717 2 0.246852 0.885271 0.304269
718 2 0.211974 0.884059 0.221928
719 2 0.0739274 0.34121 0.127619
720 2 0.0447265 0.374337 0.351822
721 2 0.103932 0.455488 0.570131
722 2 0.466655 0.332613 0.722407
723 2 0.169759 0.277909 0.797568
724 2 0.483807 0.103069 0.753132
725 2 0.847513 0.722275 0.238747
726 2 0.487931 0.0802227 0.437416
727 2 0.101493 0.370255 0.231103
728 2 0.591479 0.0772151 0.132978
729 2 0.23374 0.844007 0.554712
730 2 0.187368 0.203877 0.301407
731 2 0.40049 0.13321 0.0197008
732 2 0.300089 0.150327 0.352403
733 2 0.51532 0.613931 0.255429
734 2 0.134805 0.397885 0.167726
735 2 0.0900633 0.239803 0.160679
736 2 0.922619 0.711989 0.454012
737 2 0.9851 0.784927 0.193439
738 2 0.223981 0.227664 0.453646
739 2 0.13148 0.159443 0.0221215
740 2 0.425626 0.336696 0.350462
741 2 0.235847 0.782557 0.162154
742 2 0.454964 0.38469 0.228173
743 2 0.101028 0.302636 0.176569
744 2 0.430832 0.824234 0.130178
745 2 0.00149709 0.296941 0.455535
746 2 0.764368 0.421987 0.453756
747 2 0.350744 0.430531 0.225474
748 2 0.523455 0.141565 0.39264
749 2 0.925636 0.0700119 0.659132
750 2 0.0538487 0.597155 0.123138
751 2 0.843025 0.21308 0.399759
752 2 0.0800446 0.200129 0.294741
753 2 0.403881 0.289142 0.237535
754 2 0.896072 0.980985 0.00216194
755 2 0.324362 0.0584014 0.0275991
756 2 0.477074 0.442434 0.0526523
757 2 0.260589 0.221918 0.141296
758 2 0.0903668 0.280365 0.588933
759 2 0.434103 0.32166 0.605973
760 2 0.392437 0.119863 0.264858
761 2 0.0300242 0.271361 0.948638
762 2 0.480105 0.198283 0.151656
763 2 0.0054939 0.137915 0.620285
764 2 0.111439 0.0906045 0.322342
765 2 0.92884 0.564981 0.151596
766 2 0.340052 0.544804 0.326253
767 2 0.995734 0.0314131 0.487981
768 2 0.287105 0.403816 0.295191
769 2 0.0707291 0.354566 0.00292364
770 2 0.42799 0.992723 0.258149
771 2 0.513764 0.420152 0.259064
772 2 0.263783 0.637333 0.321467
773 2 0.226318 0.0353309 0.113816
774 2 0.201808 0.581039 0.215269
775 2 0.256948 0.336347 0.320848
776 2 0.665839 0.292635 0.372947
777 2 0.0763038 0.300204 0.914843
778 2 0.0928804 0.588762 0.991591
779 2 0.983939 0.27289 0.593643
780 2 0.827966 0.400253 0.146579
781 2 0.341843 0.625908 0.596437
782 2 0.98013 0.175776 0.254193
783 2 0.318031 0.966805 0.370992
784 2 0.875051 0.0842796 0.177767
785 2 0.441525 0.324051 0.452601
786 2 0.98306 0.881419 0.81619
787 2 0.130009 0.0579705 0.415864
788 2 0.490676 0.0207025 0.137454
789 2 0.162768 0.383149 0.841357
790 2 0.389124 0.135845 0.616592
791 2 0.246676 0.987649 0.183992
792 2 0.129285 0.426605 0.402816
793 2 0.24228 0.428282 0.0575665
794 2 0.471566 0.115939 0.429626
795 2 0.554484 0.0283857 0.525394
796 2 0.193869 0.160082 0.166964
797 2 0.427568 0.249812 0.168979
798 2 0.390919 0.215363 0.0437566
799 2 0.0482417 0.487203 0.989491
800 2 0.0965787 0.247909 0.988648
801 2 0.453412 0.0582402 0.43945
802 2 0.386593 0.613233 0.393464
803 2 0.930645 0.501996 0.00833451
804 2 0.390016 0.0234236 0.174996
805 2 0.725174 0.139287 0.134884
806 2 0.542137 0.275994 0.312469
807 2 0.11916 0.313323 0.343533
808 2 0.861331 0.333078 0.0817352
809 2 0.987776 0.143869 0.456336
810 2 0.141231 0.599701 0.388268
811 2 0.177651 0.311178 0.00565095
812 2 0.207947 0.184652 0.119598
813 2 0.749826 0.18987 0.277028
814 2 0.254601 0.196813 0.31293
815 2 0.13204 0.991067 0.374776
816 2 0.563551 0.16521 0.830632
817 2 0.379485 0.47563 0.946376
818 2 0.479807 0.391363 0.356201
819 2 0.048307 0.00227527 0.496088
820 2 0.554445 0.619343 0.142618
821 2 0.166792 0.134105 0.259643
822 2 0.243402 0.463436 0.986942
823 2 0.381011 0.720082 0.510563
824 2 0.297537 0.936111 0.161985
825 2 0.267614 0.175517 0.754558
826 2 0.254854 0.245029 0.202224
827 2 0.457853 0.281813 0.271114
828 2 0.321465 0.723584 0.227172
829 2 0.149758 0.26498 0.167266
830 2 0.923936 0.537114 0.388662
831 2 0.169903 0.19524 0.384207
832 2 0.878835 0.14433 0.647194
833 2 0.447932 0.168244 0.64929
834 2 0.935723 0.193084 0.141595
835 2 0.0276992 0.343574 0.257694
836 2 0.520981 0.167289 0.180464
837 2 0.0428716 0.968455 0.0903605
838 2 0.311606 0.467318 0.997148
839 2 0.954097 0.870729 0.0921797
840 2 0.213541 0.094372 0.143797
841 2 0.236111 0.293672 0.163467
842 2 0.189031 0.16618 0.247915
843 2 0.0743264 0.583541 0.432758
844 2 0.302137 0.28823 0.148826
845 2 0.918407 0.914952 0.590146
846 2 0.36438 0.331645 0.306159
847 2 0.526161 0.251796 0.383281
848 2 0.234903 0.110813 0.824772
849 2 0.302223 0.36736 0.300071
850 2 0.330898 0.127645 0.364603
851 2 0.691472 0.330544 0.763335
852 2 0.974741 0.0444883 0.323845
853 2 0.253431 0.445639 0.757897
854 2 0.320774 0.240965 0.686397
855 2 0.208929 0.00125453 0.360148
856 2 0.291335 0.995418 0.929649
857 2 0.720863 0.0439914 0.0625702
858 2 0.181998 0.161036 0.707792
859 2 0.884438 0.375137 0.124132
860 2 0.587876 0.232934 0.577264
861 2 0.258931 0.176474 0.6056
862 2 0.140339 0.451893 0.137782
863 2 0.54676 0.303102 0.475276
864 2 0.625036 0.190408 0.201062
865 2 0.048276 0.799825 0.706225
866 2 0.281641 0.122339 0.79264
867 2 0.330711 0.409723 0.690335
868 2 0.180084 0.897545 0.326749
869 2 0.977546 0.974038 0.144595
870 2 0.122708 0.443422 0.336477
871 2 0.942783 0.606492 0.694292
872 2 0.556653 0.0845038 0.96227
873 2 0.906734 0.487842 0.206298
874 2 0.20508 0.635992 0.170936
875 2 0.360312 0.822591 0.0731742
876 2 0.107402 0.332138 0.232568
877 2 0.0680942 0.653621 0.257636
878 2 0.957923 0.928993 0.432424
879 2 0.113379 0.387542 0.106915
880 2 0.0188228 0.250928 0.051776
881 2 0.0466314 0.343901 0.603344
882 2 0.582291 0.948704 0.21084
883 2 0.719553 0.0694942 0.482195
884 2 0.98833 0.294235 0.258016
885 2 0.168685 0.959578 0.842169
886 2 0.198474 0.255364 0.469009
887 2 0.650734 0.938022 0.470681
888 2 0.189304 0.957545 0.0550624
889 2 0.00526954 0.234493 0.990313
890 2 0.452638 0.146703 0.371785
891 2 0.250475 0.397111 0.308049
892 2 0.175462 0.980107 0.29649
893 2 0.1398 0.0337141 0.292275
894 2 0.309782 0.568032 0.46458
895 2 0.138486 0.263334 0.675152
896 2 0.977403 0.934801 0.604213
897 2 0.367714 0.478353 0.191513
898 2 0.229183 0.430805 0.30805
899 2 0.443396 0.348889 0.38245
900 2 0.472224 0.871698 0.515985
901 2 0.252717 0.552815 0.293422
902 2 0.0325996 0.249234 0.0147381
903 2 0.56901 0.21623 0.336895
904 2 0.616489 0.379372 0.553205