 vasp.6.5.0 16Dec24 (build Jan 20 2025 08:32:48) complex                         
 executed on        HPECrayEX_GCC date 2025.07.29  01:34:00
 running  128 mpi-ranks, with    1 threads/rank, on    1 nodes
 distrk:  each k-point on  128 cores,    1 groups
 distr:  one band on NCORE=  16 cores,    8 groups


--------------------------------------------------------------------------------------------------------


 INCAR:
   SYSTEM = a-Si SPC
   NCORE = 16
   ISTART = 1
   ICHARG = 1
   ISPIN = 1
   ISYM = 1
   EDIFF = 1E-6
   NELM = 150
   EDIFFG = -0.01
   NSW = 0
   ISIF = 2
   IBRION = -1
   PREC = Accurate
   ENCUT = 1200
   KSPACING = 0.23
   KGAMMA = .TRUE.
   METAGGA = SCAN
   LASPH = .TRUE.
   LDIAG = .FALSE.
   LMIXTAU = .TRUE.
   ADDGRID = .TRUE.
   ALGO = Normal
   ISMEAR = 0
   SIGMA = 0.1
   LORBIT = 11
   NEDOS = 2000
   LWAVE = .FALSE.
   LCHARG = .FALSE.

 POTCAR:    PAW_PBE H 15Jun2001                   
 POTCAR:    PAW_PBE Si 05Jan2001                  
 POTCAR:    PAW_PBE H 15Jun2001                   
   SHA256 =  030f79b5d3ab3cf0e668861823c8fb652ff669f3e15e46930bd03bfd63a607b6 H/POTCAR              
   COPYR  = (c) Copyright 15Jun2001 Georg Kresse                                                    
   COPYR  = This file is part of the software VASP. Any use, copying, and all other rights are regul
   COPYR  = If you do not have a valid VASP license, you may not use, copy or distribute this file. 
   VRHFIN =H: ultrasoft test                                                                        
   LEXCH  = PE                                                                                      
   EATOM  =    12.4884 eV,    0.9179 Ry                                                             
                                                                                                    
   TITEL  = PAW_PBE H 15Jun2001                                                                     
   LULTRA =        F    use ultrasoft PP ?                                                          
   IUNSCR =        0    unscreen: 0-lin 1-nonlin 2-no                                               
   RPACOR =    0.000    partial core radius                                                         
   POMASS =    1.000; ZVAL   =    1.000    mass and valenz                                          
   RCORE  =    1.100    outmost cutoff radius                                                       
   RWIGS  =    0.700; RWIGS  =    0.370    wigner-seitz radius (au A)                               
   ENMAX  =  250.000; ENMIN  =  200.000 eV                                                          
   RCLOC  =    0.701    cutoff for local pot                                                        
   LCOR   =        T    correct aug charges                                                         
   LPAW   =        T    paw PP                                                                      
   EAUG   =  400.000                                                                                
   RMAX   =    1.123    core radius for proj-oper                                                   
   RAUG   =    1.200    factor for augmentation sphere                                              
   RDEP   =    1.112    radius for radial grids                                                     
   RDEPT  =    0.926    core radius for aug-charge                                                  
                                                                                                    
   Atomic configuration                                                                             
    2 entries                                                                                       
     n  l   j            E        occ.                                                              
     1  0  0.50        -6.4927   1.0000                                                             
     2  1  0.50        -3.4015   0.0000                                                             
   Description                                                                                      
     l       E           TYP  RCUT    TYP  RCUT                                                     
     0     -6.4927494     23  1.100                                                                 
     0      6.8029130     23  1.100                                                                 
     1     -4.0817478     23  1.100                                                                 
  local pseudopotential read in
  atomic valenz-charges read in
  non local Contribution for L=           0  read in
    real space projection operators read in
  non local Contribution for L=           0  read in
    real space projection operators read in
  non local Contribution for L=           1  read in
    real space projection operators read in
    PAW grid and wavefunctions read in

   number of l-projection  operators is LMAX  =           3
   number of lm-projection operators is LMMAX =           5

 POTCAR:    PAW_PBE Si 05Jan2001                  
   SHA256 =  79d9987ad8750f624c4d6acb2a16d13abf6a777132adc04dc6c8399be72b42bb Si/POTCAR             
   COPYR  = (c) Copyright 05Jan2001 Georg Kresse                                                    
   COPYR  = This file is part of the software VASP. Any use, copying, and all other rights are regul
   COPYR  = If you do not have a valid VASP license, you may not use, copy or distribute this file. 
   VRHFIN =Si: s2p2                                                                                 
   LEXCH  = PE                                                                                      
   EATOM  =   103.0669 eV,    7.5752 Ry                                                             
                                                                                                    
   TITEL  = PAW_PBE Si 05Jan2001                                                                    
   LULTRA =        F    use ultrasoft PP ?                                                          
   IUNSCR =        1    unscreen: 0-lin 1-nonlin 2-no                                               
   RPACOR =    1.500    partial core radius                                                         
   POMASS =   28.085; ZVAL   =    4.000    mass and valenz                                          
   RCORE  =    1.900    outmost cutoff radius                                                       
   RWIGS  =    2.480; RWIGS  =    1.312    wigner-seitz radius (au A)                               
   ENMAX  =  245.345; ENMIN  =  184.009 eV                                                          
   ICORE  =        2    local potential                                                             
   LCOR   =        T    correct aug charges                                                         
   LPAW   =        T    paw PP                                                                      
   EAUG   =  322.069                                                                                
   DEXC   =    0.000                                                                                
   RMAX   =    1.950    core radius for proj-oper                                                   
   RAUG   =    1.300    factor for augmentation sphere                                              
   RDEP   =    1.993    radius for radial grids                                                     
   RDEPT  =    1.837    core radius for aug-charge                                                  
                                                                                                    
   Atomic configuration                                                                             
    6 entries                                                                                       
     n  l   j            E        occ.                                                              
     1  0  0.50     -1785.8828   2.0000                                                             
     2  0  0.50      -139.4969   2.0000                                                             
     2  1  1.50       -95.5546   6.0000                                                             
     3  0  0.50       -10.8127   2.0000                                                             
     3  1  0.50        -4.0811   2.0000                                                             
     3  2  1.50        -4.0817   0.0000                                                             
   Description                                                                                      
     l       E           TYP  RCUT    TYP  RCUT                                                     
     0    -10.8127223     23  1.900                                                                 
     0     -7.6451159     23  1.900                                                                 
     1     -4.0811372     23  1.900                                                                 
     1      2.4879257     23  1.900                                                                 
     2     -4.0817478      7  1.900                                                                 
  local pseudopotential read in
  partial core-charges read in
  partial kinetic energy density read in
  atomic valenz-charges read in
  non local Contribution for L=           0  read in
    real space projection operators read in
  non local Contribution for L=           0  read in
    real space projection operators read in
  non local Contribution for L=           1  read in
    real space projection operators read in
  non local Contribution for L=           1  read in
    real space projection operators read in
    PAW grid and wavefunctions read in

   number of l-projection  operators is LMAX  =           4
   number of lm-projection operators is LMMAX =           8

 -----------------------------------------------------------------------------
|                                                                             |
|               ----> ADVICE to this user running VASP <----                  |
|                                                                             |
|     You have a (more or less) 'large supercell' and for larger cells it     |
|     might be more efficient to use real-space projection operators.         |
|     Therefore, try LREAL= Auto in the INCAR file.                           |
|     Mind: For very accurate calculation, you might also keep the            |
|     reciprocal projection scheme (i.e. LREAL=.FALSE.).                      |
|                                                                             |
 -----------------------------------------------------------------------------

 -----------------------------------------------------------------------------
|                                                                             |
|               ----> ADVICE to this user running VASP <----                  |
|                                                                             |
|     You enforced a specific xc type in the INCAR file but a different       |
|     type was found in the POTCAR file.                                      |
|     I HOPE YOU KNOW WHAT YOU ARE DOING!                                     |
|                                                                             |
 -----------------------------------------------------------------------------

  PAW_PBE H 15Jun2001                   :
 energy of atom  1       EATOM=  -12.4884
 kinetic energy error for atom=    0.0000 (will be added to EATOM!!)
  PAW_PBE Si 05Jan2001                  :
 energy of atom  2       EATOM= -103.0669
 kinetic energy error for atom=    0.0001 (will be added to EATOM!!)


 POSCAR:  H Si
  positions in cartesian coordinates
  No initial velocities read in


 exchange-correlation table for SCAN
   RHO(1)=    0.500       N(1)  =     2000
   RHO(2)=  100.500       N(2)  =     4000



--------------------------------------------------------------------------------------------------------


 ion  position               nearest neighbor table
   1  0.021  0.258  0.479-  82 1.49
   2  0.870  0.188  0.551-  74 1.49
   3  0.783  0.366  0.374-  11 0.78
   4  0.735  0.363  0.544-  85 1.48
   5  0.763  0.480  0.472-  15 0.74
   6  0.632  0.250  0.512-  85 1.48
   7  0.889  0.369  0.460-  14 0.79
   8  0.310  0.298  0.435-  75 1.49
   9  0.875  0.406  0.543-  95 1.49
  10  0.958  0.207  0.325-  28 1.49
  11  0.750  0.328  0.382-   3 0.78
  12  0.162  0.241  0.410-  31 1.65  87 1.75
  13  0.623  0.183  0.366- 121 1.49
  14  0.899  0.418  0.450-   7 0.79  73 1.96
  15  0.781  0.482  0.495-   5 0.74
  16  0.813  0.316  0.621-  22 0.78
  17  0.707  0.123  0.522-  62 1.49
  18  0.499  0.455  0.594-  51 1.51
  19  0.851  0.172  0.419-  34 1.49
  20  0.754  0.323  0.465-  24 0.74
  21  0.641  0.203  0.607- 116 1.49
  22  0.766  0.338  0.627-  16 0.78
  23  0.830  0.511  0.627-  33 1.52
  24  0.802  0.333  0.459-  20 0.74
  25  0.673  0.496  0.613-  32 1.65  27 1.73
  26  0.183  0.869  0.646- 119 2.30  30 2.43  43 2.45  37 3.02
  27  0.645  0.403  0.646-  25 1.73  51 2.38
  28  0.051  0.165  0.327-  10 1.49  94 2.30  87 2.36
  29  0.076  0.026  0.555-  50 2.29  30 2.34 109 2.40  59 2.46  74 3.11
  30  0.054  0.889  0.595- 120 2.33  29 2.34  42 2.38  26 2.43 119 3.07
  31  0.213  0.150  0.431-  12 1.65  54 2.29  52 2.31  49 2.36  87 3.04
  32  0.646  0.599  0.593-  25 1.65  44 2.33 110 2.39  47 2.43
  33  0.911  0.500  0.658-  23 1.52  61 2.36  36 2.48 104 2.98
  34  0.849  0.084  0.445-  19 1.49  57 2.34  62 2.36  59 2.43
  35  0.844  0.494  0.352-  73 2.30  89 2.32
  36  0.017  0.619  0.628-  86 2.38 119 2.38 108 2.40 104 2.46  33 2.48
  37  0.282  0.723  0.592-  71 2.32 119 2.32  43 2.33 115 2.35  26 3.02
  38  0.087  0.529  0.413-  73 2.31  70 2.38  64 2.38 113 2.51
  39  0.585  0.454  0.477-  44 2.33  85 2.34  98 2.35  69 2.37
  40  0.328  0.614  0.400- 101 2.28 106 2.32  91 2.36  97 2.44
  41  0.407  0.326  0.540-  98 2.26  83 2.28  99 2.31  51 2.44  55 2.69
  42  0.013  0.800  0.530- 102 2.32  63 2.35  45 2.37  30 2.38
  43  0.343  0.860  0.621-  37 2.33 117 2.34  46 2.35  26 2.45
  44  0.584  0.589  0.520- 111 2.32  32 2.33  39 2.33  65 2.34
  45  0.932  0.892  0.477-  59 2.34  42 2.37  93 2.38 118 2.55  57 2.56
  46  0.491  0.800  0.633- 110 2.30  78 2.35  43 2.35
  47  0.786  0.685  0.579- 108 2.32  56 2.34  32 2.43  63 2.47
  48  0.727  0.853  0.403-  57 2.26  96 2.29 107 2.31
  49  0.351  0.126  0.391-  67 2.31  31 2.36  80 2.36  88 2.41
  50  0.079  0.155  0.600-  29 2.29  90 2.31  68 2.34  74 2.58
  51  0.533  0.357  0.592-  18 1.51  27 2.38  85 2.40  41 2.44  55 2.46
  52  0.103  0.036  0.427-  94 2.27 114 2.29  31 2.31  59 2.32
  53  0.250  0.488  0.599-  99 2.30 115 2.39  60 2.39 104 2.40
  54  0.258  0.156  0.506-  31 2.29 109 2.30  83 2.32  68 2.33
  55  0.410  0.261  0.625-  99 2.35  81 2.39  51 2.46  41 2.69
  56  0.705  0.801  0.541- 111 2.32  93 2.32  47 2.34  78 2.34
  57  0.852  0.946  0.404-  48 2.26  72 2.31  34 2.34  45 2.56 118 3.00
  58  0.893  0.675  0.445- 107 2.31  73 2.34 118 2.38  63 2.39
  59  0.990  0.041  0.483-  52 2.32  45 2.34  34 2.43  29 2.46
  60  0.184  0.540  0.529-  70 2.30  53 2.39  97 2.40  86 2.42
  61  0.996  0.373  0.631-  95 2.34  33 2.36 104 2.39  90 2.41
  62  0.719  0.048  0.488-  17 1.49  93 2.35  34 2.36  77 2.41
  63  0.917  0.671  0.526-  86 2.34  42 2.35  58 2.39  47 2.47
  64  0.144  0.438  0.352-  91 2.32  38 2.38  87 2.39
  65  0.424  0.576  0.527-  97 2.32 115 2.32  98 2.32  44 2.34
  66  0.515  0.948  0.334-  67 2.26  96 2.33
  67  0.380  0.976  0.369-  66 2.26 105 2.30  49 2.31
  68  0.172  0.248  0.555-  99 2.32  54 2.33  82 2.33  50 2.34
  69  0.588  0.503  0.401- 103 2.30  89 2.31 101 2.33  39 2.37
  70  0.157  0.437  0.471-  60 2.30  82 2.32  75 2.35  38 2.38
  71  0.281  0.753  0.514-  97 2.27 102 2.31  37 2.32  92 2.32
  72  0.954  0.893  0.350-  57 2.31  94 2.32 118 2.38
  73  0.929  0.530  0.416-  14 1.96  35 2.30  38 2.31  58 2.34
  74  0.904  0.131  0.590-   2 1.49  90 2.36  84 2.40  50 2.58  29 3.11
  75  0.303  0.400  0.441-   8 1.49  98 2.31  91 2.33  70 2.35
  76  0.672  0.992  0.602- 116 2.24  78 2.31  84 2.34
  77  0.566  0.011  0.462-  88 2.38 112 2.39  96 2.39  62 2.41
  78  0.581  0.872  0.578-  76 2.31  56 2.34  46 2.35 112 2.39
  79  0.522  0.761  0.438- 101 2.29  92 2.30 111 2.31  96 2.38
  80  0.314  0.242  0.338- 100 2.31  87 2.35  49 2.36
  81  0.442  0.122  0.585- 116 2.32  83 2.36 117 2.37  55 2.39
  82  0.069  0.327  0.508-   1 1.49  70 2.32  95 2.33  68 2.33
  83  0.415  0.181  0.511-  41 2.28  54 2.32  88 2.35  81 2.36
  84  0.832  0.983  0.594-  76 2.34 120 2.36  93 2.37  74 2.40
  85  0.639  0.345  0.530-   6 1.48   4 1.48  39 2.34  51 2.40
  86  0.027  0.565  0.552-  63 2.34  95 2.35  36 2.38  60 2.42
  87  0.158  0.274  0.353-  12 1.75  80 2.35  28 2.36  64 2.39  31 3.04
  88  0.482  0.144  0.441- 121 2.33  83 2.35  77 2.38  49 2.41
  89  0.715  0.578  0.371-  69 2.31  35 2.32 107 2.35
  90  0.972  0.213  0.650-  50 2.31  74 2.36  61 2.41
  91  0.296  0.468  0.370-  64 2.32 100 2.33  75 2.33  40 2.36
  92  0.402  0.826  0.477-  79 2.30  71 2.32 112 2.32 105 2.36
  93  0.799  0.924  0.521-  56 2.32  62 2.35  84 2.37  45 2.38
  94  0.052  0.018  0.355-  52 2.27  28 2.30  72 2.32
  95  0.974  0.413  0.555-   9 1.49  82 2.33  61 2.34  86 2.35
  96  0.576  0.898  0.403-  48 2.29  66 2.33  79 2.38  77 2.39
  97  0.298  0.612  0.482-  71 2.27  65 2.32  60 2.40  40 2.44  98 3.14
  98  0.426  0.438  0.487-  41 2.26  75 2.31  65 2.32  39 2.35  97 3.14
  99  0.285  0.335  0.590-  53 2.30  41 2.31  68 2.32  55 2.35
 100  0.396  0.376  0.328- 103 2.26  80 2.31  91 2.33
 101  0.484  0.625  0.402-  40 2.28  79 2.29  69 2.33
 102  0.139  0.784  0.482-  71 2.31 114 2.31  42 2.32 113 2.36 118 3.06
 103  0.520  0.371  0.374- 100 2.26 121 2.27  69 2.30
 104  0.114  0.484  0.645-  61 2.39  53 2.40  36 2.46  33 2.98
 105  0.311  0.867  0.414-  67 2.30 114 2.31  92 2.36 106 2.37
 106  0.249  0.741  0.373-  40 2.32 113 2.33 105 2.37
 107  0.743  0.700  0.421-  48 2.31  58 2.31 111 2.32  89 2.35
 108  0.896  0.730  0.632- 120 2.32  47 2.32  36 2.40
 109  0.229  0.006  0.526-  54 2.30 114 2.35 117 2.36  29 2.40
 110  0.514  0.644  0.637-  46 2.30 115 2.38  32 2.39
 111  0.644  0.714  0.482-  79 2.31  44 2.32  56 2.32 107 2.32
 112  0.482  0.933  0.521-  92 2.32 117 2.36  78 2.39  77 2.39
 113  0.120  0.698  0.415- 106 2.33 102 2.36 118 2.37  38 2.51
 114  0.195  0.925  0.459-  52 2.29 105 2.31 102 2.31 109 2.35
 115  0.376  0.593  0.602-  65 2.32  37 2.35 110 2.38  53 2.39
 116  0.588  0.118  0.616-  21 1.49  76 2.24  81 2.32
 117  0.364  0.982  0.570-  43 2.34 109 2.36 112 2.36  81 2.37
 118  0.986  0.790  0.411- 113 2.37  72 2.38  58 2.38  45 2.55  57 3.00 102 3.06
 119  0.148  0.717  0.633-  26 2.30  37 2.32  36 2.38  30 3.07
 120  0.922  0.886  0.640- 108 2.32  30 2.33  84 2.36
 121  0.584  0.241  0.403-  13 1.49 103 2.27  88 2.33

  LATTYP: Found a simple tetragonal cell.
 ALAT       =    14.5538280032
 C/A-ratio  =     2.0200403972
  
  Lattice vectors:
  
 A1 = (  14.5538280032,   0.0000000000,   0.0000000000)
 A2 = (   0.0000000000,  14.5538280032,   0.0000000000)
 A3 = (   0.0000000000,   0.0000000000,  29.3993205000)


Analysis of symmetry for initial positions (statically):
=====================================================================
 Subroutine PRICEL returns:
 Original cell was already a primitive cell.
 

 Routine SETGRP: Setting up the symmetry group for a 
 simple tetragonal supercell.


 Subroutine GETGRP returns: Found  1 space group operations
 (whereof  1 operations were pure point group operations)
 out of a pool of 16 trial point group operations.


The static configuration has the point symmetry C_1 .


Analysis of symmetry for dynamics (positions and initial velocities):
=====================================================================
 Subroutine PRICEL returns:
 Original cell was already a primitive cell.
 

 Routine SETGRP: Setting up the symmetry group for a 
 simple tetragonal supercell.


 Subroutine GETGRP returns: Found  1 space group operations
 (whereof  1 operations were pure point group operations)
 out of a pool of 16 trial point group operations.


The dynamic configuration has the point symmetry C_1 .


 Subroutine INISYM returns: Found  1 space group operations
 (whereof  1 operations are pure point group operations),
 and found     1 'primitive' translations


----------------------------------------------------------------------------------------

                                     Primitive cell                                     

  volume of cell :    6227.1850

  direct lattice vectors                    reciprocal lattice vectors
    14.553828003  0.000000000  0.000000000     0.068710445  0.000000000  0.000000000
     0.000000000 14.553828003  0.000000000     0.000000000  0.068710445  0.000000000
     0.000000000  0.000000000 29.399320500     0.000000000  0.000000000  0.034014392

  length of vectors
    14.553828003 14.553828003 29.399320500     0.068710445  0.068710445  0.034014392

  position of ions in fractional coordinates (direct lattice)
     0.021145601  0.258424865  0.478630334
     0.870427651  0.188155972  0.550777957
     0.782701389  0.366067656  0.374002249
     0.734580149  0.362555110  0.543600173
     0.763465927  0.479785950  0.471533113
     0.631640449  0.250325382  0.512435847
     0.889329200  0.368891345  0.460286163
     0.310479542  0.298434749  0.435209825
     0.874596751  0.405636689  0.543184350
     0.957557054  0.206525492  0.325096814
     0.749798500  0.327601635  0.382254927
     0.161623038  0.241408688  0.410001729
     0.623053796  0.183332230  0.366028833
     0.899442863  0.417944110  0.449991551
     0.781077500  0.482413950  0.495175718
     0.812966038  0.315802644  0.621293453
     0.707172826  0.123213642  0.522102152
     0.499015236  0.454681528  0.593556716
     0.851169030  0.172030598  0.418661926
     0.753884171  0.322924533  0.465222149
     0.640717795  0.203085651  0.606772843
     0.765776047  0.338481439  0.627436505
     0.829597564  0.511306859  0.626955385
     0.802431441  0.332616031  0.458945219
     0.672929071  0.496325000  0.612843600
     0.183229360  0.868502790  0.646237442
     0.644899980  0.402713228  0.646417943
     0.050949799  0.165168400  0.326500970
     0.076453637  0.026196538  0.554883547
     0.053673647  0.889127345  0.595061704
     0.213151964  0.149808165  0.431176292
     0.646067478  0.599490586  0.593312613
     0.911398936  0.499541874  0.658345130
     0.849334668  0.084375155  0.444617943
     0.844454958  0.494118068  0.352092056
     0.017277339  0.618840354  0.628445883
     0.282429873  0.723277750  0.591507269
     0.087375745  0.529121828  0.413311078
     0.585441855  0.453992115  0.477339032
     0.328023564  0.613874934  0.400245472
     0.406566948  0.326474248  0.539528067
     0.013190605  0.800474191  0.530050858
     0.342771067  0.859693294  0.620510746
     0.583661606  0.588643902  0.520466742
     0.932115241  0.891999350  0.476659483
     0.490866087  0.800275964  0.633356176
     0.786361554  0.685303561  0.578706953
     0.726662941  0.853395928  0.403082961
     0.350999680  0.125606421  0.390939850
     0.078643960  0.154736739  0.599680242
     0.532650865  0.356745146  0.592117308
     0.103079458  0.036047667  0.427455146
     0.249582140  0.488308921  0.598822970
     0.258005631  0.156097040  0.505900303
     0.409956811  0.260947758  0.625007208
     0.705413218  0.801184604  0.540933858
     0.851702752  0.945918234  0.404035721
     0.892571492  0.674819552  0.445386400
     0.990110000  0.041186662  0.483299643
     0.183688421  0.540321400  0.528785859
     0.995932901  0.372504039  0.631210117
     0.718684835  0.047959907  0.488346301
     0.917190900  0.670816924  0.525790675
     0.143812044  0.438013580  0.351973084
     0.423932954  0.576407744  0.526903758
     0.515367889  0.947585056  0.334182323
     0.379934636  0.975851251  0.369131647
     0.172072336  0.248441644  0.554664446
     0.588489637  0.503155838  0.400547965
     0.157265224  0.437496738  0.470882964
     0.280987340  0.753105214  0.514093714
     0.954109376  0.892799103  0.350240863
     0.928932597  0.530019829  0.415726591
     0.904025663  0.130904737  0.589529414
     0.302627646  0.399802267  0.441414596
     0.671838593  0.992038332  0.602365223
     0.565867764  0.011045346  0.462378035
     0.581471806  0.871605453  0.577637492
     0.521687317  0.760657500  0.437696722
     0.313699560  0.242192683  0.338260096
     0.442173260  0.121976410  0.584795691
     0.069412596  0.326916678  0.507705694
     0.415410739  0.180848582  0.511214216
     0.831629705  0.983224719  0.594498518
     0.638552940  0.345319509  0.529617129
     0.026615672  0.565455505  0.552217876
     0.158384142  0.274238435  0.352610705
     0.481596250  0.144199909  0.440743551
     0.714733389  0.578263741  0.370715146
     0.972091756  0.213434806  0.649987744
     0.295986960  0.467524916  0.369720930
     0.401911716  0.825874092  0.477189430
     0.798893949  0.923960326  0.520999541
     0.051953029  0.018310627  0.355116075
     0.973672742  0.412842685  0.554990277
     0.576115457  0.898400712  0.403287536
     0.298317507  0.612183835  0.481890170
     0.426070394  0.438358771  0.487222879
     0.285419512  0.335394593  0.589846400
     0.396243743  0.375903010  0.327947113
     0.484489784  0.625225281  0.402227163
     0.138858228  0.783705015  0.482494785
     0.520104405  0.370682688  0.374381302
     0.113528657  0.483788659  0.644748592
     0.310738369  0.867179242  0.414243414
     0.248954955  0.741220358  0.373202585
     0.743399230  0.699992281  0.421103243
     0.895647875  0.730164541  0.631750239
     0.229445783  0.006094736  0.526394569
     0.514256654  0.643887616  0.636806684
     0.643531902  0.714384982  0.482394040
     0.481740338  0.932769748  0.520609428
     0.120263812  0.698096170  0.414942602
     0.194532856  0.925142001  0.459488192
     0.375770621  0.593369448  0.601608573
     0.587976417  0.117511170  0.616443139
     0.363603060  0.982206586  0.570125993
     0.985989954  0.790264364  0.411222125
     0.147637720  0.717003941  0.633492474
     0.922418092  0.886179682  0.640310421
     0.584236792  0.240808031  0.403365777

  ion indices of the primitive-cell ions
   primitive index   ion index
                 1           1
                 2           2
                 3           3
                 4           4
                 5           5
                 6           6
                 7           7
                 8           8
                 9           9
                10          10
                11          11
                12          12
                13          13
                14          14
                15          15
                16          16
                17          17
                18          18
                19          19
                20          20
                21          21
                22          22
                23          23
                24          24
                25          25
                26          26
                27          27
                28          28
                29          29
                30          30
                31          31
                32          32
                33          33
                34          34
                35          35
                36          36
                37          37
                38          38
                39          39
                40          40
                41          41
                42          42
                43          43
                44          44
                45          45
                46          46
                47          47
                48          48
                49          49
                50          50
                51          51
                52          52
                53          53
                54          54
                55          55
                56          56
                57          57
                58          58
                59          59
                60          60
                61          61
                62          62
                63          63
                64          64
                65          65
                66          66
                67          67
                68          68
                69          69
                70          70
                71          71
                72          72
                73          73
                74          74
                75          75
                76          76
                77          77
                78          78
                79          79
                80          80
                81          81
                82          82
                83          83
                84          84
                85          85
                86          86
                87          87
                88          88
                89          89
                90          90
                91          91
                92          92
                93          93
                94          94
                95          95
                96          96
                97          97
                98          98
                99          99
               100         100
               101         101
               102         102
               103         103
               104         104
               105         105
               106         106
               107         107
               108         108
               109         109
               110         110
               111         111
               112         112
               113         113
               114         114
               115         115
               116         116
               117         117
               118         118
               119         119
               120         120
               121         121

----------------------------------------------------------------------------------------


 -----------------------------------------------------------------------------
|                                                                             |
|           W    W    AA    RRRRR   N    N  II  N    N   GGGG   !!!           |
|           W    W   A  A   R    R  NN   N  II  NN   N  G    G  !!!           |
|           W    W  A    A  R    R  N N  N  II  N N  N  G       !!!           |
|           W WW W  AAAAAA  RRRRR   N  N N  II  N  N N  G  GGG   !            |
|           WW  WW  A    A  R   R   N   NN  II  N   NN  G    G                |
|           W    W  A    A  R    R  N    N  II  N    N   GGGG   !!!           |
|                                                                             |
|     The requested file  could not be found or opened for reading            |
|     k-point information. Automatic k-point generation is used as a          |
|     fallback, which may lead to unwanted results.                           |
|                                                                             |
 -----------------------------------------------------------------------------



Automatic generation of k-mesh.
 Grid dimensions derived from KSPACING:
 generate k-points for:    2    2    1

 Generating k-lattice:

  Cartesian coordinates                     Fractional coordinates (reciprocal lattice)
     0.034355223  0.000000000  0.000000000     0.500000000  0.000000000  0.000000000
     0.000000000  0.034355223  0.000000000     0.000000000  0.500000000  0.000000000
     0.000000000  0.000000000  0.034014392     0.000000000  0.000000000  1.000000000

  Length of vectors
     0.034355223  0.034355223  0.034014392

  Shift w.r.t. Gamma in fractional coordinates (k-lattice)
     0.000000000  0.000000000  0.000000000

 
 Subroutine IBZKPT returns following result:
 ===========================================
 
 Found      4 irreducible k-points:
 
 Following reciprocal coordinates:
            Coordinates               Weight
  0.000000  0.000000  0.000000      1.000000
  0.500000  0.000000  0.000000      1.000000
  0.000000  0.500000  0.000000      1.000000
  0.500000  0.500000  0.000000      1.000000
 
 Following cartesian coordinates:
            Coordinates               Weight
  0.000000  0.000000  0.000000      1.000000
  0.034355  0.000000  0.000000      1.000000
  0.000000  0.034355  0.000000      1.000000
  0.034355  0.034355  0.000000      1.000000
 


--------------------------------------------------------------------------------------------------------




 Dimension of arrays:
   k-points           NKPTS =      4   k-points in BZ     NKDIM =      4   number of bands    NBANDS=    272
   number of dos      NEDOS =   2000   number of ions     NIONS =    121
   non local maximal  LDIM  =      4   non local SUM 2l+1 LMDIM =      8
   total plane-waves  NPLWV = ******
   max r-space proj   IRMAX =      1   max aug-charges    IRDMAX= 407491
   dimension x,y,z NGX =   168 NGY =  168 NGZ =  336
   dimension x,y,z NGXF=   336 NGYF=  336 NGZF=  672
   support grid    NGXF=   672 NGYF=  672 NGZF= 1344
   ions per type =              25  96
   NGX,Y,Z   is equivalent  to a cutoff of  19.19, 19.19, 19.00 a.u.
   NGXF,Y,Z  is equivalent  to a cutoff of  38.38, 38.38, 38.00 a.u.

 SYSTEM =  a-Si SPC                                
 POSCAR =   H Si                                   

 Startparameter for this run:
   NWRITE =      2    write-flag & timer
   PREC   = accura    normal or accurate (medium, high low for compatibility)
   ISTART =      1    job   : 0-new  1-cont  2-samecut
   ICHARG =      1    charge: 1-file 2-atom 10-const
   ISPIN  =      1    spin polarized calculation?
   LNONCOLLINEAR =      F non collinear calculations
   LSORBIT =      F    spin-orbit coupling
   INIWAV =      1    electr: 0-lowe 1-rand  2-diag
   LASPH  =      T    aspherical Exc in radial PAW
 Electronic Relaxation 1
   ENCUT  = 1200.0 eV  88.20 Ry    9.39 a.u.  41.11 41.11 83.04*2*pi/ulx,y,z
   ENINI  = 1200.0     initial cutoff
   ENAUG  =  400.0 eV  augmentation charge cutoff
   NELM   =    150;   NELMIN=  2; NELMDL=  0     # of ELM steps 
   EDIFF  = 0.1E-05   stopping-criterion for ELM
   LREAL  =      F    real-space projection
   NLSPLINE    = F    spline interpolate recip. space projectors
   LCOMPAT=      F    compatible to vasp.4.4
   GGA_COMPAT  = T    GGA compatible to vasp.4.4-vasp.4.6
   LMAXPAW     = -100 max onsite density
   LMAXMIX     =    2 max onsite mixed and CHGCAR
   VOSKOWN=      0    Vosko Wilk Nusair interpolation
   ROPT   =    0.00000   0.00000
 Ionic relaxation
   EDIFFG = -.1E-01   stopping-criterion for IOM
   NSW    =      0    number of steps for IOM
   NBLOCK =      1;   KBLOCK =      1    inner block; outer block 
   IBRION =     -1    ionic relax: 0-MD 1-quasi-New 2-CG
   NFREE  =      0    steps in history (QN), initial steepest desc. (CG)
   ISIF   =      2    stress and relaxation
   IWAVPR =     10    prediction:  0-non 1-charg 2-wave 3-comb
   ISYM   =      1    0-nonsym 1-usesym 2-fastsym
   LCORR  =      T    Harris-Foulkes like correction to forces

   POTIM  = 0.5000    time-step for ionic-motion
   TEIN   =    0.0    initial temperature
   TEBEG  =    0.0;   TEEND  =   0.0 temperature during run
   SMASS  =  -3.00    Nose mass-parameter (am)
   estimated Nose-frequenzy (Omega)   =  0.10E-29 period in steps = 0.13E+47 mass=  -0.484E-26a.u.
   SCALEE = 1.0000    scale energy and forces
   NPACO  =    256;   APACO  = 10.0  distance and # of slots for P.C.
   PSTRESS=    0.0 pullay stress

  Mass of Ions in am
   POMASS =   1.00 28.09
  Ionic Valenz
   ZVAL   =   1.00  4.00
  Atomic Wigner-Seitz radii
   RWIGS  =  -1.00 -1.00
  virtual crystal weights 
   VCA    =   1.00  1.00
   NELECT =     409.0000    total number of electrons
   NUPDOWN=      -1.0000    fix difference up-down

 DOS related values:
   EMIN   =  10.00;   EMAX   =-10.00  energy-range for DOS
   EFERMI =   0.00;   METHOD = LEGACY      
   ISMEAR =     0;   SIGMA  =   0.10  broadening in eV -4-tet -1-fermi 0-gaus
   EFERMI_NEDOS =   21; number of points for ismear=-14 and -15

 Electronic relaxation 2 (details)
   IALGO  =     38    algorithm
   LDIAG  =      F    sub-space diagonalisation (order eigenvalues)
   LSUBROT=      F    optimize rotation matrix (better conditioning)
   TURBO    =      0    0=normal 1=particle mesh
   IRESTART =      0    0=no restart 2=restart with 2 vectors
   NREBOOT  =      0    no. of reboots
   NMIN     =      0    reboot dimension
   EREF     =   0.00    reference energy to select bands
   IMIX   =      4    mixing-type and parameters
     AMIX     =   0.40;   BMIX     =  1.00
     AMIX_MAG =   1.60;   BMIX_MAG =  1.00
     AMIN     =   0.10
     WC   =   100.;   INIMIX=   1;  MIXPRE=   1;  MAXMIX= -45

 Intra band minimization:
   WEIMIN = 0.0000     energy-eigenvalue tresh-hold
   EBREAK =  0.92E-09  absolut break condition
   DEPER  =   0.30     relativ break condition  

   TIME   =   0.40     timestep for ELM

  volume/ion in A,a.u.               =      51.46       347.30
  Fermi-wavevector in a.u.,A,eV,Ry     =   0.660519  1.248200  5.936023  0.436285
  Thomas-Fermi vector in A             =   1.732992

 Write flags
   LWAVE        =      F    write WAVECAR
   LDOWNSAMPLE  =      F    k-point downsampling of WAVECAR
   LCHARG       =      F    write CHGCAR
   LVTOT        =      F    write LOCPOT, total local potential
   LVHAR        =      F    write LOCPOT, Hartree potential only
   WRT_POTENTIAL= false  ! write potential to hdf5 file
   LELF         =      F    write electronic localiz. function (ELF)
   LORBIT       =     11    0 simple, 1 ext, 2 COOP (PROOUT), +10 PAW based schemes


 Python interface
   PLUGINS active      =      F    recompile with -DPLUGINS to activate

 Dipole corrections
   LMONO      =      F    monopole corrections only (constant potential shift)
   LDIPOL     =      F    correct potential (dipole corrections)
   IDIPOL     =      0    1-x, 2-y, 3-z, 4-all directions 
   EPSILON    =  1.0000000 bulk dielectric constant
   LVACPOTAV  =      F  vacuum potentials using an averaging scheme for the charge density
   VACPOTFLAT =  0.1000000 required flatness to determine vacuum potential

Coulomb truncation method
  LTRUNCATE          =      F  Coulomb kernel truncation to be used
  IDIMENSIONALITY    =      3  Dimensionality of cutoff (0 molecules / 2 surfaces)
  ISURFACE           =     -1  Direction of surface normal
  LCOARSEN           =      F  Coarsen the charge grid before padding, preferred


 Exchange correlation treatment:
   METAGGA = SCAN    functional components
   XC_C    = 1    coefficients multiplying the functional components
   LIBXC   =     F    Libxc                    
   VOSKOWN =     0    Vosko Wilk Nusair interpolation
   LHFCALC =     F    Hartree Fock is set to
   LHFONE  =     F    Hartree Fock one center treatment
   AEXX    =    0.0000 exact exchange contribution

 Parameters of functionals:
   SCAN:
     P1 =  0.000000E+00
     P2 =  0.000000E+00
     P3 =  0.000000E+00

 Accuracy and mixing parameters for tau-dependent meta-GGA functionals:
   LMAXTAU = 6
   LMIXTAU = T

 Van der Waals corrections
   IVDW    =     0    specifies the selected vdW correction

 Linear response parameters
   LEPSILON=     F    determine dielectric tensor
   LRPA    =     F    only Hartree local field effects (RPA)
   LNABLA  =     F    use nabla operator in PAW spheres
   LVEL    =     F    velocity operator in full k-point grid
   CSHIFT  =0.1000    complex shift for real part using Kramers Kronig
   OMEGAMAX=  -1.0    maximum frequency
   DEG_THRESHOLD= 0.2000000E-02 threshold for treating states as degnerate
   RTIME   =   -0.100 relaxation time in fs
  (WPLASMAI=    0.000 imaginary part of plasma frequency in eV, 0.658/RTIME)
   DFIELD  = 0.0000000 0.0000000 0.0000000 field for delta impulse in time

  Optional k-point grid parameters
   LKPOINTS_OPT  =     F    use optional k-point grid
   KPOINTS_OPT_MODE=     1    mode for optional k-point grid

 Orbital magnetization related:
   ORBITALMAG=     F  switch on orbital magnetization
   LCHIMAG   =     F  perturbation theory with respect to B field
   DQ        =  0.001000  dq finite difference perturbation B field
   LLRAUG    =     F  two centre corrections for induced B field
   LBONE     =     F  B-component reconstruction in AE one-centre
   LVGVCALC  =     T  calculate vGv susceptibility
   LVGVAPPL  =     F  apply vGv susceptibility instead of pGv for G=0

 Random number generation:
   RANDOM_GENERATOR = DEFAULT
   PCG_SEED         = not used


--------------------------------------------------------------------------------------------------------


 Static calculation
 charge density and potential will be updated during run
 non-spin polarized calculation
 Variant of blocked Davidson
 perform Loewdin sub-space diagonalisation
    ordering is kept fixed
    before iterative eigenvector-optimisation
 modified Broyden-mixing scheme, WC =      100.0
 initial mixing is a Kerker type mixing with AMIX =  0.4000 and BMIX =      1.0000
 Hartree-type preconditioning will be used
 using additional bands           67
 reciprocal scheme for non local part
 use partial core corrections
 calculate Harris-corrections to forces   (improved forces if not selfconsistent)
 use gradient corrections 
 use of overlap-Matrix (Vanderbilt PP)
 Gauss-broadening in eV      SIGMA  =   0.10


--------------------------------------------------------------------------------------------------------


  energy-cutoff  :     1200.00
  volume of cell :     6227.19
      direct lattice vectors                 reciprocal lattice vectors
    14.553828003  0.000000000  0.000000000     0.068710445  0.000000000  0.000000000
     0.000000000 14.553828003  0.000000000     0.000000000  0.068710445  0.000000000
     0.000000000  0.000000000 29.399320500     0.000000000  0.000000000  0.034014392

  length of vectors
    14.553828003 14.553828003 29.399320500     0.068710445  0.068710445  0.034014392



 old parameters found on file WAVECAR:
  energy-cutoff  :     1200.00
  volume of cell :     6227.19
      direct lattice vectors                 reciprocal lattice vectors
    14.553828003  0.000000000  0.000000000     0.068710445  0.000000000  0.000000000
     0.000000000 14.553828003  0.000000000     0.000000000  0.068710445  0.000000000
     0.000000000  0.000000000 29.399320500     0.000000000  0.000000000  0.034014392

  length of vectors


 k-points in units of 2pi/SCALE and weight: read from INCAR                         
   0.00000000  0.00000000  0.00000000       0.250
   0.03435522  0.00000000  0.00000000       0.250
   0.00000000  0.03435522  0.00000000       0.250
   0.03435522  0.03435522  0.00000000       0.250

 k-points in reciprocal lattice and weights: read from INCAR                         
   0.00000000  0.00000000  0.00000000       0.250
   0.50000000  0.00000000  0.00000000       0.250
   0.00000000  0.50000000  0.00000000       0.250
   0.50000000  0.50000000  0.00000000       0.250

 position of ions in fractional coordinates (direct lattice) 
   0.02114560  0.25842486  0.47863033
   0.87042765  0.18815597  0.55077796
   0.78270139  0.36606766  0.37400225
   0.73458015  0.36255511  0.54360017
   0.76346593  0.47978595  0.47153311
   0.63164045  0.25032538  0.51243585
   0.88932920  0.36889135  0.46028616
   0.31047954  0.29843475  0.43520983
   0.87459675  0.40563669  0.54318435
   0.95755705  0.20652549  0.32509681
   0.74979850  0.32760164  0.38225493
   0.16162304  0.24140869  0.41000173
   0.62305380  0.18333223  0.36602883
   0.89944286  0.41794411  0.44999155
   0.78107750  0.48241395  0.49517572
   0.81296604  0.31580264  0.62129345
   0.70717283  0.12321364  0.52210215
   0.49901524  0.45468153  0.59355672
   0.85116903  0.17203060  0.41866193
   0.75388417  0.32292453  0.46522215
   0.64071779  0.20308565  0.60677284
   0.76577605  0.33848144  0.62743650
   0.82959756  0.51130686  0.62695539
   0.80243144  0.33261603  0.45894522
   0.67292907  0.49632500  0.61284360
   0.18322936  0.86850279  0.64623744
   0.64489998  0.40271323  0.64641794
   0.05094980  0.16516840  0.32650097
   0.07645364  0.02619654  0.55488355
   0.05367365  0.88912734  0.59506170
   0.21315196  0.14980817  0.43117629
   0.64606748  0.59949059  0.59331261
   0.91139894  0.49954187  0.65834513
   0.84933467  0.08437516  0.44461794
   0.84445496  0.49411807  0.35209206
   0.01727734  0.61884035  0.62844588
   0.28242987  0.72327775  0.59150727
   0.08737574  0.52912183  0.41331108
   0.58544185  0.45399212  0.47733903
   0.32802356  0.61387493  0.40024547
   0.40656695  0.32647425  0.53952807
   0.01319060  0.80047419  0.53005086
   0.34277107  0.85969329  0.62051075
   0.58366161  0.58864390  0.52046674
   0.93211524  0.89199935  0.47665948
   0.49086609  0.80027596  0.63335618
   0.78636155  0.68530356  0.57870695
   0.72666294  0.85339593  0.40308296
   0.35099968  0.12560642  0.39093985
   0.07864396  0.15473674  0.59968024
   0.53265086  0.35674515  0.59211731
   0.10307946  0.03604767  0.42745515
   0.24958214  0.48830892  0.59882297
   0.25800563  0.15609704  0.50590030
   0.40995681  0.26094776  0.62500721
   0.70541322  0.80118460  0.54093386
   0.85170275  0.94591823  0.40403572
   0.89257149  0.67481955  0.44538640
   0.99011000  0.04118666  0.48329964
   0.18368842  0.54032140  0.52878586
   0.99593290  0.37250404  0.63121012
   0.71868484  0.04795991  0.48834630
   0.91719090  0.67081692  0.52579068
   0.14381204  0.43801358  0.35197308
   0.42393295  0.57640774  0.52690376
   0.51536789  0.94758506  0.33418232
   0.37993464  0.97585125  0.36913165
   0.17207234  0.24844164  0.55466445
   0.58848964  0.50315584  0.40054797
   0.15726522  0.43749674  0.47088296
   0.28098734  0.75310521  0.51409371
   0.95410938  0.89279910  0.35024086
   0.92893260  0.53001983  0.41572659
   0.90402566  0.13090474  0.58952941
   0.30262765  0.39980227  0.44141460
   0.67183859  0.99203833  0.60236522
   0.56586776  0.01104535  0.46237803
   0.58147181  0.87160545  0.57763749
   0.52168732  0.76065750  0.43769672
   0.31369956  0.24219268  0.33826010
   0.44217326  0.12197641  0.58479569
   0.06941260  0.32691668  0.50770569
   0.41541074  0.18084858  0.51121422
   0.83162971  0.98322472  0.59449852
   0.63855294  0.34531951  0.52961713
   0.02661567  0.56545551  0.55221788
   0.15838414  0.27423843  0.35261070
   0.48159625  0.14419991  0.44074355
   0.71473339  0.57826374  0.37071515
   0.97209176  0.21343481  0.64998774
   0.29598696  0.46752492  0.36972093
   0.40191172  0.82587409  0.47718943
   0.79889395  0.92396033  0.52099954
   0.05195303  0.01831063  0.35511608
   0.97367274  0.41284269  0.55499028
   0.57611546  0.89840071  0.40328754
   0.29831751  0.61218383  0.48189017
   0.42607039  0.43835877  0.48722288
   0.28541951  0.33539459  0.58984640
   0.39624374  0.37590301  0.32794711
   0.48448978  0.62522528  0.40222716
   0.13885823  0.78370501  0.48249478
   0.52010441  0.37068269  0.37438130
   0.11352866  0.48378866  0.64474859
   0.31073837  0.86717924  0.41424341
   0.24895496  0.74122036  0.37320259
   0.74339923  0.69999228  0.42110324
   0.89564788  0.73016454  0.63175024
   0.22944578  0.00609474  0.52639457
   0.51425665  0.64388762  0.63680668
   0.64353190  0.71438498  0.48239404
   0.48174034  0.93276975  0.52060943
   0.12026381  0.69809617  0.41494260
   0.19453286  0.92514200  0.45948819
   0.37577062  0.59336945  0.60160857
   0.58797642  0.11751117  0.61644314
   0.36360306  0.98220659  0.57012599
   0.98598995  0.79026436  0.41122213
   0.14763772  0.71700394  0.63349247
   0.92241809  0.88617968  0.64031042
   0.58423679  0.24080803  0.40336578

 position of ions in cartesian coordinates  (Angst):
   0.30774944  3.76107103 14.07140658
  12.66805432  2.73838965 16.19249768
  11.39130139  5.32768571 10.99541199
  10.69095314  5.27656471 15.98147571
  11.11135179  6.98272220 13.86275311
   9.19278646  3.64319256 15.06526569
  12.94314422  5.36878119 13.53210043
   4.51866586  4.34336800 12.79487313
  12.72873069  5.90356661 15.96925080
  13.93612066  3.00573649  9.55762543
  10.91243841  4.76785785 11.23803511
   2.35223389  3.51342052 12.05377225
   9.06781778  2.66818575 10.76099898
  13.09033672  6.08268669 13.22944583
  11.36766759  7.02096966 14.55782963
  11.83176789  4.59613737 18.26560535
  10.29207168  1.79323015 15.34944849
   7.26258191  6.61735676 17.45016414
  12.38776767  2.50370374 12.30837614
  10.97190056  4.69978811 13.67721506
   9.32489658  2.95567364 17.83870928
  11.14497288  4.92620065 18.44620690
  12.07382026  7.44147209 18.43206231
  11.67844918  4.84083651 13.49267760
   9.79369396  7.22342868 18.01718541
   2.66668859 12.64004023 18.99894168
   9.38576339  5.86101906 19.00424829
   0.74151461  2.40383248  9.59890665
   1.11269309  0.38125991 16.31319923
   0.78115702 12.94020645 17.49440976
   3.10217702  2.18028227 12.67629000
   9.40275496  8.72488288 17.44298767
  13.26434336  7.27024651 19.35489949
  12.36107068  1.22798150 13.07146541
  12.29005221  7.19130938 10.35126721
   0.25145142  9.00649607 18.47588193
   4.11043579 10.52645997 17.38991177
   1.27165156  7.70074808 12.15106486
   8.52042006  6.60732316 14.03344320
   4.77399853  8.93423020 11.76694490
   5.91710543  4.75145006 15.86175857
   0.19197379 11.64996370 15.58313505
   4.98863115 12.51182834 18.24259429
   8.49451063  8.56702211 15.30136856
  13.56584490 12.98200512 14.01346492
   7.14398060 11.64707874 18.62024121
  11.44457081  9.97379016 17.01359120
  10.57572746 12.42017756 11.85036517
   5.10838897  1.82805425 11.49336596
   1.14457067  2.25201188 17.63019162
   7.75210907  5.19200749 17.40784650
   1.50020070  0.52463155 12.56689083
   3.63237554  7.10676405 17.60498843
   3.75496958  2.27180947 14.87312516
   5.96644091  3.79778879 18.37478721
  10.26646264 11.66030293 15.90308785
  12.39553536 13.76673128 11.87837565
  12.99033198  9.82120769 13.09405752
  14.40989065  0.59942360 14.20868110
   2.67336968  7.86374472 15.54594494
  14.49463615  5.42135972 18.55714854
  10.45961548  0.69800024 14.35704943
  13.34863860  9.76295414 15.45788858
   2.09301576  6.37477430 10.34776951
   6.16984730  8.38893916 15.49061246
   7.50057561 13.79098993  9.82473321
   5.52950334 14.20237127 10.85221960
   2.50431118  3.61577695 16.30675781
   8.56477696  7.32284352 11.77583801
   2.28881102  6.36725228 13.84363917
   4.08944142 10.96056375 15.11400587
  13.88594376 12.99364458 10.29684337
  13.51952524  7.71381743 12.22207928
  13.15703401  1.90516502 17.33176419
   4.40439071  5.81865343 12.97728917
   9.77782333 14.43795525 17.70912826
   8.23554211  0.16075207 13.59360003
   8.46264066 12.68519585 16.98214976
   7.59254749 11.07047842 12.86798622
   4.56552944  3.52483065  9.94461697
   6.43531357  1.77522369 17.19259594
   1.01021898  4.75788910 14.92620243
   6.04581645  2.63203916 15.02935059
  12.10339569 14.30968345 17.47785248
   9.29338966  5.02572074 15.57038371
   0.38735991  8.22954217 16.23483032
   2.30509556  3.99121901 10.36651512
   7.00906899  2.09866068 12.95756092
  10.40210681  8.41595102 10.89877339
  14.14765621  3.10629346 19.10919801
   4.30774330  6.80427721 10.86954413
   5.84935398 12.01962949 14.02904499
  11.62696512 13.44715966 15.31703249
   0.75611545  0.26648972 10.44017131
  14.17066562  6.00844143 16.31633702
   8.38468527 13.07516944 11.85637953
   4.34166169  8.90961824 14.16724356
   6.20095523  6.37979816 14.32402158
   4.15394648  4.88127522 17.34108335
   5.76686328  5.47082775  9.64142227
   7.05118098  9.09942120 11.82520529
   2.02091877 11.40590799 14.18501881
   7.56951006  5.39485209 11.00655589
   1.65227655  7.04097693 18.95517049
   4.52243278 12.62077754 12.17847488
   3.62324760 10.78759361 10.97190242
  10.81930453 10.18756726 12.38014921
  13.03510513 10.62668915 18.57302775
   3.33931446  0.08870174 15.47564264
   7.48440289  9.37102961 18.72168380
   9.36585261 10.39703616 14.18205699
   7.01116602 13.57537048 15.30556342
   1.75029883 10.15997159 12.19903056
   2.83119772 13.46435756 13.50864063
   5.46890099  8.63579689 17.68688326
   8.55730764  1.71023735 18.12300941
   5.29181640 14.29486571 16.76131678
  14.34992820 11.50137163 12.08965105
   2.14869398 10.43515204 18.62424828
  13.42471426 12.89730667 18.82469129
   8.50288178  3.50467866 11.85867976



--------------------------------------------------------------------------------------------------------


 k-point     1 :   0.0000 0.0000 0.0000  plane waves:  587567
 k-point     2 :   0.5000 0.0000 0.0000  plane waves:  587814
 k-point     3 :   0.0000 0.5000 0.0000  plane waves:  587814
 k-point     4 :   0.5000 0.5000 0.0000  plane waves:  587716

 maximum and minimum number of plane-waves per node :     36797    36664

 maximum number of plane-waves:    587814
 maximum index in each direction: 
   IXMAX=   41   IYMAX=   41   IZMAX=   83
   IXMIN=  -41   IYMIN=  -41   IZMIN=  -83


 parallel 3D FFT for wavefunctions:
    minimum data exchange during FFTs selected (reduces bandwidth)
 parallel 3D FFT for charge:
    minimum data exchange during FFTs selected (reduces bandwidth)


 total amount of memory used by VASP MPI-rank0   402502. kBytes
=======================================================================

   base                                    :      30000. kBytes
   nonl-proj                               :      89929. kBytes
   fftplans                                :     114289. kBytes
   grid                                    :      88184. kBytes
   one-center                              :         24. kBytes
   wavefun                                 :      80076. kBytes

     INWAV:  cpu time     23.3513: real time     23.3672
 Broyden mixing: mesh for mixing (old mesh)
   NGX = 83   NGY = 83   NGZ =167
  (NGX  =336   NGY  =336   NGZ  =672)
  gives a total of ****** points

 initial charge density was supplied:
 number of electron     408.9999999 magnetization 
 keeping initial charge density in first step


--------------------------------------------------------------------------------------------------------


 Maximum index for augmentation-charges        11360 (set IRDMAX)


--------------------------------------------------------------------------------------------------------


 First call to EWALD:  gamma=   0.096
 Maximum number of real-space cells   3x   3x   2
 Maximum number of reciprocal cells   2x   2x   4

    FEWALD:  cpu time      0.0174: real time      0.0177


--------------------------------------- Ionic step        1  -------------------------------------------




--------------------------------------- Iteration      1(   1)  ---------------------------------------


    POTLOK:  cpu time      2.3199: real time      2.3209
    SETDIJ:  cpu time      1.9240: real time      1.9251
    EDDIAG:  cpu time     47.9376: real time     47.9610
     EDDAV:  cpu time    232.5175: real time    232.6388
       DOS:  cpu time      0.0049: real time      0.0050
    CHARGE:  cpu time     27.4696: real time     27.4925
    MIXING:  cpu time      0.0552: real time      0.0557
    --------------------------------------------
      LOOP:  cpu time    312.2289: real time    312.3991

 eigenvalue-minimisations  :  2216
 total energy-change (2. order) :-0.1055987E+04  (-0.1169907E+01)
 number of electron     408.9999999 magnetization 
 augmentation part      -21.2794621 magnetization 

 Broyden mixing:
  rms(total) = 0.12252E+01    rms(broyden)= 0.12252E+01
  rms(prec ) = 0.12275E+01
  weight for this iteration     100.00

 Free energy of the ion-electron system (eV)
  ---------------------------------------------------
  alpha Z        PSCENC =        57.06384247
  Ewald energy   TEWEN  =     68446.86259308
  -Hartree energ DENC   =    -77515.28403371
  -exchange      EXHF   =         0.00000000
  -V(xc)+E(xc)   XCENC  =      -392.66507703
  PAW double counting   =     37399.12300608   -36442.72378486
  entropy T*S    EENTRO =        -0.23302448
  eigenvalues    EBANDS =     -2814.75600551
  atomic energy  EATOM  =     10206.62528674
  Solvation  Ediel_sol  =         0.00000000
  ---------------------------------------------------
  free energy    TOTEN  =     -1055.98719722 eV

  energy without entropy =    -1055.75417274  energy(sigma->0) =    -1055.87068498


--------------------------------------------------------------------------------------------------------




--------------------------------------- Iteration      1(   2)  ---------------------------------------


    POTLOK:  cpu time      2.2664: real time      2.2919
    SETDIJ:  cpu time      1.9201: real time      1.9212
    EDDIAG:  cpu time     47.8431: real time     47.8687
     EDDAV:  cpu time    231.5136: real time    231.6363
       DOS:  cpu time      0.0037: real time      0.0037
    CHARGE:  cpu time     27.3662: real time     27.3886
    MIXING:  cpu time      0.0461: real time      0.0462
    --------------------------------------------
      LOOP:  cpu time    310.9592: real time    311.1566

 eigenvalue-minimisations  :  2208
 total energy-change (2. order) : 0.7268078E+02  (-0.1169076E+01)
 number of electron     408.9999999 magnetization 
 augmentation part      -21.2076244 magnetization 

 Broyden mixing:
  rms(total) = 0.83224E+00    rms(broyden)= 0.83224E+00
  rms(prec ) = 0.83532E+00
  weight for this iteration     100.00

 eigenvalues of (default mixing * dielectric matrix)
  average eigenvalue GAMMA=   2.5920
  2.5920

 Free energy of the ion-electron system (eV)
  ---------------------------------------------------
  alpha Z        PSCENC =        57.06384247
  Ewald energy   TEWEN  =     68446.86259308
  -Hartree energ DENC   =    -77500.11662507
  -exchange      EXHF   =         0.00000000
  -V(xc)+E(xc)   XCENC  =      -383.54325561
  PAW double counting   =     44592.89789277   -43636.22603090
  entropy T*S    EENTRO =        -0.21797378
  eigenvalues    EBANDS =     -2766.65214328
  atomic energy  EATOM  =     10206.62528674
  Solvation  Ediel_sol  =         0.00000000
  ---------------------------------------------------
  free energy    TOTEN  =      -983.30641357 eV

  energy without entropy =     -983.08843979  energy(sigma->0) =     -983.19742668


--------------------------------------------------------------------------------------------------------




--------------------------------------- Iteration      1(   3)  ---------------------------------------


    POTLOK:  cpu time      2.2755: real time      2.3048
    SETDIJ:  cpu time      1.9150: real time      1.9164
    EDDIAG:  cpu time     47.8595: real time     47.8821
     EDDAV:  cpu time    231.3433: real time    231.4622
       DOS:  cpu time      0.0037: real time      0.0037
    CHARGE:  cpu time     27.3462: real time     27.3706
    MIXING:  cpu time      0.0457: real time      0.0457
    --------------------------------------------
      LOOP:  cpu time    310.7890: real time    310.9855

 eigenvalue-minimisations  :  2200
 total energy-change (2. order) :-0.3033851E+01  (-0.1022697E+01)
 number of electron     408.9999999 magnetization 
 augmentation part      -21.1095412 magnetization 

 Broyden mixing:
  rms(total) = 0.26555E+00    rms(broyden)= 0.26555E+00
  rms(prec ) = 0.38431E+00
  weight for this iteration     100.00

 eigenvalues of (default mixing * dielectric matrix)
  average eigenvalue GAMMA=   1.6853
  0.7078  2.6627

 Free energy of the ion-electron system (eV)
  ---------------------------------------------------
  alpha Z        PSCENC =        57.06384247
  Ewald energy   TEWEN  =     68446.86259308
  -Hartree energ DENC   =    -77502.20281121
  -exchange      EXHF   =         0.00000000
  -V(xc)+E(xc)   XCENC  =      -386.30629186
  PAW double counting   =     57938.74924062   -56982.33453430
  entropy T*S    EENTRO =        -0.20486826
  eigenvalues    EBANDS =     -2764.59272135
  atomic energy  EATOM  =     10206.62528674
  Solvation  Ediel_sol  =         0.00000000
  ---------------------------------------------------
  free energy    TOTEN  =      -986.34026407 eV

  energy without entropy =     -986.13539581  energy(sigma->0) =     -986.23782994


--------------------------------------------------------------------------------------------------------




--------------------------------------- Iteration      1(   4)  ---------------------------------------


    POTLOK:  cpu time      2.2915: real time      2.2935
    SETDIJ:  cpu time      1.9246: real time      1.9254
    EDDIAG:  cpu time     47.8578: real time     47.8829
     EDDAV:  cpu time    253.5984: real time    253.7383
       DOS:  cpu time      0.0029: real time      0.0029
    CHARGE:  cpu time     27.3696: real time     27.3924
    MIXING:  cpu time      0.0450: real time      0.0450
    --------------------------------------------
      LOOP:  cpu time    333.0898: real time    333.2804

 eigenvalue-minimisations  :  2568
 total energy-change (2. order) :-0.1528287E+00  (-0.4942837E+00)
 number of electron     408.9999999 magnetization 
 augmentation part      -21.1394972 magnetization 

 Broyden mixing:
  rms(total) = 0.21203E+00    rms(broyden)= 0.21203E+00
  rms(prec ) = 0.36293E+00
  weight for this iteration     100.00

 eigenvalues of (default mixing * dielectric matrix)
  average eigenvalue GAMMA=   1.2860
  2.6127  0.8938  0.3513

 Free energy of the ion-electron system (eV)
  ---------------------------------------------------
  alpha Z        PSCENC =        57.06384247
  Ewald energy   TEWEN  =     68446.86259308
  -Hartree energ DENC   =    -77501.32809144
  -exchange      EXHF   =         0.00000000
  -V(xc)+E(xc)   XCENC  =      -388.33941573
  PAW double counting   =     59416.95101177   -58460.51473959
  entropy T*S    EENTRO =        -0.19608035
  eigenvalues    EBANDS =     -2763.61749972
  atomic energy  EATOM  =     10206.62528674
  Solvation  Ediel_sol  =         0.00000000
  ---------------------------------------------------
  free energy    TOTEN  =      -986.49309277 eV

  energy without entropy =     -986.29701242  energy(sigma->0) =     -986.39505259


--------------------------------------------------------------------------------------------------------




--------------------------------------- Iteration      1(   5)  ---------------------------------------


    POTLOK:  cpu time      2.2843: real time      2.2890
    SETDIJ:  cpu time      1.9140: real time      1.9151
    EDDIAG:  cpu time     47.8818: real time     47.9058
     EDDAV:  cpu time    252.5169: real time    252.6500
       DOS:  cpu time      0.0063: real time      0.0063
    CHARGE:  cpu time     27.3444: real time     27.3674
    MIXING:  cpu time      0.0464: real time      0.0464
    --------------------------------------------
      LOOP:  cpu time    331.9942: real time    332.1802

 eigenvalue-minimisations  :  2552
 total energy-change (2. order) : 0.1632832E+00  (-0.1662103E+00)
 number of electron     408.9999999 magnetization 
 augmentation part      -21.1346631 magnetization 

 Broyden mixing:
  rms(total) = 0.86490E-01    rms(broyden)= 0.86490E-01
  rms(prec ) = 0.12440E+00
  weight for this iteration     100.00

 eigenvalues of (default mixing * dielectric matrix)
  average eigenvalue GAMMA=   1.1122
  2.5679  1.0560  0.5451  0.2800

 Free energy of the ion-electron system (eV)
  ---------------------------------------------------
  alpha Z        PSCENC =        57.06384247
  Ewald energy   TEWEN  =     68446.86259308
  -Hartree energ DENC   =    -77502.99109939
  -exchange      EXHF   =         0.00000000
  -V(xc)+E(xc)   XCENC  =      -389.14471804
  PAW double counting   =     59289.32360185   -58332.86298025
  entropy T*S    EENTRO =        -0.21884618
  eigenvalues    EBANDS =     -2760.98748988
  atomic energy  EATOM  =     10206.62528674
  Solvation  Ediel_sol  =         0.00000000
  ---------------------------------------------------
  free energy    TOTEN  =      -986.32980960 eV

  energy without entropy =     -986.11096342  energy(sigma->0) =     -986.22038651


--------------------------------------------------------------------------------------------------------




--------------------------------------- Iteration      1(   6)  ---------------------------------------


    POTLOK:  cpu time      2.2616: real time      2.2872
    SETDIJ:  cpu time      1.9203: real time      1.9212
    EDDIAG:  cpu time     47.8772: real time     47.9034
     EDDAV:  cpu time    236.0751: real time    236.1995
       DOS:  cpu time      0.0070: real time      0.0070
    CHARGE:  cpu time     27.3545: real time     27.3754
    MIXING:  cpu time      0.0488: real time      0.0496
    --------------------------------------------
      LOOP:  cpu time    315.5442: real time    315.7432

 eigenvalue-minimisations  :  2280
 total energy-change (2. order) :-0.1232813E-01  (-0.2660812E-01)
 number of electron     408.9999999 magnetization 
 augmentation part      -21.1321676 magnetization 

 Broyden mixing:
  rms(total) = 0.45195E-01    rms(broyden)= 0.45195E-01
  rms(prec ) = 0.52814E-01
  weight for this iteration     100.00

 eigenvalues of (default mixing * dielectric matrix)
  average eigenvalue GAMMA=   1.0459
  2.5377  1.2549  0.6476  0.5083  0.2812

 Free energy of the ion-electron system (eV)
  ---------------------------------------------------
  alpha Z        PSCENC =        57.06384247
  Ewald energy   TEWEN  =     68446.86259308
  -Hartree energ DENC   =    -77505.43313065
  -exchange      EXHF   =         0.00000000
  -V(xc)+E(xc)   XCENC  =      -389.46938727
  PAW double counting   =     59084.53838375   -58128.05983412
  entropy T*S    EENTRO =        -0.22665622
  eigenvalues    EBANDS =     -2758.24323551
  atomic energy  EATOM  =     10206.62528674
  Solvation  Ediel_sol  =         0.00000000
  ---------------------------------------------------
  free energy    TOTEN  =      -986.34213773 eV

  energy without entropy =     -986.11548151  energy(sigma->0) =     -986.22880962


--------------------------------------------------------------------------------------------------------




--------------------------------------- Iteration      1(   7)  ---------------------------------------


    POTLOK:  cpu time      2.2695: real time      2.2885
    SETDIJ:  cpu time      1.9223: real time      1.9233
    EDDIAG:  cpu time     47.8887: real time     47.9123
     EDDAV:  cpu time    239.4252: real time    239.5528
       DOS:  cpu time      0.0025: real time      0.0025
    CHARGE:  cpu time     27.3768: real time     27.4007
    MIXING:  cpu time      0.0471: real time      0.0471
    --------------------------------------------
      LOOP:  cpu time    318.9321: real time    319.1273

 eigenvalue-minimisations  :  2344
 total energy-change (2. order) : 0.1656850E-03  (-0.3763739E-02)
 number of electron     408.9999999 magnetization 
 augmentation part      -21.1317966 magnetization 

 Broyden mixing:
  rms(total) = 0.35510E-01    rms(broyden)= 0.35510E-01
  rms(prec ) = 0.39427E-01
  weight for this iteration     100.00

 eigenvalues of (default mixing * dielectric matrix)
  average eigenvalue GAMMA=   0.9946
  2.5225  1.4734  0.6728  0.5888  0.2823  0.4277

 Free energy of the ion-electron system (eV)
  ---------------------------------------------------
  alpha Z        PSCENC =        57.06384247
  Ewald energy   TEWEN  =     68446.86259308
  -Hartree energ DENC   =    -77503.23658966
  -exchange      EXHF   =         0.00000000
  -V(xc)+E(xc)   XCENC  =      -389.47747940
  PAW double counting   =     59022.35697807   -58065.86368522
  entropy T*S    EENTRO =        -0.22111472
  eigenvalues    EBANDS =     -2760.45180341
  atomic energy  EATOM  =     10206.62528674
  Solvation  Ediel_sol  =         0.00000000
  ---------------------------------------------------
  free energy    TOTEN  =      -986.34197205 eV

  energy without entropy =     -986.12085733  energy(sigma->0) =     -986.23141469


--------------------------------------------------------------------------------------------------------




--------------------------------------- Iteration      1(   8)  ---------------------------------------


    POTLOK:  cpu time      2.2931: real time      2.2946
    SETDIJ:  cpu time      1.9163: real time      1.9173
    EDDIAG:  cpu time     47.8974: real time     47.9251
     EDDAV:  cpu time    238.6031: real time    238.7339
       DOS:  cpu time      0.0035: real time      0.0035
    CHARGE:  cpu time     27.3792: real time     27.4025
    MIXING:  cpu time      0.0473: real time      0.0473
    --------------------------------------------
      LOOP:  cpu time    318.1398: real time    318.3242

 eigenvalue-minimisations  :  2328
 total energy-change (2. order) : 0.2776986E-03  (-0.1245155E-02)
 number of electron     408.9999999 magnetization 
 augmentation part      -21.1308623 magnetization 

 Broyden mixing:
  rms(total) = 0.21410E-01    rms(broyden)= 0.21410E-01
  rms(prec ) = 0.22372E-01
  weight for this iteration     100.00

 eigenvalues of (default mixing * dielectric matrix)
  average eigenvalue GAMMA=   1.1138
  2.4627  2.1865  0.9815  0.9815  0.2816  0.4922  0.4108

 Free energy of the ion-electron system (eV)
  ---------------------------------------------------
  alpha Z        PSCENC =        57.06384247
  Ewald energy   TEWEN  =     68446.86259308
  -Hartree energ DENC   =    -77502.58952806
  -exchange      EXHF   =         0.00000000
  -V(xc)+E(xc)   XCENC  =      -389.33878654
  PAW double counting   =     59015.07405741   -58058.56972599
  entropy T*S    EENTRO =        -0.22466714
  eigenvalues    EBANDS =     -2761.24476631
  atomic energy  EATOM  =     10206.62528674
  Solvation  Ediel_sol  =         0.00000000
  ---------------------------------------------------
  free energy    TOTEN  =      -986.34169435 eV

  energy without entropy =     -986.11702721  energy(sigma->0) =     -986.22936078


--------------------------------------------------------------------------------------------------------




--------------------------------------- Iteration      1(   9)  ---------------------------------------


    POTLOK:  cpu time      2.2660: real time      2.2944
    SETDIJ:  cpu time      1.9254: real time      1.9267
    EDDIAG:  cpu time     47.8780: real time     47.9024
     EDDAV:  cpu time    237.0130: real time    237.1359
       DOS:  cpu time      0.0023: real time      0.0023
    CHARGE:  cpu time     27.3750: real time     27.3963
    MIXING:  cpu time      0.0492: real time      0.0492
    --------------------------------------------
      LOOP:  cpu time    316.5089: real time    316.7072

 eigenvalue-minimisations  :  2304
 total energy-change (2. order) :-0.7103527E-03  (-0.6438163E-03)
 number of electron     408.9999999 magnetization 
 augmentation part      -21.1286298 magnetization 

 Broyden mixing:
  rms(total) = 0.85763E-02    rms(broyden)= 0.85763E-02
  rms(prec ) = 0.96163E-02
  weight for this iteration     100.00

 eigenvalues of (default mixing * dielectric matrix)
  average eigenvalue GAMMA=   1.1546
  2.5898  2.5898  1.0858  0.8909  0.8909  0.2812  0.4854  0.4227

 Free energy of the ion-electron system (eV)
  ---------------------------------------------------
  alpha Z        PSCENC =        57.06384247
  Ewald energy   TEWEN  =     68446.86259308
  -Hartree energ DENC   =    -77502.13011339
  -exchange      EXHF   =         0.00000000
  -V(xc)+E(xc)   XCENC  =      -389.10287919
  PAW double counting   =     59020.42645609   -58063.90471712
  entropy T*S    EENTRO =        -0.22430422
  eigenvalues    EBANDS =     -2761.95856916
  atomic energy  EATOM  =     10206.62528674
  Solvation  Ediel_sol  =         0.00000000
  ---------------------------------------------------
  free energy    TOTEN  =      -986.34240470 eV

  energy without entropy =     -986.11810048  energy(sigma->0) =     -986.23025259


--------------------------------------------------------------------------------------------------------




--------------------------------------- Iteration      1(  10)  ---------------------------------------


    POTLOK:  cpu time      2.2926: real time      2.2937
    SETDIJ:  cpu time      1.9212: real time      1.9219
    EDDIAG:  cpu time     47.8644: real time     47.8879
     EDDAV:  cpu time    250.6331: real time    250.7649
       DOS:  cpu time      0.0022: real time      0.0022
    CHARGE:  cpu time     27.3697: real time     27.3932
    MIXING:  cpu time      0.0502: real time      0.0502
    --------------------------------------------
      LOOP:  cpu time    330.1333: real time    330.3141

 eigenvalue-minimisations  :  2520
 total energy-change (2. order) :-0.2955887E-03  (-0.1479289E-03)
 number of electron     408.9999999 magnetization 
 augmentation part      -21.1283361 magnetization 

 Broyden mixing:
  rms(total) = 0.32853E-02    rms(broyden)= 0.32853E-02
  rms(prec ) = 0.38838E-02
  weight for this iteration     100.00

 eigenvalues of (default mixing * dielectric matrix)
  average eigenvalue GAMMA=   1.1340
  2.5843  2.5843  1.3685  0.9482  0.7698  0.7698  0.2813  0.4704  0.4292

 Free energy of the ion-electron system (eV)
  ---------------------------------------------------
  alpha Z        PSCENC =        57.06384247
  Ewald energy   TEWEN  =     68446.86259308
  -Hartree energ DENC   =    -77501.56169908
  -exchange      EXHF   =         0.00000000
  -V(xc)+E(xc)   XCENC  =      -389.02954991
  PAW double counting   =     59038.05707802   -58081.52552235
  entropy T*S    EENTRO =        -0.22432063
  eigenvalues    EBANDS =     -2762.61040864
  atomic energy  EATOM  =     10206.62528674
  Solvation  Ediel_sol  =         0.00000000
  ---------------------------------------------------
  free energy    TOTEN  =      -986.34270029 eV

  energy without entropy =     -986.11837966  energy(sigma->0) =     -986.23053998


--------------------------------------------------------------------------------------------------------




--------------------------------------- Iteration      1(  11)  ---------------------------------------


    POTLOK:  cpu time      2.2665: real time      2.2934
    SETDIJ:  cpu time      1.9406: real time      1.9417
    EDDIAG:  cpu time     47.8833: real time     47.9110
     EDDAV:  cpu time    239.4543: real time    239.5834
       DOS:  cpu time      0.0117: real time      0.0118
    CHARGE:  cpu time     27.3961: real time     27.4198
    MIXING:  cpu time      0.0661: real time      0.0666
    --------------------------------------------
      LOOP:  cpu time    319.0187: real time    319.2277

 eigenvalue-minimisations  :  2344
 total energy-change (2. order) : 0.1025045E-04  (-0.4787097E-04)
 number of electron     408.9999999 magnetization 
 augmentation part      -21.1285764 magnetization 

 Broyden mixing:
  rms(total) = 0.22567E-02    rms(broyden)= 0.22567E-02
  rms(prec ) = 0.27014E-02
  weight for this iteration     100.00

 eigenvalues of (default mixing * dielectric matrix)
  average eigenvalue GAMMA=   1.1317
  2.6752  2.6752  1.5197  0.9511  0.8640  0.8640  0.2813  0.4255  0.4694  0.5910

 Free energy of the ion-electron system (eV)
  ---------------------------------------------------
  alpha Z        PSCENC =        57.06384247
  Ewald energy   TEWEN  =     68446.86259308
  -Hartree energ DENC   =    -77501.38790496
  -exchange      EXHF   =         0.00000000
  -V(xc)+E(xc)   XCENC  =      -389.05874096
  PAW double counting   =     59032.36813224   -58075.83439397
  entropy T*S    EENTRO =        -0.22396600
  eigenvalues    EBANDS =     -2762.75753868
  atomic energy  EATOM  =     10206.62528674
  Solvation  Ediel_sol  =         0.00000000
  ---------------------------------------------------
  free energy    TOTEN  =      -986.34269004 eV

  energy without entropy =     -986.11872405  energy(sigma->0) =     -986.23070704


--------------------------------------------------------------------------------------------------------




--------------------------------------- Iteration      1(  12)  ---------------------------------------


    POTLOK:  cpu time      2.2698: real time      2.2935
    SETDIJ:  cpu time      1.9329: real time      1.9350
    EDDIAG:  cpu time     47.9146: real time     47.9413
     EDDAV:  cpu time    235.7989: real time    235.9276
       DOS:  cpu time      0.0028: real time      0.0028
    CHARGE:  cpu time     27.3697: real time     27.3936
    MIXING:  cpu time      0.0537: real time      0.0537
    --------------------------------------------
      LOOP:  cpu time    315.3424: real time    315.5472

 eigenvalue-minimisations  :  2280
 total energy-change (2. order) : 0.1166726E-04  (-0.2508498E-04)
 number of electron     408.9999999 magnetization 
 augmentation part      -21.1285270 magnetization 

 Broyden mixing:
  rms(total) = 0.10796E-02    rms(broyden)= 0.10796E-02
  rms(prec ) = 0.13168E-02
  weight for this iteration     100.00

 eigenvalues of (default mixing * dielectric matrix)
  average eigenvalue GAMMA=   1.1582
  2.7759  2.7759  1.7765  1.1827  0.8608  0.8608  0.8235  0.2813  0.4216  0.4906
  0.4906

 Free energy of the ion-electron system (eV)
  ---------------------------------------------------
  alpha Z        PSCENC =        57.06384247
  Ewald energy   TEWEN  =     68446.86259308
  -Hartree energ DENC   =    -77501.15607757
  -exchange      EXHF   =         0.00000000
  -V(xc)+E(xc)   XCENC  =      -389.05844502
  PAW double counting   =     59026.51409035   -58069.97864770
  entropy T*S    EENTRO =        -0.22422083
  eigenvalues    EBANDS =     -2762.99109990
  atomic energy  EATOM  =     10206.62528674
  Solvation  Ediel_sol  =         0.00000000
  ---------------------------------------------------
  free energy    TOTEN  =      -986.34267837 eV

  energy without entropy =     -986.11845754  energy(sigma->0) =     -986.23056796


--------------------------------------------------------------------------------------------------------




--------------------------------------- Iteration      1(  13)  ---------------------------------------


    POTLOK:  cpu time      2.2628: real time      2.2905
    SETDIJ:  cpu time      1.9264: real time      1.9275
    EDDIAG:  cpu time     47.8882: real time     47.9141
     EDDAV:  cpu time    233.8559: real time    233.9815
       DOS:  cpu time      0.0089: real time      0.0093
    CHARGE:  cpu time     27.3771: real time     27.4006
    MIXING:  cpu time      0.0669: real time      0.0674
    --------------------------------------------
      LOOP:  cpu time    313.3866: real time    313.5912

 eigenvalue-minimisations  :  2248
 total energy-change (2. order) :-0.4520789E-04  (-0.2153868E-04)
 number of electron     408.9999999 magnetization 
 augmentation part      -21.1286080 magnetization 

 Broyden mixing:
  rms(total) = 0.61597E-03    rms(broyden)= 0.61597E-03
  rms(prec ) = 0.82205E-03
  weight for this iteration     100.00

 eigenvalues of (default mixing * dielectric matrix)
  average eigenvalue GAMMA=   1.1791
  2.8702  2.8702  1.9584  1.4367  0.8858  0.8858  0.8728  0.2813  0.6737  0.4248
  0.4712  0.5184

 Free energy of the ion-electron system (eV)
  ---------------------------------------------------
  alpha Z        PSCENC =        57.06384247
  Ewald energy   TEWEN  =     68446.86259308
  -Hartree energ DENC   =    -77500.90017828
  -exchange      EXHF   =         0.00000000
[...]
   0.371E+02 -.393E+01 -.365E+03   -.365E+02 0.562E+01 0.362E+03   -.597E+00 -.113E+01 0.244E+01   0.900E-06 0.179E-05 0.525E-05
   -.621E+01 -.134E+01 -.102E+03   0.575E+01 0.347E+01 0.100E+03   0.326E+00 -.222E+01 0.188E+01   -.128E-04 0.912E-05 0.689E-05
   -.217E+02 0.126E+02 -.384E+03   0.205E+02 -.114E+02 0.384E+03   0.112E+01 -.106E+01 0.690E+00   0.373E-05 -.716E-05 -.206E-05
   -.165E+02 0.522E+01 0.434E+02   0.157E+02 -.504E+01 -.439E+02   0.882E+00 0.124E-01 0.426E+00   0.143E-04 0.578E-05 -.120E-04
   -.207E+02 -.219E+02 -.629E+02   0.196E+02 0.206E+02 0.627E+02   0.118E+01 0.128E+01 0.250E+00   -.863E-06 -.597E-06 0.594E-05
   0.234E+02 0.199E+02 0.261E+03   -.219E+02 -.162E+02 -.261E+03   -.142E+01 -.373E+01 0.509E+00   -.199E-04 0.103E-05 -.745E-05
   -.163E-03 -.139E+02 0.120E+03   -.342E+00 0.134E+02 -.121E+03   0.345E+00 0.546E+00 0.973E+00   -.119E-04 0.340E-05 0.118E-04
   -.176E+02 0.196E+02 -.316E+03   0.167E+02 -.171E+02 0.313E+03   0.838E+00 -.249E+01 0.323E+01   -.566E-05 -.990E-05 0.106E-04
   -.152E+02 -.783E+01 -.334E+03   0.169E+02 0.584E+01 0.332E+03   -.124E+01 0.116E+01 0.119E+01   -.582E-05 0.548E-06 0.189E-04
   0.101E+01 -.222E+02 -.226E+03   -.126E+00 0.212E+02 0.225E+03   -.796E+00 0.109E+01 0.951E+00   -.295E-06 0.116E-04 0.347E-05
   0.883E+01 0.109E+02 0.273E+03   -.803E+01 -.116E+02 -.275E+03   -.616E+00 0.569E+00 0.116E+01   -.120E-04 -.328E-05 -.551E-05
   0.144E+01 0.104E+02 -.365E+03   -.304E+00 -.720E+01 0.363E+03   -.144E+01 -.295E+01 0.139E+01   0.373E-06 -.882E-05 0.151E-04
   0.244E+02 -.306E+02 -.392E+03   -.229E+02 0.309E+02 0.392E+03   -.147E+01 -.565E+00 0.304E+00   0.508E-06 0.186E-04 -.499E-05
   -.659E+02 0.988E+01 0.240E+03   0.669E+02 -.997E+01 -.240E+03   -.361E+00 0.550E-01 0.546E+00   -.186E-04 -.710E-05 -.283E-04
 -----------------------------------------------------------------------------------------------
   -.953E+01 0.149E+02 -.279E+02   -.853E-13 0.171E-12 -.568E-12   0.954E+01 -.149E+02 0.279E+02   -.135E-03 -.211E-04 0.289E-03


 POSITION                                       TOTAL-FORCE (eV/Angst)
 -----------------------------------------------------------------------------------
      0.30775      3.76107     14.07141        -0.018535     -0.142518      0.011506
     12.66805      2.73839     16.19250        -0.108000     -0.159217      0.005759
     11.39130      5.32769     10.99541        -0.223472     -0.317914     -0.002767
     10.69095      5.27656     15.98148         0.026604      0.036420      0.128698
     11.11135      6.98272     13.86275         0.003523      0.171736     -0.121397
      9.19279      3.64319     15.06527        -0.000610     -0.163147      0.016871
     12.94314      5.36878     13.53210         0.518669      0.347284     -0.004859
      4.51867      4.34337     12.79487         0.058284     -0.098839      0.015564
     12.72873      5.90357     15.96925        -0.039261     -0.007256     -0.098310
     13.93612      3.00574      9.55763         0.012789     -0.061132     -0.384041
     10.91244      4.76786     11.23804         0.050433      0.025965      0.002580
      2.35223      3.51342     12.05377         0.395598     -0.476214      0.330436
      9.06782      2.66819     10.76100        -0.040314     -0.080036     -0.098967
     13.09034      6.08269     13.22945         0.218785     -0.421691      0.162632
     11.36767      7.02097     14.55783         0.085263      0.149804      0.196417
     11.83177      4.59614     18.26561        -0.138465     -0.021006     -0.003535
     10.29207      1.79323     15.34945         0.082821     -0.104944     -0.002868
      7.26258      6.61736     17.45016        -0.129058      0.060567     -0.049962
     12.38777      2.50370     12.30838        -0.009233     -0.005106     -0.002332
     10.97190      4.69979     13.67722        -0.425604     -0.336767     -0.011633
      9.32490      2.95567     17.83871        -0.039132      0.125423      0.126441
     11.14497      4.92620     18.44621         0.241624     -0.159785     -0.043620
     12.07382      7.44147     18.43206         0.108680     -0.079377     -0.303131
     11.67845      4.84084     13.49268        -0.156090     -0.253868      0.047086
      9.79369      7.22343     18.01719        -0.023401     -0.025515     -0.054464
      2.66669     12.64004     18.99894        -0.144698      0.221009      0.404703
      9.38576      5.86102     19.00425        -0.172882      0.313534      0.216510
      0.74151      2.40383      9.59891        -0.009829     -0.165271      0.473345
      1.11269      0.38126     16.31320         0.106545     -0.109916      0.011168
      0.78116     12.94021     17.49441         0.038760     -0.446705     -0.052290
      3.10218      2.18028     12.67629        -0.435131      0.230912     -0.087284
      9.40275      8.72488     17.44299         0.061937      0.085526     -0.160252
     13.26434      7.27025     19.35490        -0.224129      0.057380      0.682210
     12.36107      1.22798     13.07147        -0.110705      0.139760      0.023807
     12.29005      7.19131     10.35127         0.200467      0.052328     -0.160789
      0.25145      9.00650     18.47588         0.048290      0.235822      0.312676
      4.11044     10.52646     17.38991         0.028487     -0.460679      0.009920
      1.27165      7.70075     12.15106         0.069645     -0.090172      0.112583
      8.52042      6.60732     14.03344        -0.029169     -0.210398     -0.128630
      4.77400      8.93423     11.76694        -0.206837     -0.084149     -0.130091
      5.91711      4.75145     15.86176        -0.247240     -0.402996     -0.009018
      0.19197     11.64996     15.58314        -0.054082      0.152641      0.224933
      4.98863     12.51183     18.24259         0.304364      0.086557      0.099243
      8.49451      8.56702     15.30137        -0.116728     -0.156884     -0.146076
     13.56584     12.98201     14.01346        -0.007721      0.065248      0.340980
      7.14398     11.64708     18.62024        -0.088572     -0.345934     -0.293193
     11.44457      9.97379     17.01359        -0.133623     -0.063454      0.300704
     10.57573     12.42018     11.85037         0.021786      0.045303     -0.026938
      5.10839      1.82805     11.49337        -0.020468      0.129091     -0.329465
      1.14457      2.25201     17.63019        -0.080104      0.051659      0.188892
      7.75211      5.19201     17.40785         0.257420      0.262342      0.186419
      1.50020      0.52463     12.56689         0.475819      0.174389     -0.234527
      3.63238      7.10676     17.60499        -0.148536      0.014807      0.173207
      3.75497      2.27181     14.87313         0.096367      0.189921      0.037206
      5.96644      3.79779     18.37479         0.157045      0.104572      0.228607
     10.26646     11.66030     15.90309        -0.196819     -0.095561      0.008696
     12.39554     13.76673     11.87838         0.273143      0.201083      0.175340
     12.99033      9.82121     13.09406        -0.154483     -0.204729     -0.291474
     14.40989      0.59942     14.20868        -0.350825     -0.124387     -0.182704
      2.67337      7.86374     15.54594        -0.148370      0.039915      0.102299
     14.49464      5.42136     18.55715         0.023900      0.104586     -0.214731
     10.45962      0.69800     14.35705        -0.141869      0.226205     -0.082423
     13.34864      9.76295     15.45789         0.047396     -0.047533      0.028456
      2.09302      6.37477     10.34777        -0.026175     -0.075256     -0.251334
      6.16985      8.38894     15.49061         0.155337     -0.173320     -0.074722
      7.50058     13.79099      9.82473         0.145470      0.072210     -0.518693
      5.52950     14.20237     10.85222         0.057419      0.178949      0.255460
      2.50431      3.61578     16.30676         0.005420      0.101981     -0.125640
      8.56478      7.32284     11.77584        -0.095396      0.157130     -0.004909
      2.28881      6.36725     13.84364         0.044731     -0.173321      0.052988
      4.08944     10.96056     15.11401        -0.090818      0.055456     -0.124171
     13.88594     12.99364     10.29684        -0.162722     -0.480576     -0.595383
     13.51953      7.71382     12.22208        -0.223130      1.235939     -0.738088
     13.15703      1.90517     17.33176         0.140674      0.540081      0.057287
      4.40439      5.81865     12.97729        -0.097125     -0.010798     -0.224426
      9.77782     14.43796     17.70913        -0.218717      0.888564      0.273946
      8.23554      0.16075     13.59360         0.136337      0.014323     -0.094205
      8.46264     12.68520     16.98215         0.101635     -0.133137      0.091699
      7.59255     11.07048     12.86799        -0.082186     -0.123937      0.213869
      4.56553      3.52483      9.94462         0.234184      0.236246      0.172739
      6.43531      1.77522     17.19260        -0.137025      0.023975     -0.155429
      1.01022      4.75789     14.92620         0.018597      0.060086     -0.144079
      6.04582      2.63204     15.02935         0.130728     -0.109735     -0.120157
     12.10340     14.30968     17.47785         0.103737     -0.109641      0.156231
      9.29339      5.02572     15.57038        -0.290180     -0.064674     -0.145432
      0.38736      8.22954     16.23483         0.173782      0.072792     -0.124337
      2.30510      3.99122     10.36652        -0.286122      0.029689     -0.045671
      7.00907      2.09866     12.95756         0.007228     -0.031956     -0.037311
     10.40211      8.41595     10.89877         0.226292     -0.061963      0.350138
     14.14766      3.10629     19.10920         0.099543     -0.061498      0.223142
      4.30774      6.80428     10.86954         0.115163      0.090614      0.127893
      5.84935     12.01963     14.02904         0.018121      0.060719     -0.088063
     11.62697     13.44716     15.31703        -0.026404      0.090944      0.013572
      0.75612      0.26649     10.44017        -0.386189      0.433050      0.151894
     14.17067      6.00844     16.31634         0.000738     -0.008416      0.152724
      8.38469     13.07517     11.85638        -0.176622      0.158137      0.288357
      4.34166      8.90962     14.16724         0.035842      0.167319     -0.045792
      6.20096      6.37980     14.32402         0.149697      0.167982      0.181286
      4.15395      4.88128     17.34108        -0.279801      0.085622     -0.137611
      5.76686      5.47083      9.64142         0.138545     -0.217532      0.174884
      7.05118      9.09942     11.82521         0.138851     -0.041478     -0.016799
      2.02092     11.40591     14.18502        -0.157948     -0.257346     -0.060714
      7.56951      5.39485     11.00656        -0.398477     -0.020667     -0.316333
      1.65228      7.04098     18.95517         0.411052     -0.204594      0.007012
      4.52243     12.62078     12.17847        -0.232177      0.081835      0.190696
      3.62325     10.78759     10.97190         0.163840      0.010346     -0.251060
     10.81930     10.18757     12.38015         0.174406     -0.293575      0.084669
     13.03511     10.62669     18.57303         0.018042      0.525942     -0.526047
      3.33931      0.08870     15.47564        -0.112687     -0.153156     -0.062071
      7.48440      9.37103     18.72168        -0.006104      0.175438      0.005879
      9.36585     10.39704     14.18206         0.107288      0.191822     -0.137726
      7.01117     13.57537     15.30556         0.157386      0.070666      0.065084
      1.75030     10.15997     12.19903        -0.067250     -0.235933      0.113709
      2.83120     13.46436     13.50864         0.016194      0.034812     -0.048372
      5.46890      8.63580     17.68688        -0.042621     -0.090300      0.113259
      8.55731      1.71024     18.12301         0.387974     -0.726030     -0.170952
      5.29182     14.29487     16.76132         0.062450      0.110979      0.114613
     14.34993     11.50137     12.08965         0.128011     -0.151794      0.007232
      2.14869     10.43515     18.62425        -0.331644      0.168941     -0.569494
     13.42471     12.89731     18.82469        -0.042563     -0.365388      0.212457
      8.50288      3.50468     11.85868         0.524922     -0.095257      0.428179
 -----------------------------------------------------------------------------------
    total drift:                                0.003144     -0.012621     -0.003197


--------------------------------------------------------------------------------------------------------



  FREE ENERGIE OF THE ION-ELECTRON SYSTEM (eV)
  ---------------------------------------------------
  free  energy   TOTEN  =      -986.34328121 eV

  energy  without entropy=     -986.11906135  energy(sigma->0) =     -986.23117128



--------------------------------------------------------------------------------------------------------


    POTLOK:  cpu time      4.1852: real time      4.1881


--------------------------------------------------------------------------------------------------------


     LOOP+:  cpu time   7778.2595: real time   7783.0418
    4ORBIT:  cpu time      0.0000: real time      0.0000



 total charge

# of ion       s       p       d       tot
------------------------------------------
    1        0.566   0.015   0.000   0.582
    2        0.561   0.016   0.000   0.577
    3        0.592   0.031   0.000   0.623
    4        0.576   0.016   0.000   0.592
    5        0.614   0.035   0.000   0.649
    6        0.572   0.017   0.000   0.589
    7        0.579   0.030   0.000   0.609
    8        0.574   0.017   0.000   0.591
    9        0.570   0.016   0.000   0.586
   10        0.554   0.016   0.000   0.570
   11        0.585   0.028   0.000   0.613
   12        0.550   0.018   0.000   0.567
   13        0.558   0.016   0.000   0.574
   14        0.597   0.032   0.000   0.629
   15        0.615   0.034   0.000   0.649
   16        0.566   0.029   0.000   0.594
   17        0.567   0.017   0.000   0.583
   18        0.559   0.017   0.000   0.575
   19        0.564   0.016   0.000   0.580
   20        0.618   0.033   0.000   0.652
   21        0.563   0.016   0.000   0.579
   22        0.598   0.029   0.000   0.626
   23        0.566   0.015   0.000   0.581
   24        0.618   0.037   0.000   0.655
   25        0.563   0.015   0.000   0.578
   26        0.828   0.796   0.000   1.624
   27        0.925   0.631   0.000   1.556
   28        0.750   0.925   0.000   1.675
   29        0.756   0.906   0.000   1.662
   30        0.754   0.892   0.000   1.646
   31        0.772   0.924   0.000   1.696
   32        0.767   0.866   0.000   1.633
   33        0.827   0.823   0.000   1.651
   34        0.744   0.942   0.000   1.687
   35        0.861   0.769   0.000   1.630
   36        0.731   0.914   0.000   1.645
   37        0.763   0.934   0.000   1.697
   38        0.751   0.904   0.000   1.656
   39        0.767   0.931   0.000   1.698
   40        0.754   0.927   0.000   1.681
   41        0.773   0.952   0.000   1.726
   42        0.770   0.925   0.000   1.695
   43        0.756   0.929   0.000   1.685
   44        0.758   0.962   0.000   1.721
   45        0.760   0.920   0.000   1.680
   46        0.777   0.868   0.000   1.645
   47        0.750   0.898   0.000   1.648
   48        0.785   0.909   0.000   1.694
   49        0.752   0.920   0.000   1.671
   50        0.781   0.910   0.000   1.691
   51        0.736   0.976   0.000   1.713
   52        0.753   0.987   0.000   1.739
   53        0.756   0.915   0.000   1.671
   54        0.758   0.988   0.000   1.746
   55        0.827   0.810   0.000   1.637
   56        0.753   0.969   0.000   1.722
   57        0.768   0.909   0.000   1.677
   58        0.755   0.938   0.000   1.693
   59        0.759   0.913   0.000   1.672
   60        0.762   0.914   0.000   1.676
   61        0.748   0.931   0.000   1.680
   62        0.739   0.964   0.000   1.703
   63        0.760   0.901   0.000   1.662
   64        0.802   0.845   0.000   1.647
   65        0.767   0.959   0.000   1.726
   66        0.871   0.759   0.000   1.630
   67        0.788   0.904   0.000   1.692
   68        0.749   0.964   0.000   1.713
   69        0.749   0.938   0.000   1.687
   70        0.759   0.953   0.000   1.713
   71        0.762   0.979   0.000   1.742
   72        0.809   0.856   0.000   1.664
   73        0.790   0.896   0.000   1.686
   74        0.755   0.891   0.000   1.646
   75        0.758   0.967   0.000   1.724
   76        0.778   0.907   0.000   1.686
   77        0.755   0.904   0.000   1.659
   78        0.748   0.940   0.000   1.688
   79        0.756   0.963   0.000   1.719
   80        0.780   0.876   0.000   1.656
   81        0.751   0.920   0.000   1.671
   82        0.744   0.987   0.000   1.731
   83        0.757   0.973   0.000   1.730
   84        0.747   0.914   0.000   1.660
   85        0.752   0.982   0.000   1.734
   86        0.759   0.915   0.000   1.674
   87        0.778   0.850   0.000   1.627
   88        0.751   0.926   0.000   1.677
   89        0.791   0.874   0.000   1.665
   90        0.822   0.813   0.000   1.636
   91        0.754   0.951   0.000   1.705
   92        0.756   0.961   0.000   1.717
   93        0.764   0.933   0.000   1.697
   94        0.766   0.902   0.000   1.668
   95        0.749   0.971   0.000   1.720
   96        0.756   0.938   0.000   1.694
   97        0.779   0.909   0.000   1.688
   98        0.766   0.978   0.000   1.744
   99        0.751   0.972   0.000   1.723
  100        0.786   0.898   0.000   1.684
  101        0.779   0.904   0.000   1.683
  102        0.760   0.956   0.000   1.716
  103        0.785   0.890   0.000   1.674
  104        0.830   0.779   0.000   1.608
  105        0.756   0.952   0.000   1.708
  106        0.808   0.865   0.000   1.673
  107        0.751   0.963   0.000   1.714
  108        0.794   0.846   0.000   1.641
  109        0.755   0.951   0.000   1.706
  110        0.776   0.863   0.000   1.638
  111        0.755   0.974   0.000   1.729
  112        0.754   0.931   0.000   1.685
  113        0.761   0.904   0.000   1.665
  114        0.758   0.971   0.000   1.729
  115        0.763   0.918   0.000   1.681
  116        0.763   0.944   0.000   1.707
  117        0.753   0.924   0.000   1.677
  118        0.784   0.851   0.000   1.635
  119        0.797   0.860   0.000   1.657
  120        0.785   0.882   0.000   1.667
  121        0.769   0.932   0.000   1.701
--------------------------------------------------
tot         88.425  88.078   0.000 176.504


 total amount of memory used by VASP MPI-rank0   402502. kBytes
=======================================================================

   base                                    :      30000. kBytes
   nonl-proj                               :      89929. kBytes
   fftplans                                :     114289. kBytes
   grid                                    :      88184. kBytes
   one-center                              :         24. kBytes
   wavefun                                 :      80076. kBytes

  
  
 General timing and accounting informations for this job:
 ========================================================
  
                  Total CPU time used (sec):     7941.625
                            User time (sec):     7080.756
                          System time (sec):      860.868
                         Elapsed time (sec):     7946.584
  
                   Maximum memory used (kb):      651400.
                   Average memory used (kb):          N/A
  
                          Minor page faults:     10494507
                          Major page faults:         1200
                 Voluntary context switches:         2567
