 vasp.6.5.0 16Dec24 (build Jan 20 2025 08:32:48) complex                         
 executed on        HPECrayEX_GCC date 2025.07.28  19:03:05
 running  128 mpi-ranks, with    1 threads/rank, on    1 nodes
 distrk:  each k-point on  128 cores,    1 groups
 distr:  one band on NCORE=  16 cores,    8 groups


--------------------------------------------------------------------------------------------------------


 INCAR:
   SYSTEM = a-Si SPC
   NCORE = 16
   ISTART = 1
   ICHARG = 1
   ISPIN = 1
   ISYM = 1
   EDIFF = 1E-6
   NELM = 150
   EDIFFG = -0.01
   NSW = 0
   ISIF = 2
   IBRION = -1
   PREC = Accurate
   ENCUT = 1200
   KSPACING = 0.23
   KGAMMA = .TRUE.
   METAGGA = SCAN
   LASPH = .TRUE.
   LDIAG = .FALSE.
   LMIXTAU = .TRUE.
   ADDGRID = .TRUE.
   ALGO = Normal
   ISMEAR = 0
   SIGMA = 0.1
   LORBIT = 11
   NEDOS = 2000
   LWAVE = .FALSE.
   LCHARG = .FALSE.

 POTCAR:    PAW_PBE H 15Jun2001                   
 POTCAR:    PAW_PBE Si 05Jan2001                  
 POTCAR:    PAW_PBE H 15Jun2001                   
   SHA256 =  030f79b5d3ab3cf0e668861823c8fb652ff669f3e15e46930bd03bfd63a607b6 H/POTCAR              
   COPYR  = (c) Copyright 15Jun2001 Georg Kresse                                                    
   COPYR  = This file is part of the software VASP. Any use, copying, and all other rights are regul
   COPYR  = If you do not have a valid VASP license, you may not use, copy or distribute this file. 
   VRHFIN =H: ultrasoft test                                                                        
   LEXCH  = PE                                                                                      
   EATOM  =    12.4884 eV,    0.9179 Ry                                                             
                                                                                                    
   TITEL  = PAW_PBE H 15Jun2001                                                                     
   LULTRA =        F    use ultrasoft PP ?                                                          
   IUNSCR =        0    unscreen: 0-lin 1-nonlin 2-no                                               
   RPACOR =    0.000    partial core radius                                                         
   POMASS =    1.000; ZVAL   =    1.000    mass and valenz                                          
   RCORE  =    1.100    outmost cutoff radius                                                       
   RWIGS  =    0.700; RWIGS  =    0.370    wigner-seitz radius (au A)                               
   ENMAX  =  250.000; ENMIN  =  200.000 eV                                                          
   RCLOC  =    0.701    cutoff for local pot                                                        
   LCOR   =        T    correct aug charges                                                         
   LPAW   =        T    paw PP                                                                      
   EAUG   =  400.000                                                                                
   RMAX   =    1.123    core radius for proj-oper                                                   
   RAUG   =    1.200    factor for augmentation sphere                                              
   RDEP   =    1.112    radius for radial grids                                                     
   RDEPT  =    0.926    core radius for aug-charge                                                  
                                                                                                    
   Atomic configuration                                                                             
    2 entries                                                                                       
     n  l   j            E        occ.                                                              
     1  0  0.50        -6.4927   1.0000                                                             
     2  1  0.50        -3.4015   0.0000                                                             
   Description                                                                                      
     l       E           TYP  RCUT    TYP  RCUT                                                     
     0     -6.4927494     23  1.100                                                                 
     0      6.8029130     23  1.100                                                                 
     1     -4.0817478     23  1.100                                                                 
  local pseudopotential read in
  atomic valenz-charges read in
  non local Contribution for L=           0  read in
    real space projection operators read in
  non local Contribution for L=           0  read in
    real space projection operators read in
  non local Contribution for L=           1  read in
    real space projection operators read in
    PAW grid and wavefunctions read in

   number of l-projection  operators is LMAX  =           3
   number of lm-projection operators is LMMAX =           5

 POTCAR:    PAW_PBE Si 05Jan2001                  
   SHA256 =  79d9987ad8750f624c4d6acb2a16d13abf6a777132adc04dc6c8399be72b42bb Si/POTCAR             
   COPYR  = (c) Copyright 05Jan2001 Georg Kresse                                                    
   COPYR  = This file is part of the software VASP. Any use, copying, and all other rights are regul
   COPYR  = If you do not have a valid VASP license, you may not use, copy or distribute this file. 
   VRHFIN =Si: s2p2                                                                                 
   LEXCH  = PE                                                                                      
   EATOM  =   103.0669 eV,    7.5752 Ry                                                             
                                                                                                    
   TITEL  = PAW_PBE Si 05Jan2001                                                                    
   LULTRA =        F    use ultrasoft PP ?                                                          
   IUNSCR =        1    unscreen: 0-lin 1-nonlin 2-no                                               
   RPACOR =    1.500    partial core radius                                                         
   POMASS =   28.085; ZVAL   =    4.000    mass and valenz                                          
   RCORE  =    1.900    outmost cutoff radius                                                       
   RWIGS  =    2.480; RWIGS  =    1.312    wigner-seitz radius (au A)                               
   ENMAX  =  245.345; ENMIN  =  184.009 eV                                                          
   ICORE  =        2    local potential                                                             
   LCOR   =        T    correct aug charges                                                         
   LPAW   =        T    paw PP                                                                      
   EAUG   =  322.069                                                                                
   DEXC   =    0.000                                                                                
   RMAX   =    1.950    core radius for proj-oper                                                   
   RAUG   =    1.300    factor for augmentation sphere                                              
   RDEP   =    1.993    radius for radial grids                                                     
   RDEPT  =    1.837    core radius for aug-charge                                                  
                                                                                                    
   Atomic configuration                                                                             
    6 entries                                                                                       
     n  l   j            E        occ.                                                              
     1  0  0.50     -1785.8828   2.0000                                                             
     2  0  0.50      -139.4969   2.0000                                                             
     2  1  1.50       -95.5546   6.0000                                                             
     3  0  0.50       -10.8127   2.0000                                                             
     3  1  0.50        -4.0811   2.0000                                                             
     3  2  1.50        -4.0817   0.0000                                                             
   Description                                                                                      
     l       E           TYP  RCUT    TYP  RCUT                                                     
     0    -10.8127223     23  1.900                                                                 
     0     -7.6451159     23  1.900                                                                 
     1     -4.0811372     23  1.900                                                                 
     1      2.4879257     23  1.900                                                                 
     2     -4.0817478      7  1.900                                                                 
  local pseudopotential read in
  partial core-charges read in
  partial kinetic energy density read in
  atomic valenz-charges read in
  non local Contribution for L=           0  read in
    real space projection operators read in
  non local Contribution for L=           0  read in
    real space projection operators read in
  non local Contribution for L=           1  read in
    real space projection operators read in
  non local Contribution for L=           1  read in
    real space projection operators read in
    PAW grid and wavefunctions read in

   number of l-projection  operators is LMAX  =           4
   number of lm-projection operators is LMMAX =           8

 -----------------------------------------------------------------------------
|                                                                             |
|               ----> ADVICE to this user running VASP <----                  |
|                                                                             |
|     You have a (more or less) 'large supercell' and for larger cells it     |
|     might be more efficient to use real-space projection operators.         |
|     Therefore, try LREAL= Auto in the INCAR file.                           |
|     Mind: For very accurate calculation, you might also keep the            |
|     reciprocal projection scheme (i.e. LREAL=.FALSE.).                      |
|                                                                             |
 -----------------------------------------------------------------------------

 -----------------------------------------------------------------------------
|                                                                             |
|               ----> ADVICE to this user running VASP <----                  |
|                                                                             |
|     You enforced a specific xc type in the INCAR file but a different       |
|     type was found in the POTCAR file.                                      |
|     I HOPE YOU KNOW WHAT YOU ARE DOING!                                     |
|                                                                             |
 -----------------------------------------------------------------------------

  PAW_PBE H 15Jun2001                   :
 energy of atom  1       EATOM=  -12.4884
 kinetic energy error for atom=    0.0000 (will be added to EATOM!!)
  PAW_PBE Si 05Jan2001                  :
 energy of atom  2       EATOM= -103.0669
 kinetic energy error for atom=    0.0001 (will be added to EATOM!!)


 POSCAR:  H Si
  positions in cartesian coordinates
  No initial velocities read in


 exchange-correlation table for SCAN
   RHO(1)=    0.500       N(1)  =     2000
   RHO(2)=  100.500       N(2)  =     4000



--------------------------------------------------------------------------------------------------------


 ion  position               nearest neighbor table
   1  0.789  0.260  0.482-  45 1.50
   2  0.277  0.548  0.516-  34 1.64  67 1.72
   3  0.702  0.204  0.538-  40 1.50
   4  0.557  0.961  0.581-  46 1.62  52 1.72
   5  0.398  0.498  0.365-  55 1.48
   6  0.060  0.095  0.562-  39 2.31  75 2.32   9 2.37  43 2.37  16 3.09
   7  0.578  0.622  0.525-  50 2.33  73 2.34  15 2.35  54 2.44
   8  0.325  0.279  0.464-  70 2.36  47 2.37  71 2.39  81 2.44
   9  0.905  0.144  0.554-   6 2.37  16 2.41  19 2.42  48 2.54
  10  0.804  0.512  0.513-  15 2.35  36 2.36  66 2.36  26 2.36
  11  0.129  0.348  0.527-  75 2.28  78 2.29  70 2.31  60 2.37  22 2.75
  12  0.739  0.882  0.594-  35 2.29  46 2.32  48 2.37  52 2.80  42 3.08
  13  0.059  0.554  0.534-  32 2.28  66 2.28  60 2.30  34 2.37
  14  0.150  0.762  0.599-  30 2.29  32 2.32  28 2.34  62 2.37
  15  0.737  0.655  0.531-  20 2.34  10 2.35   7 2.35  35 2.37
  16  0.939  0.110  0.468-  29 2.35  43 2.37  64 2.38   9 2.41   6 3.09
  17  0.702  0.058  0.409-  68 2.28  63 2.34  29 2.37
  18  0.444  0.990  0.390-  53 2.27  63 2.29  31 2.32
  19  0.918  0.304  0.577-  78 2.34  26 2.35   9 2.42  22 2.54
  20  0.736  0.764  0.466-  76 2.33  15 2.34  79 2.35  33 2.36
  21  0.078  0.760  0.460-  44 2.29  32 2.31  58 2.31  56 2.32
  22  0.070  0.323  0.623-  60 2.39  75 2.42  19 2.54  11 2.75
  23  0.348  0.939  0.588-  28 2.34  25 2.36  65 2.38
  24  0.299  0.737  0.404-  51 2.28  72 2.33  58 2.35
  25  0.366  0.798  0.546-  73 2.32  23 2.36  30 2.38  72 2.39
  26  0.796  0.410  0.581-  57 2.30  19 2.35  10 2.36
  27  0.413  0.295  0.597-  61 2.24  69 2.34  81 2.35
  28  0.189  0.914  0.579-  39 2.33  23 2.34  14 2.34  56 2.38  62 2.74
  29  0.812  0.011  0.469-  16 2.35  79 2.35  17 2.37  48 2.40
  30  0.292  0.694  0.602-  14 2.29  67 2.36  25 2.38
  31  0.332  0.995  0.451-  37 2.31  18 2.32  72 2.33  65 2.39
  32  0.047  0.710  0.540-  13 2.28  42 2.31  21 2.31  14 2.32  62 3.05
  33  0.601  0.851  0.480-  53 2.30  73 2.35  20 2.36  52 2.37
  34  0.186  0.539  0.480-   2 1.64  58 2.28  70 2.33  13 2.37  67 2.99
  35  0.802  0.738  0.598-  12 2.29  42 2.32  15 2.37
  36  0.713  0.435  0.453-  77 2.35  10 2.36  45 2.38  80 2.41
  37  0.199  0.067  0.426-  71 2.24  43 2.29  31 2.31
  38  0.018  0.562  0.403-  74 2.29  66 2.41  58 2.54
  39  0.092  0.001  0.630-  62 2.31   6 2.31  28 2.33
  40  0.603  0.231  0.540-   3 1.50  69 2.32  41 2.35  80 2.37
  41  0.527  0.102  0.507-  52 2.33  40 2.35  63 2.35  65 2.36
  42  0.923  0.805  0.555-  32 2.31  35 2.32  62 2.39  79 2.45  12 3.08
  43  0.082  0.036  0.481-  37 2.29  56 2.35  16 2.37   6 2.37
  44  0.964  0.817  0.410-  74 2.28  21 2.29  79 2.32
  45  0.802  0.303  0.432-   1 1.50  68 2.29  36 2.38  64 2.40
  46  0.582  0.863  0.606-   4 1.62  12 2.32  73 2.37  52 2.75
  47  0.468  0.339  0.437-  55 2.32  80 2.34  49 2.36   8 2.37
  48  0.779  0.023  0.556-  12 2.37  29 2.40  52 2.41   9 2.54
  49  0.548  0.239  0.383-  68 2.28  63 2.32  47 2.36
  50  0.546  0.478  0.559-  61 2.29   7 2.33  57 2.35  80 2.38
  51  0.455  0.717  0.406-  53 2.25  24 2.28  54 2.31
  52  0.625  0.983  0.530-   4 1.72  41 2.33  33 2.37  48 2.41  46 2.75  12 2.80
  53  0.520  0.857  0.407-  51 2.25  18 2.27  33 2.30
  54  0.536  0.594  0.438-  51 2.31  55 2.32  77 2.34   7 2.44
  55  0.422  0.489  0.419-   5 1.48  47 2.32  54 2.32
  56  0.146  0.890  0.495-  21 2.32  43 2.35  72 2.36  28 2.38
  57  0.648  0.397  0.611-  26 2.30  50 2.35  69 2.37
  58  0.166  0.650  0.421-  34 2.28  21 2.31  24 2.35  38 2.54
  59  0.108  0.311  0.396-  71 2.32  70 2.37  64 2.46
  60  0.135  0.461  0.590-  13 2.30  11 2.37  67 2.38  22 2.39
  61  0.405  0.448  0.594-  27 2.24  67 2.29  50 2.29
  62  0.025  0.859  0.619-  39 2.31  14 2.37  42 2.39  28 2.74  32 3.05
  63  0.547  0.095  0.421-  18 2.29  49 2.32  17 2.34  41 2.35  68 2.93
  64  0.961  0.257  0.431-  78 2.31  16 2.38  45 2.40  59 2.46
  65  0.375  0.059  0.530-  41 2.36  81 2.36  23 2.38  31 2.39
  66  0.953  0.501  0.478-  13 2.28  78 2.33  10 2.36  38 2.41
  67  0.278  0.538  0.579-   2 1.72  61 2.29  30 2.36  60 2.38  34 2.99
  68  0.702  0.211  0.389-  49 2.28  17 2.28  45 2.29  63 2.93
  69  0.563  0.260  0.622-  40 2.32  27 2.34  57 2.37
  70  0.204  0.387  0.454-  11 2.31  34 2.33   8 2.36  59 2.37  71 2.96
  71  0.232  0.210  0.401-  37 2.24  59 2.32   8 2.39  70 2.96
  72  0.294  0.843  0.470-  31 2.33  24 2.33  56 2.36  25 2.39
  73  0.523  0.769  0.542-  25 2.32   7 2.34  33 2.35  46 2.37
  74  0.908  0.674  0.396-  76 2.24  44 2.28  38 2.29
  75  0.159  0.219  0.572-  11 2.28   6 2.32  81 2.39  22 2.42
  76  0.754  0.667  0.398-  74 2.24  77 2.30  20 2.33
  77  0.661  0.539  0.392-  76 2.30  54 2.34  36 2.35
  78  0.979  0.349  0.500-  11 2.29  64 2.31  66 2.33  19 2.34
  79  0.866  0.859  0.474-  44 2.32  20 2.35  29 2.35  42 2.45
  80  0.583  0.371  0.495-  47 2.34  40 2.37  50 2.38  36 2.41
  81  0.316  0.207  0.546-  27 2.35  65 2.36  75 2.39   8 2.44

  LATTYP: Found a simple tetragonal cell.
 ALAT       =    14.5307357155
 C/A-ratio  =     1.8505956564
  
  Lattice vectors:
  
 A1 = (  14.5307357155,   0.0000000000,   0.0000000000)
 A2 = (   0.0000000000,  14.5307357155,   0.0000000000)
 A3 = (   0.0000000000,   0.0000000000,  26.8905164000)


Analysis of symmetry for initial positions (statically):
=====================================================================
 Subroutine PRICEL returns:
 Original cell was already a primitive cell.
 

 Routine SETGRP: Setting up the symmetry group for a 
 simple tetragonal supercell.


 Subroutine GETGRP returns: Found  1 space group operations
 (whereof  1 operations were pure point group operations)
 out of a pool of 16 trial point group operations.


The static configuration has the point symmetry C_1 .


Analysis of symmetry for dynamics (positions and initial velocities):
=====================================================================
 Subroutine PRICEL returns:
 Original cell was already a primitive cell.
 

 Routine SETGRP: Setting up the symmetry group for a 
 simple tetragonal supercell.


 Subroutine GETGRP returns: Found  1 space group operations
 (whereof  1 operations were pure point group operations)
 out of a pool of 16 trial point group operations.


The dynamic configuration has the point symmetry C_1 .


 Subroutine INISYM returns: Found  1 space group operations
 (whereof  1 operations are pure point group operations),
 and found     1 'primitive' translations


----------------------------------------------------------------------------------------

                                     Primitive cell                                     

  volume of cell :    5677.7250

  direct lattice vectors                    reciprocal lattice vectors
    14.530735716  0.000000000  0.000000000     0.068819640  0.000000000  0.000000000
     0.000000000 14.530735716  0.000000000     0.000000000  0.068819640  0.000000000
     0.000000000  0.000000000 26.890516400     0.000000000  0.000000000  0.037187832

  length of vectors
    14.530735716 14.530735716 26.890516400     0.068819640  0.068819640  0.037187832

  position of ions in fractional coordinates (direct lattice)
     0.789090569  0.260243439  0.482448157
     0.277121489  0.547787368  0.515512795
     0.701977559  0.203748940  0.537541436
     0.557237404  0.961316871  0.581458370
     0.398136238  0.497519530  0.365400333
     0.059894426  0.094795822  0.562347493
     0.578401490  0.621503995  0.524835470
     0.324547007  0.279291636  0.463634113
     0.905218660  0.144127003  0.553818721
     0.803682131  0.511919796  0.512875412
     0.128828802  0.347955442  0.526754140
     0.739273320  0.881713734  0.594131782
     0.058994933  0.553770593  0.534155294
     0.150405166  0.762082495  0.598806023
     0.736501332  0.655363678  0.530860633
     0.939137560  0.109985893  0.467976863
     0.702270400  0.057539497  0.408832374
     0.443760437  0.990382924  0.389738045
     0.918009733  0.304389428  0.577113359
     0.736155173  0.763859486  0.466410078
     0.077933845  0.760385586  0.460121490
     0.069536854  0.322924135  0.622821998
     0.347621034  0.938619832  0.588256371
     0.298785608  0.737000178  0.404219279
     0.365522480  0.797571481  0.545918596
     0.795723916  0.409810044  0.581171842
     0.412569015  0.294567167  0.597058674
     0.189470280  0.914005964  0.579394803
     0.811668171  0.010732938  0.468958215
     0.292110120  0.693744962  0.601796923
     0.331828248  0.994941807  0.451469792
     0.046793291  0.709513438  0.539811809
     0.601372225  0.850650916  0.479976834
     0.186321209  0.538747757  0.479872627
     0.802412970  0.737646922  0.598288687
     0.713426988  0.435234027  0.452837262
     0.198602587  0.067136151  0.425952447
     0.018133126  0.561914877  0.402701690
     0.092151386  0.001225176  0.629536480
     0.602532461  0.231174006  0.539696896
     0.526520363  0.101847279  0.507463166
     0.923315156  0.805140534  0.555199907
     0.082183747  0.035987031  0.480852811
     0.964146385  0.817486077  0.409870302
     0.802034884  0.303071204  0.432143125
     0.582438104  0.863405295  0.606468188
     0.467968462  0.339450542  0.436729577
     0.778773373  0.023488433  0.556172591
     0.548189621  0.238684437  0.383132731
     0.546100177  0.478093119  0.559302839
     0.454555942  0.717300321  0.406272734
     0.625330642  0.982621803  0.530420392
     0.520302435  0.857466988  0.406689403
     0.536090416  0.594219496  0.438342326
     0.422274441  0.488501829  0.418804645
     0.145791438  0.889950350  0.495149644
     0.648108098  0.396865737  0.611116854
     0.166046961  0.649524798  0.420751641
     0.107683848  0.310971144  0.395958376
     0.134606657  0.461197850  0.590234950
     0.405109558  0.448390689  0.593999753
     0.024761543  0.858767633  0.618809826
     0.547260327  0.094910180  0.420798219
     0.960627483  0.257051481  0.431092639
     0.375259281  0.058818455  0.529843654
     0.952760728  0.501449439  0.478446278
     0.278281758  0.537638389  0.579327090
     0.702212341  0.210602662  0.389460623
     0.562692360  0.259655876  0.621915331
     0.204036508  0.386635587  0.453976663
     0.231878105  0.210460953  0.400532986
     0.293876431  0.842611239  0.469572377
     0.522568658  0.768998076  0.542079427
     0.907954748  0.673535495  0.395574644
     0.159154338  0.218836099  0.572193376
     0.753778293  0.666889016  0.398088759
     0.661000975  0.539080406  0.392014429
     0.979134757  0.348579060  0.500405361
     0.866119999  0.858547751  0.474463698
     0.582743256  0.370659962  0.495264758
     0.315721990  0.207476196  0.545508544

  ion indices of the primitive-cell ions
   primitive index   ion index
                 1           1
                 2           2
                 3           3
                 4           4
                 5           5
                 6           6
                 7           7
                 8           8
                 9           9
                10          10
                11          11
                12          12
                13          13
                14          14
                15          15
                16          16
                17          17
                18          18
                19          19
                20          20
                21          21
                22          22
                23          23
                24          24
                25          25
                26          26
                27          27
                28          28
                29          29
                30          30
                31          31
                32          32
                33          33
                34          34
                35          35
                36          36
                37          37
                38          38
                39          39
                40          40
                41          41
                42          42
                43          43
                44          44
                45          45
                46          46
                47          47
                48          48
                49          49
                50          50
                51          51
                52          52
                53          53
                54          54
                55          55
                56          56
                57          57
                58          58
                59          59
                60          60
                61          61
                62          62
                63          63
                64          64
                65          65
                66          66
                67          67
                68          68
                69          69
                70          70
                71          71
                72          72
                73          73
                74          74
                75          75
                76          76
                77          77
                78          78
                79          79
                80          80
                81          81

----------------------------------------------------------------------------------------


 -----------------------------------------------------------------------------
|                                                                             |
|           W    W    AA    RRRRR   N    N  II  N    N   GGGG   !!!           |
|           W    W   A  A   R    R  NN   N  II  NN   N  G    G  !!!           |
|           W    W  A    A  R    R  N N  N  II  N N  N  G       !!!           |
|           W WW W  AAAAAA  RRRRR   N  N N  II  N  N N  G  GGG   !            |
|           WW  WW  A    A  R   R   N   NN  II  N   NN  G    G                |
|           W    W  A    A  R    R  N    N  II  N    N   GGGG   !!!           |
|                                                                             |
|     The requested file  could not be found or opened for reading            |
|     k-point information. Automatic k-point generation is used as a          |
|     fallback, which may lead to unwanted results.                           |
|                                                                             |
 -----------------------------------------------------------------------------



Automatic generation of k-mesh.
 Grid dimensions derived from KSPACING:
 generate k-points for:    2    2    2

 Generating k-lattice:

  Cartesian coordinates                     Fractional coordinates (reciprocal lattice)
     0.034409820  0.000000000  0.000000000     0.500000000  0.000000000  0.000000000
     0.000000000  0.034409820  0.000000000     0.000000000  0.500000000  0.000000000
     0.000000000  0.000000000  0.018593916     0.000000000  0.000000000  0.500000000

  Length of vectors
     0.034409820  0.034409820  0.018593916

  Shift w.r.t. Gamma in fractional coordinates (k-lattice)
     0.000000000  0.000000000  0.000000000

 
 Subroutine IBZKPT returns following result:
 ===========================================
 
 Found      8 irreducible k-points:
 
 Following reciprocal coordinates:
            Coordinates               Weight
  0.000000  0.000000  0.000000      1.000000
  0.500000  0.000000  0.000000      1.000000
  0.000000  0.500000  0.000000      1.000000
  0.500000  0.500000  0.000000      1.000000
  0.000000  0.000000  0.500000      1.000000
  0.500000  0.000000  0.500000      1.000000
  0.000000  0.500000  0.500000      1.000000
  0.500000  0.500000  0.500000      1.000000
 
 Following cartesian coordinates:
            Coordinates               Weight
  0.000000  0.000000  0.000000      1.000000
  0.034410  0.000000  0.000000      1.000000
  0.000000  0.034410  0.000000      1.000000
  0.034410  0.034410  0.000000      1.000000
  0.000000  0.000000  0.018594      1.000000
  0.034410  0.000000  0.018594      1.000000
  0.000000  0.034410  0.018594      1.000000
  0.034410  0.034410  0.018594      1.000000
 


--------------------------------------------------------------------------------------------------------




 Dimension of arrays:
   k-points           NKPTS =      8   k-points in BZ     NKDIM =      8   number of bands    NBANDS=    200
   number of dos      NEDOS =   2000   number of ions     NIONS =     81
   non local maximal  LDIM  =      4   non local SUM 2l+1 LMDIM =      8
   total plane-waves  NPLWV = ******
   max r-space proj   IRMAX =      1   max aug-charges    IRDMAX= 425635
   dimension x,y,z NGX =   168 NGY =  168 NGZ =  320
   dimension x,y,z NGXF=   336 NGYF=  336 NGZF=  640
   support grid    NGXF=   672 NGYF=  672 NGZF= 1280
   ions per type =               5  76
   NGX,Y,Z   is equivalent  to a cutoff of  19.22, 19.22, 19.78 a.u.
   NGXF,Y,Z  is equivalent  to a cutoff of  38.44, 38.44, 39.57 a.u.

 SYSTEM =  a-Si SPC                                
 POSCAR =   H Si                                   

 Startparameter for this run:
   NWRITE =      2    write-flag & timer
   PREC   = accura    normal or accurate (medium, high low for compatibility)
   ISTART =      1    job   : 0-new  1-cont  2-samecut
   ICHARG =      1    charge: 1-file 2-atom 10-const
   ISPIN  =      1    spin polarized calculation?
   LNONCOLLINEAR =      F non collinear calculations
   LSORBIT =      F    spin-orbit coupling
   INIWAV =      1    electr: 0-lowe 1-rand  2-diag
   LASPH  =      T    aspherical Exc in radial PAW
 Electronic Relaxation 1
   ENCUT  = 1200.0 eV  88.20 Ry    9.39 a.u.  41.04 41.04 75.95*2*pi/ulx,y,z
   ENINI  = 1200.0     initial cutoff
   ENAUG  =  400.0 eV  augmentation charge cutoff
   NELM   =    150;   NELMIN=  2; NELMDL=  0     # of ELM steps 
   EDIFF  = 0.1E-05   stopping-criterion for ELM
   LREAL  =      F    real-space projection
   NLSPLINE    = F    spline interpolate recip. space projectors
   LCOMPAT=      F    compatible to vasp.4.4
   GGA_COMPAT  = T    GGA compatible to vasp.4.4-vasp.4.6
   LMAXPAW     = -100 max onsite density
   LMAXMIX     =    2 max onsite mixed and CHGCAR
   VOSKOWN=      0    Vosko Wilk Nusair interpolation
   ROPT   =    0.00000   0.00000
 Ionic relaxation
   EDIFFG = -.1E-01   stopping-criterion for IOM
   NSW    =      0    number of steps for IOM
   NBLOCK =      1;   KBLOCK =      1    inner block; outer block 
   IBRION =     -1    ionic relax: 0-MD 1-quasi-New 2-CG
   NFREE  =      0    steps in history (QN), initial steepest desc. (CG)
   ISIF   =      2    stress and relaxation
   IWAVPR =     10    prediction:  0-non 1-charg 2-wave 3-comb
   ISYM   =      1    0-nonsym 1-usesym 2-fastsym
   LCORR  =      T    Harris-Foulkes like correction to forces

   POTIM  = 0.5000    time-step for ionic-motion
   TEIN   =    0.0    initial temperature
   TEBEG  =    0.0;   TEEND  =   0.0 temperature during run
   SMASS  =  -3.00    Nose mass-parameter (am)
   estimated Nose-frequenzy (Omega)   =  0.10E-29 period in steps = 0.13E+47 mass=  -0.483E-26a.u.
   SCALEE = 1.0000    scale energy and forces
   NPACO  =    256;   APACO  = 10.0  distance and # of slots for P.C.
   PSTRESS=    0.0 pullay stress

  Mass of Ions in am
   POMASS =   1.00 28.09
  Ionic Valenz
   ZVAL   =   1.00  4.00
  Atomic Wigner-Seitz radii
   RWIGS  =  -1.00 -1.00
  virtual crystal weights 
   VCA    =   1.00  1.00
   NELECT =     309.0000    total number of electrons
   NUPDOWN=      -1.0000    fix difference up-down

 DOS related values:
   EMIN   =  10.00;   EMAX   =-10.00  energy-range for DOS
   EFERMI =   0.00;   METHOD = LEGACY      
   ISMEAR =     0;   SIGMA  =   0.10  broadening in eV -4-tet -1-fermi 0-gaus
   EFERMI_NEDOS =   21; number of points for ismear=-14 and -15

 Electronic relaxation 2 (details)
   IALGO  =     38    algorithm
   LDIAG  =      F    sub-space diagonalisation (order eigenvalues)
   LSUBROT=      F    optimize rotation matrix (better conditioning)
   TURBO    =      0    0=normal 1=particle mesh
   IRESTART =      0    0=no restart 2=restart with 2 vectors
   NREBOOT  =      0    no. of reboots
   NMIN     =      0    reboot dimension
   EREF     =   0.00    reference energy to select bands
   IMIX   =      4    mixing-type and parameters
     AMIX     =   0.40;   BMIX     =  1.00
     AMIX_MAG =   1.60;   BMIX_MAG =  1.00
     AMIN     =   0.10
     WC   =   100.;   INIMIX=   1;  MIXPRE=   1;  MAXMIX= -45

 Intra band minimization:
   WEIMIN = 0.0000     energy-eigenvalue tresh-hold
   EBREAK =  0.13E-08  absolut break condition
   DEPER  =   0.30     relativ break condition  

   TIME   =   0.40     timestep for ELM

  volume/ion in A,a.u.               =      70.10       473.03
  Fermi-wavevector in a.u.,A,eV,Ry     =   0.620397  1.172380  5.236776  0.384892
  Thomas-Fermi vector in A             =   1.679533

 Write flags
   LWAVE        =      F    write WAVECAR
   LDOWNSAMPLE  =      F    k-point downsampling of WAVECAR
   LCHARG       =      F    write CHGCAR
   LVTOT        =      F    write LOCPOT, total local potential
   LVHAR        =      F    write LOCPOT, Hartree potential only
   WRT_POTENTIAL= false  ! write potential to hdf5 file
   LELF         =      F    write electronic localiz. function (ELF)
   LORBIT       =     11    0 simple, 1 ext, 2 COOP (PROOUT), +10 PAW based schemes


 Python interface
   PLUGINS active      =      F    recompile with -DPLUGINS to activate

 Dipole corrections
   LMONO      =      F    monopole corrections only (constant potential shift)
   LDIPOL     =      F    correct potential (dipole corrections)
   IDIPOL     =      0    1-x, 2-y, 3-z, 4-all directions 
   EPSILON    =  1.0000000 bulk dielectric constant
   LVACPOTAV  =      F  vacuum potentials using an averaging scheme for the charge density
   VACPOTFLAT =  0.1000000 required flatness to determine vacuum potential

Coulomb truncation method
  LTRUNCATE          =      F  Coulomb kernel truncation to be used
  IDIMENSIONALITY    =      3  Dimensionality of cutoff (0 molecules / 2 surfaces)
  ISURFACE           =     -1  Direction of surface normal
  LCOARSEN           =      F  Coarsen the charge grid before padding, preferred


 Exchange correlation treatment:
   METAGGA = SCAN    functional components
   XC_C    = 1    coefficients multiplying the functional components
   LIBXC   =     F    Libxc                    
   VOSKOWN =     0    Vosko Wilk Nusair interpolation
   LHFCALC =     F    Hartree Fock is set to
   LHFONE  =     F    Hartree Fock one center treatment
   AEXX    =    0.0000 exact exchange contribution

 Parameters of functionals:
   SCAN:
     P1 =  0.000000E+00
     P2 =  0.000000E+00
     P3 =  0.000000E+00

 Accuracy and mixing parameters for tau-dependent meta-GGA functionals:
   LMAXTAU = 6
   LMIXTAU = T

 Van der Waals corrections
   IVDW    =     0    specifies the selected vdW correction

 Linear response parameters
   LEPSILON=     F    determine dielectric tensor
   LRPA    =     F    only Hartree local field effects (RPA)
   LNABLA  =     F    use nabla operator in PAW spheres
   LVEL    =     F    velocity operator in full k-point grid
   CSHIFT  =0.1000    complex shift for real part using Kramers Kronig
   OMEGAMAX=  -1.0    maximum frequency
   DEG_THRESHOLD= 0.2000000E-02 threshold for treating states as degnerate
   RTIME   =   -0.100 relaxation time in fs
  (WPLASMAI=    0.000 imaginary part of plasma frequency in eV, 0.658/RTIME)
   DFIELD  = 0.0000000 0.0000000 0.0000000 field for delta impulse in time

  Optional k-point grid parameters
   LKPOINTS_OPT  =     F    use optional k-point grid
   KPOINTS_OPT_MODE=     1    mode for optional k-point grid

 Orbital magnetization related:
   ORBITALMAG=     F  switch on orbital magnetization
   LCHIMAG   =     F  perturbation theory with respect to B field
   DQ        =  0.001000  dq finite difference perturbation B field
   LLRAUG    =     F  two centre corrections for induced B field
   LBONE     =     F  B-component reconstruction in AE one-centre
   LVGVCALC  =     T  calculate vGv susceptibility
   LVGVAPPL  =     F  apply vGv susceptibility instead of pGv for G=0

 Random number generation:
   RANDOM_GENERATOR = DEFAULT
   PCG_SEED         = not used


--------------------------------------------------------------------------------------------------------


 Static calculation
 charge density and potential will be updated during run
 non-spin polarized calculation
 Variant of blocked Davidson
 perform Loewdin sub-space diagonalisation
    ordering is kept fixed
    before iterative eigenvector-optimisation
 modified Broyden-mixing scheme, WC =      100.0
 initial mixing is a Kerker type mixing with AMIX =  0.4000 and BMIX =      1.0000
 Hartree-type preconditioning will be used
 using additional bands           45
 reciprocal scheme for non local part
 use partial core corrections
 calculate Harris-corrections to forces   (improved forces if not selfconsistent)
 use gradient corrections 
 use of overlap-Matrix (Vanderbilt PP)
 Gauss-broadening in eV      SIGMA  =   0.10


--------------------------------------------------------------------------------------------------------


  energy-cutoff  :     1200.00
  volume of cell :     5677.72
      direct lattice vectors                 reciprocal lattice vectors
    14.530735716  0.000000000  0.000000000     0.068819640  0.000000000  0.000000000
     0.000000000 14.530735716  0.000000000     0.000000000  0.068819640  0.000000000
     0.000000000  0.000000000 26.890516400     0.000000000  0.000000000  0.037187832

  length of vectors
    14.530735716 14.530735716 26.890516400     0.068819640  0.068819640  0.037187832



 old parameters found on file WAVECAR:
  energy-cutoff  :     1200.00
  volume of cell :     5677.72
      direct lattice vectors                 reciprocal lattice vectors
    14.530735716  0.000000000  0.000000000     0.068819640  0.000000000  0.000000000
     0.000000000 14.530735716  0.000000000     0.000000000  0.068819640  0.000000000
     0.000000000  0.000000000 26.890516400     0.000000000  0.000000000  0.037187832

  length of vectors


 k-points in units of 2pi/SCALE and weight: read from INCAR                         
   0.00000000  0.00000000  0.00000000       0.125
   0.03440982  0.00000000  0.00000000       0.125
   0.00000000  0.03440982  0.00000000       0.125
   0.03440982  0.03440982  0.00000000       0.125
   0.00000000  0.00000000  0.01859392       0.125
   0.03440982  0.00000000  0.01859392       0.125
   0.00000000  0.03440982  0.01859392       0.125
   0.03440982  0.03440982  0.01859392       0.125

 k-points in reciprocal lattice and weights: read from INCAR                         
   0.00000000  0.00000000  0.00000000       0.125
   0.50000000  0.00000000  0.00000000       0.125
   0.00000000  0.50000000  0.00000000       0.125
   0.50000000  0.50000000  0.00000000       0.125
   0.00000000  0.00000000  0.50000000       0.125
   0.50000000  0.00000000  0.50000000       0.125
   0.00000000  0.50000000  0.50000000       0.125
   0.50000000  0.50000000  0.50000000       0.125

 position of ions in fractional coordinates (direct lattice) 
   0.78909057  0.26024344  0.48244816
   0.27712149  0.54778737  0.51551280
   0.70197756  0.20374894  0.53754144
   0.55723740  0.96131687  0.58145837
   0.39813624  0.49751953  0.36540033
   0.05989443  0.09479582  0.56234749
   0.57840149  0.62150400  0.52483547
   0.32454701  0.27929164  0.46363411
   0.90521866  0.14412700  0.55381872
   0.80368213  0.51191980  0.51287541
   0.12882880  0.34795544  0.52675414
   0.73927332  0.88171373  0.59413178
   0.05899493  0.55377059  0.53415529
   0.15040517  0.76208250  0.59880602
   0.73650133  0.65536368  0.53086063
   0.93913756  0.10998589  0.46797686
   0.70227040  0.05753950  0.40883237
   0.44376044  0.99038292  0.38973804
   0.91800973  0.30438943  0.57711336
   0.73615517  0.76385949  0.46641008
   0.07793384  0.76038559  0.46012149
   0.06953685  0.32292413  0.62282200
   0.34762103  0.93861983  0.58825637
   0.29878561  0.73700018  0.40421928
   0.36552248  0.79757148  0.54591860
   0.79572392  0.40981004  0.58117184
   0.41256901  0.29456717  0.59705867
   0.18947028  0.91400596  0.57939480
   0.81166817  0.01073294  0.46895821
   0.29211012  0.69374496  0.60179692
   0.33182825  0.99494181  0.45146979
   0.04679329  0.70951344  0.53981181
   0.60137223  0.85065092  0.47997683
   0.18632121  0.53874776  0.47987263
   0.80241297  0.73764692  0.59828869
   0.71342699  0.43523403  0.45283726
   0.19860259  0.06713615  0.42595245
   0.01813313  0.56191488  0.40270169
   0.09215139  0.00122518  0.62953648
   0.60253246  0.23117401  0.53969690
   0.52652036  0.10184728  0.50746317
   0.92331516  0.80514053  0.55519991
   0.08218375  0.03598703  0.48085281
   0.96414638  0.81748608  0.40987030
   0.80203488  0.30307120  0.43214313
   0.58243810  0.86340530  0.60646819
   0.46796846  0.33945054  0.43672958
   0.77877337  0.02348843  0.55617259
   0.54818962  0.23868444  0.38313273
   0.54610018  0.47809312  0.55930284
   0.45455594  0.71730032  0.40627273
   0.62533064  0.98262180  0.53042039
   0.52030244  0.85746699  0.40668940
   0.53609042  0.59421950  0.43834233
   0.42227444  0.48850183  0.41880464
   0.14579144  0.88995035  0.49514964
   0.64810810  0.39686574  0.61111685
   0.16604696  0.64952480  0.42075164
   0.10768385  0.31097114  0.39595838
   0.13460666  0.46119785  0.59023495
   0.40510956  0.44839069  0.59399975
   0.02476154  0.85876763  0.61880983
   0.54726033  0.09491018  0.42079822
   0.96062748  0.25705148  0.43109264
   0.37525928  0.05881845  0.52984365
   0.95276073  0.50144944  0.47844628
   0.27828176  0.53763839  0.57932709
   0.70221234  0.21060266  0.38946062
   0.56269236  0.25965588  0.62191533
   0.20403651  0.38663559  0.45397666
   0.23187810  0.21046095  0.40053299
   0.29387643  0.84261124  0.46957238
   0.52256866  0.76899808  0.54207943
   0.90795475  0.67353550  0.39557464
   0.15915434  0.21883610  0.57219338
   0.75377829  0.66688902  0.39808876
   0.66100098  0.53908041  0.39201443
   0.97913476  0.34857906  0.50040536
   0.86612000  0.85854775  0.47446370
   0.58274326  0.37065996  0.49526476
   0.31572199  0.20747620  0.54550854

 position of ions in cartesian coordinates  (Angst):
  11.46606651  3.78152863 12.97328009
   4.02677912  7.95975347 13.86240527
  10.20025039  2.96062200 14.45476680
   8.09706945 13.96864139 15.63571584
   5.78521246  7.22932481  9.82580365
   0.87031007  1.37745303 15.12181449
   8.40459919  9.03091030 14.11309681
   4.71590678  4.05831295 12.46736073
  13.15349312  2.09427139 14.89247139
  11.67809265  7.43857127 13.79148468
   1.87197727  5.05604857 14.16469084
  10.74218524 12.81194925 15.97651042
   0.85723978  8.04669414 14.36371169
   2.18549772 11.07361933 16.10220317
  10.70190621  9.52291640 14.27511657
  13.64635968  1.59817595 12.58413951
  10.20450558  0.83609123 10.99371367
   6.44816563 14.39099252 10.48025728
  13.33935681  4.42300233 15.51887624
  10.69687627 11.09944032 12.54200784
   1.13243610 11.04896199 12.37290446
   1.01042165  4.69232526 16.74800515
   5.05118937 13.63883671 15.81851759
   4.34157470 10.70915481 10.86966515
   5.31131055 11.58930041 14.68003297
  11.56245393  5.95484144 15.62801096
   5.99493132  4.28027766 16.05521607
   2.75314257 13.28117910 15.58022546
  11.79413568  0.15595749 12.61052856
   4.24457496 10.08062469 16.18263004
   4.82170857 14.45723645 12.14025584
   0.67994094 10.30975225 14.51581830
   8.73838087 12.36058365 12.90682492
   2.70738424  7.82840127 12.90402275
  11.65965080 10.71855247 16.08829176
  10.36661901  6.32427062 12.17702781
   2.88584170  0.97553766 11.45408126
   0.26348765  8.16503657 10.82885639
   1.33902743  0.01780271 16.92856103
   8.75523995  3.35912839 14.51272823
   7.65072825  1.47991589 13.64594658
  13.41644851 11.69928431 14.92961220
   1.19419031  0.52291804 12.93038039
  14.00975631 11.87867413 11.02162407
  11.65415694  4.40384757 11.62055179
   8.46325416 12.54591416 16.30824275
   6.79992604  4.93246611 11.74388384
  11.31615007  0.34130421 14.95576818
   7.96559851  3.46826048 10.30263698
   7.93523734  6.94704476 15.03994216
   6.60503226 10.42290139 10.92488362
   9.08651429 14.27821773 14.26327826
   7.56037718 12.45962619 10.93608806
   7.78978816  8.63444646 11.78725151
   6.13595830  7.09829098 11.26187317
   2.11845686 12.93163333 13.31482961
   9.41748748  5.76675114 16.43324778
   2.41278450  9.43807318 11.31422890
   1.56472554  4.51863951 10.64752520
   1.95593376  6.70154407 15.87172261
   5.88653993  6.51544660 15.97296009
   0.35980343 12.47852552 16.64011577
   7.95209518  1.37911474 11.31548140
  13.95862408  3.73514714 11.59230369
   5.45279343  0.85467542 14.24776948
  13.84431434  7.28642928 12.86566749
   4.04363868  7.81228134 15.57840461
  10.20366195  3.06021162 10.47279728
   8.17633397  3.77299091 16.72362440
   2.96480058  5.61809953 12.20766689
   3.36935946  3.05815249 10.77053884
   4.27024075 12.24376123 12.62704370
   7.59330706 11.17410781 14.57679572
  13.19325048  9.78696628 10.63720645
   2.31262963  3.17984952 15.38657535
  10.95295316  9.69038804 10.70481231
   9.60483048  7.83323491 10.54147044
  14.22754839  5.06511020 13.45615858
  12.58536080 12.47533047 12.75857385
   8.46768824  5.38596195 13.31792510
   4.58767280  3.01478177 14.66900646



--------------------------------------------------------------------------------------------------------


 k-point     1 :   0.0000 0.0000 0.0000  plane waves:  535959
 k-point     2 :   0.5000 0.0000 0.0000  plane waves:  535906
 k-point     3 :   0.0000 0.5000 0.0000  plane waves:  535906
 k-point     4 :   0.5000 0.5000 0.0000  plane waves:  535948
 k-point     5 :   0.0000 0.0000 0.5000  plane waves:  535736
 k-point     6 :   0.5000 0.0000 0.5000  plane waves:  535948
 k-point     7 :   0.0000 0.5000 0.5000  plane waves:  535948
 k-point     8 :   0.5000 0.5000 0.5000  plane waves:  536048

 maximum and minimum number of plane-waves per node :     33578    33424

 maximum number of plane-waves:    536048
 maximum index in each direction: 
   IXMAX=   41   IYMAX=   41   IZMAX=   75
   IXMIN=  -41   IYMIN=  -41   IZMIN=  -76


 parallel 3D FFT for wavefunctions:
    minimum data exchange during FFTs selected (reduces bandwidth)
 parallel 3D FFT for charge:
    minimum data exchange during FFTs selected (reduces bandwidth)


 total amount of memory used by VASP MPI-rank0   408328. kBytes
=======================================================================

   base                                    :      30000. kBytes
   nonl-proj                               :      77896. kBytes
   fftplans                                :     108827. kBytes
   grid                                    :      83991. kBytes
   one-center                              :         18. kBytes
   wavefun                                 :     107596. kBytes

     INWAV:  cpu time     32.1693: real time     32.1875
 Broyden mixing: mesh for mixing (old mesh)
   NGX = 83   NGY = 83   NGZ =151
  (NGX  =336   NGY  =336   NGZ  =640)
  gives a total of ****** points

 initial charge density was supplied:
 number of electron     308.9999999 magnetization 
 keeping initial charge density in first step


--------------------------------------------------------------------------------------------------------


 Maximum index for augmentation-charges        11860 (set IRDMAX)


--------------------------------------------------------------------------------------------------------


 First call to EWALD:  gamma=   0.099
 Maximum number of real-space cells   3x   3x   2
 Maximum number of reciprocal cells   2x   2x   4

    FEWALD:  cpu time      0.0142: real time      0.0145


--------------------------------------- Ionic step        1  -------------------------------------------




--------------------------------------- Iteration      1(   1)  ---------------------------------------


    POTLOK:  cpu time      2.1719: real time      2.1734
    SETDIJ:  cpu time      1.5703: real time      1.5713
    EDDIAG:  cpu time     66.2288: real time     66.2679
     EDDAV:  cpu time    294.7872: real time    294.9530
       DOS:  cpu time      0.0078: real time      0.0083
    CHARGE:  cpu time     37.2720: real time     37.3065
    MIXING:  cpu time      0.0519: real time      0.0527
    --------------------------------------------
      LOOP:  cpu time    402.0900: real time    402.3331

 eigenvalue-minimisations  :  3200
 total energy-change (2. order) :-0.7801311E+03  (-0.8778941E+00)
 number of electron     308.9999999 magnetization 
 augmentation part      -17.2077218 magnetization 

 Broyden mixing:
  rms(total) = 0.10729E+01    rms(broyden)= 0.23796E+02
  rms(prec ) = 0.11003E+01
  weight for this iteration     100.00
  WARNING: grid for Broyden might be to small

 Free energy of the ion-electron system (eV)
  ---------------------------------------------------
  alpha Z        PSCENC =        35.47197536
  Ewald energy   TEWEN  =     42290.03194534
  -Hartree energ DENC   =    -49166.76470621
  -exchange      EXHF   =         0.00000000
  -V(xc)+E(xc)   XCENC  =      -360.35720442
  PAW double counting   =     28651.71755615   -27894.17051049
  entropy T*S    EENTRO =        -0.15890049
  eigenvalues    EBANDS =     -2231.42257746
  atomic energy  EATOM  =      7895.52132944
  Solvation  Ediel_sol  =         0.00000000
  ---------------------------------------------------
  free energy    TOTEN  =      -780.13109279 eV

  energy without entropy =     -779.97219229  energy(sigma->0) =     -780.05164254


--------------------------------------------------------------------------------------------------------




--------------------------------------- Iteration      1(   2)  ---------------------------------------


    POTLOK:  cpu time      2.1536: real time      2.1559
    SETDIJ:  cpu time      1.5608: real time      1.5615
    EDDIAG:  cpu time     66.2200: real time     66.2602
     EDDAV:  cpu time    298.1037: real time    298.2663
       DOS:  cpu time      0.0039: real time      0.0039
    CHARGE:  cpu time     37.1996: real time     37.2332
    MIXING:  cpu time      0.0444: real time      0.0450
    --------------------------------------------
      LOOP:  cpu time    405.2860: real time    405.5260

 eigenvalue-minimisations  :  3264
 total energy-change (2. order) : 0.5446152E+02  (-0.8285486E+00)
 number of electron     308.9999999 magnetization 
 augmentation part      -17.1418152 magnetization 

 Broyden mixing:
  rms(total) = 0.72915E+00    rms(broyden)= 0.13707E+02
  rms(prec ) = 0.74317E+00
  weight for this iteration     100.00
  WARNING: grid for Broyden might be to small

 eigenvalues of (default mixing * dielectric matrix)
  average eigenvalue GAMMA=   0.6345
  0.6345

 Free energy of the ion-electron system (eV)
  ---------------------------------------------------
  alpha Z        PSCENC =        35.47197536
  Ewald energy   TEWEN  =     42290.03194534
  -Hartree energ DENC   =    -49155.84362820
  -exchange      EXHF   =         0.00000000
  -V(xc)+E(xc)   XCENC  =      -352.58487896
  PAW double counting   =     34192.35304886   -33434.61480147
  entropy T*S    EENTRO =        -0.15358314
  eigenvalues    EBANDS =     -2195.85097993
  atomic energy  EATOM  =      7895.52132944
  Solvation  Ediel_sol  =         0.00000000
  ---------------------------------------------------
  free energy    TOTEN  =      -725.66957270 eV

  energy without entropy =     -725.51598957  energy(sigma->0) =     -725.59278113


--------------------------------------------------------------------------------------------------------




--------------------------------------- Iteration      1(   3)  ---------------------------------------


    POTLOK:  cpu time      2.1349: real time      2.1543
    SETDIJ:  cpu time      1.5645: real time      1.5656
    EDDIAG:  cpu time     66.3063: real time     66.3453
     EDDAV:  cpu time    295.5156: real time    295.6780
       DOS:  cpu time      0.0059: real time      0.0059
    CHARGE:  cpu time     37.1730: real time     37.2064
    MIXING:  cpu time      0.0419: real time      0.0419
    --------------------------------------------
      LOOP:  cpu time    402.7420: real time    402.9974

 eigenvalue-minimisations  :  3208
 total energy-change (2. order) :-0.2839177E+01  (-0.6741231E+00)
 number of electron     308.9999999 magnetization 
 augmentation part      -17.0868223 magnetization 

 Broyden mixing:
  rms(total) = 0.27671E+00    rms(broyden)= 0.22115E+02
  rms(prec ) = 0.35673E+00
  weight for this iteration     100.00
  WARNING: grid for Broyden might be to small

 eigenvalues of (default mixing * dielectric matrix)
  average eigenvalue GAMMA=   0.7924
  0.9572  0.6275

 Free energy of the ion-electron system (eV)
  ---------------------------------------------------
  alpha Z        PSCENC =        35.47197536
  Ewald energy   TEWEN  =     42290.03194534
  -Hartree energ DENC   =    -49156.70026197
  -exchange      EXHF   =         0.00000000
  -V(xc)+E(xc)   XCENC  =      -355.40007243
  PAW double counting   =     41142.25794757   -40384.65007284
  entropy T*S    EENTRO =        -0.15880686
  eigenvalues    EBANDS =     -2194.88273343
  atomic energy  EATOM  =      7895.52132944
  Solvation  Ediel_sol  =         0.00000000
  ---------------------------------------------------
  free energy    TOTEN  =      -728.50874982 eV

  energy without entropy =     -728.34994296  energy(sigma->0) =     -728.42934639


--------------------------------------------------------------------------------------------------------




--------------------------------------- Iteration      1(   4)  ---------------------------------------


    POTLOK:  cpu time      2.1327: real time      2.1536
    SETDIJ:  cpu time      1.5611: real time      1.5624
    EDDIAG:  cpu time     66.3853: real time     66.4261
     EDDAV:  cpu time    299.0527: real time    299.2154
       DOS:  cpu time      0.0045: real time      0.0045
    CHARGE:  cpu time     37.1737: real time     37.2080
    MIXING:  cpu time      0.0426: real time      0.0426
    --------------------------------------------
      LOOP:  cpu time    406.3526: real time    406.6126

 eigenvalue-minimisations  :  3280
 total energy-change (2. order) : 0.3550245E+00  (-0.7035607E-01)
 number of electron     308.9999999 magnetization 
 augmentation part      -17.0806836 magnetization 

 Broyden mixing:
  rms(total) = 0.50004E-01    rms(broyden)= 0.21182E+01
  rms(prec ) = 0.57116E-01
  weight for this iteration     100.00
  WARNING: grid for Broyden might be to small

 eigenvalues of (default mixing * dielectric matrix)
  average eigenvalue GAMMA=   1.0670
  1.8158  0.7613  0.6240

 Free energy of the ion-electron system (eV)
  ---------------------------------------------------
  alpha Z        PSCENC =        35.47197536
  Ewald energy   TEWEN  =     42290.03194534
  -Hartree energ DENC   =    -49158.00003597
  -exchange      EXHF   =         0.00000000
  -V(xc)+E(xc)   XCENC  =      -356.18598306
  PAW double counting   =     45852.72826130   -45095.15736058
  entropy T*S    EENTRO =        -0.15795098
  eigenvalues    EBANDS =     -2192.40590616
  atomic energy  EATOM  =      7895.52132944
  Solvation  Ediel_sol  =         0.00000000
  ---------------------------------------------------
  free energy    TOTEN  =      -728.15372532 eV

  energy without entropy =     -727.99577434  energy(sigma->0) =     -728.07474983


--------------------------------------------------------------------------------------------------------




--------------------------------------- Iteration      1(   5)  ---------------------------------------


    POTLOK:  cpu time      2.1369: real time      2.1576
    SETDIJ:  cpu time      1.5526: real time      1.5533
    EDDIAG:  cpu time     66.3133: real time     66.3561
     EDDAV:  cpu time    334.8351: real time    335.0229
       DOS:  cpu time      0.0033: real time      0.0033
    CHARGE:  cpu time     37.2090: real time     37.2428
    MIXING:  cpu time      0.0430: real time      0.0430
    --------------------------------------------
      LOOP:  cpu time    442.0932: real time    442.3791

 eigenvalue-minimisations  :  3976
 total energy-change (2. order) :-0.3229140E-01  (-0.6836164E-02)
 number of electron     308.9999999 magnetization 
 augmentation part      -17.0819929 magnetization 

 Broyden mixing:
  rms(total) = 0.31007E-01    rms(broyden)= 0.29984E+00
  rms(prec ) = 0.33315E-01
  weight for this iteration     100.00
  WARNING: grid for Broyden might be to small

 eigenvalues of (default mixing * dielectric matrix)
  average eigenvalue GAMMA=   1.1437
  2.3939  0.9164  0.6417  0.6227

 Free energy of the ion-electron system (eV)
  ---------------------------------------------------
  alpha Z        PSCENC =        35.47197536
  Ewald energy   TEWEN  =     42290.03194534
  -Hartree energ DENC   =    -49158.45336693
  -exchange      EXHF   =         0.00000000
  -V(xc)+E(xc)   XCENC  =      -357.09629762
  PAW double counting   =     45282.61976150   -44525.01692770
  entropy T*S    EENTRO =        -0.15714662
  eigenvalues    EBANDS =     -2191.10728949
  atomic energy  EATOM  =      7895.52132944
  Solvation  Ediel_sol  =         0.00000000
  ---------------------------------------------------
  free energy    TOTEN  =      -728.18601671 eV

  energy without entropy =     -728.02887010  energy(sigma->0) =     -728.10744341


--------------------------------------------------------------------------------------------------------




--------------------------------------- Iteration      1(   6)  ---------------------------------------


    POTLOK:  cpu time      2.1340: real time      2.1551
    SETDIJ:  cpu time      1.5601: real time      1.5610
    EDDIAG:  cpu time     66.3115: real time     66.3502
     EDDAV:  cpu time    319.8694: real time    320.0473
       DOS:  cpu time      0.0124: real time      0.0132
    CHARGE:  cpu time     37.2034: real time     37.2372
    MIXING:  cpu time      0.0579: real time      0.0593
    --------------------------------------------
      LOOP:  cpu time    427.1487: real time    427.4233

 eigenvalue-minimisations  :  3688
 total energy-change (2. order) :-0.4441595E-02  (-0.1277320E-02)
 number of electron     308.9999999 magnetization 
 augmentation part      -17.0814061 magnetization 

 Broyden mixing:
  rms(total) = 0.19908E-01    rms(broyden)= 0.16000E+00
  rms(prec ) = 0.21853E-01
  weight for this iteration     100.00
  WARNING: grid for Broyden might be to small

 eigenvalues of (default mixing * dielectric matrix)
  average eigenvalue GAMMA=   1.1102
  2.5321  1.0866  0.7178  0.6271  0.5873

 Free energy of the ion-electron system (eV)
  ---------------------------------------------------
  alpha Z        PSCENC =        35.47197536
  Ewald energy   TEWEN  =     42290.03194534
  -Hartree energ DENC   =    -49158.48072773
  -exchange      EXHF   =         0.00000000
  -V(xc)+E(xc)   XCENC  =      -357.21212639
  PAW double counting   =     45226.46153822   -44468.84338822
  entropy T*S    EENTRO =        -0.15693506
  eigenvalues    EBANDS =     -2190.98406927
  atomic energy  EATOM  =      7895.52132944
  Solvation  Ediel_sol  =         0.00000000
  ---------------------------------------------------
  free energy    TOTEN  =      -728.19045831 eV

  energy without entropy =     -728.03352325  energy(sigma->0) =     -728.11199078


--------------------------------------------------------------------------------------------------------




--------------------------------------- Iteration      1(   7)  ---------------------------------------


    POTLOK:  cpu time      2.1521: real time      2.1539
    SETDIJ:  cpu time      1.5808: real time      1.5820
    EDDIAG:  cpu time     66.2596: real time     66.2998
     EDDAV:  cpu time    307.9466: real time    308.1204
       DOS:  cpu time      0.0032: real time      0.0032
    CHARGE:  cpu time     37.1624: real time     37.1966
    MIXING:  cpu time      0.0440: real time      0.0440
    --------------------------------------------
      LOOP:  cpu time    415.1486: real time    415.3998

 eigenvalue-minimisations  :  3448
 total energy-change (2. order) :-0.1484795E-02  (-0.5949089E-03)
 number of electron     308.9999999 magnetization 
 augmentation part      -17.0794879 magnetization 

 Broyden mixing:
  rms(total) = 0.82357E-02    rms(broyden)= 0.72569E-01
  rms(prec ) = 0.10223E-01
  weight for this iteration     100.00
  WARNING: grid for Broyden might be to small

 eigenvalues of (default mixing * dielectric matrix)
  average eigenvalue GAMMA=   1.0816
  2.5517  1.2705  0.8601  0.6424  0.6424  0.5224

 Free energy of the ion-electron system (eV)
  ---------------------------------------------------
  alpha Z        PSCENC =        35.47197536
  Ewald energy   TEWEN  =     42290.03194534
  -Hartree energ DENC   =    -49158.41374117
  -exchange      EXHF   =         0.00000000
  -V(xc)+E(xc)   XCENC  =      -357.10002984
  PAW double counting   =     45228.14610867   -44470.51343356
  entropy T*S    EENTRO =        -0.15733560
  eigenvalues    EBANDS =     -2191.17876174
  atomic energy  EATOM  =      7895.52132944
  Solvation  Ediel_sol  =         0.00000000
  ---------------------------------------------------
  free energy    TOTEN  =      -728.19194310 eV

  energy without entropy =     -728.03460750  energy(sigma->0) =     -728.11327530


--------------------------------------------------------------------------------------------------------




--------------------------------------- Iteration      1(   8)  ---------------------------------------


    POTLOK:  cpu time      2.1385: real time      2.1601
    SETDIJ:  cpu time      1.5675: real time      1.5685
    EDDIAG:  cpu time     66.3778: real time     66.4176
     EDDAV:  cpu time    305.8137: real time    305.9884
       DOS:  cpu time      0.0029: real time      0.0029
    CHARGE:  cpu time     37.2073: real time     37.2422
    MIXING:  cpu time      0.0441: real time      0.0441
    --------------------------------------------
      LOOP:  cpu time    413.1518: real time    413.4238

 eigenvalue-minimisations  :  3408
 total energy-change (2. order) :-0.3057393E-03  (-0.2031593E-03)
 number of electron     308.9999999 magnetization 
 augmentation part      -17.0794466 magnetization 

 Broyden mixing:
  rms(total) = 0.29707E-02    rms(broyden)= 0.52643E-01
  rms(prec ) = 0.36975E-02
  weight for this iteration     100.00
  WARNING: grid for Broyden might be to small

 eigenvalues of (default mixing * dielectric matrix)
  average eigenvalue GAMMA=   1.1062
  2.5691  1.6104  1.0143  0.7683  0.6539  0.6296  0.4978

 Free energy of the ion-electron system (eV)
  ---------------------------------------------------
  alpha Z        PSCENC =        35.47197536
  Ewald energy   TEWEN  =     42290.03194534
  -Hartree energ DENC   =    -49158.18055482
  -exchange      EXHF   =         0.00000000
  -V(xc)+E(xc)   XCENC  =      -357.08327347
  PAW double counting   =     45261.18142924   -44503.54294591
  entropy T*S    EENTRO =        -0.15711173
  eigenvalues    EBANDS =     -2191.43504230
  atomic energy  EATOM  =      7895.52132944
  Solvation  Ediel_sol  =         0.00000000
  ---------------------------------------------------
  free energy    TOTEN  =      -728.19224884 eV

  energy without entropy =     -728.03513711  energy(sigma->0) =     -728.11369298


--------------------------------------------------------------------------------------------------------




--------------------------------------- Iteration      1(   9)  ---------------------------------------


    POTLOK:  cpu time      2.1357: real time      2.1553
    SETDIJ:  cpu time      1.5633: real time      1.5639
    EDDIAG:  cpu time     66.4213: real time     66.4628
     EDDAV:  cpu time    305.9775: real time    306.1468
       DOS:  cpu time      0.0030: real time      0.0030
    CHARGE:  cpu time     37.2827: real time     37.3176
    MIXING:  cpu time      0.0458: real time      0.0458
    --------------------------------------------
      LOOP:  cpu time    413.4295: real time    413.6954

 eigenvalue-minimisations  :  3408
 total energy-change (2. order) : 0.6308357E-04  (-0.8120614E-04)
 number of electron     308.9999999 magnetization 
 augmentation part      -17.0796700 magnetization 

 Broyden mixing:
  rms(total) = 0.18484E-02    rms(broyden)= 0.14981E-01
  rms(prec ) = 0.21364E-02
  weight for this iteration     100.00
  WARNING: grid for Broyden might be to small

 eigenvalues of (default mixing * dielectric matrix)
  average eigenvalue GAMMA=   1.1738
  2.4938  2.4621  1.1605  0.8621  0.6739  0.6336  0.5942  0.5100

 Free energy of the ion-electron system (eV)
  ---------------------------------------------------
  alpha Z        PSCENC =        35.47197536
  Ewald energy   TEWEN  =     42290.03194534
  -Hartree energ DENC   =    -49157.97708512
  -exchange      EXHF   =         0.00000000
  -V(xc)+E(xc)   XCENC  =      -357.11036391
  PAW double counting   =     45265.78216975   -44508.14257798
  entropy T*S    EENTRO =        -0.15710744
  eigenvalues    EBANDS =     -2191.61247121
  atomic energy  EATOM  =      7895.52132944
  Solvation  Ediel_sol  =         0.00000000
  ---------------------------------------------------
  free energy    TOTEN  =      -728.19218576 eV

  energy without entropy =     -728.03507832  energy(sigma->0) =     -728.11363204


--------------------------------------------------------------------------------------------------------




--------------------------------------- Iteration      1(  10)  ---------------------------------------


    POTLOK:  cpu time      2.1390: real time      2.1592
    SETDIJ:  cpu time      1.5577: real time      1.5589
    EDDIAG:  cpu time     66.4294: real time     66.4677
     EDDAV:  cpu time    307.8436: real time    308.0191
       DOS:  cpu time      0.0095: real time      0.0096
    CHARGE:  cpu time     37.2919: real time     37.3269
    MIXING:  cpu time      0.0603: real time      0.0610
    --------------------------------------------
      LOOP:  cpu time    415.3312: real time    415.6021

 eigenvalue-minimisations  :  3440
 total energy-change (2. order) :-0.7160715E-04  (-0.3178511E-04)
 number of electron     308.9999999 magnetization 
 augmentation part      -17.0796866 magnetization 

 Broyden mixing:
  rms(total) = 0.10175E-02    rms(broyden)= 0.79418E-02
  rms(prec ) = 0.12218E-02
  weight for this iteration     100.00
  WARNING: grid for Broyden might be to small

 eigenvalues of (default mixing * dielectric matrix)
  average eigenvalue GAMMA=   1.2030
  2.7080  2.7080  1.2503  1.0104  0.8054  0.6625  0.6279  0.5043  0.5498

 Free energy of the ion-electron system (eV)
  ---------------------------------------------------
  alpha Z        PSCENC =        35.47197536
  Ewald energy   TEWEN  =     42290.03194534
  -Hartree energ DENC   =    -49157.80038398
  -exchange      EXHF   =         0.00000000
  -V(xc)+E(xc)   XCENC  =      -357.11917910
  PAW double counting   =     45261.88610005   -44504.24548119
  entropy T*S    EENTRO =        -0.15720300
  eigenvalues    EBANDS =     -2191.78136029
  atomic energy  EATOM  =      7895.52132944
  Solvation  Ediel_sol  =         0.00000000
  ---------------------------------------------------
  free energy    TOTEN  =      -728.19225737 eV

  energy without entropy =     -728.03505436  energy(sigma->0) =     -728.11365586


--------------------------------------------------------------------------------------------------------




--------------------------------------- Iteration      1(  11)  ---------------------------------------


    POTLOK:  cpu time      2.1422: real time      2.1561
    SETDIJ:  cpu time      1.5781: real time      1.5796
    EDDIAG:  cpu time     66.4559: real time     66.4976
     EDDAV:  cpu time    301.6284: real time    301.7962
       DOS:  cpu time      0.0034: real time      0.0034
    CHARGE:  cpu time     37.2423: real time     37.2750
    MIXING:  cpu time      0.0463: real time      0.0463
    --------------------------------------------
      LOOP:  cpu time    409.0966: real time    409.3542

 eigenvalue-minimisations  :  3328
 total energy-change (2. order) :-0.9385174E-04  (-0.2449740E-04)
 number of electron     308.9999999 magnetization 
 augmentation part      -17.0797647 magnetization 

 Broyden mixing:
  rms(total) = 0.52469E-03    rms(broyden)= 0.53524E-02
  rms(prec ) = 0.71015E-03
  weight for this iteration     100.00
  WARNING: grid for Broyden might be to small

 eigenvalues of (default mixing * dielectric matrix)
  average eigenvalue GAMMA=   1.1953
  2.7750  2.7750  1.3489  1.0945  0.9090  0.7326  0.4933  0.6277  0.5986  0.5986

 Free energy of the ion-electron system (eV)
  ---------------------------------------------------
  alpha Z        PSCENC =        35.47197536
  Ewald energy   TEWEN  =     42290.03194534
  -Hartree energ DENC   =    -49157.58641211
  -exchange      EXHF   =         0.00000000
  -V(xc)+E(xc)   XCENC  =      -357.12759782
  PAW double counting   =     45260.06220280   -44502.42094223
  entropy T*S    EENTRO =        -0.15715633
  eigenvalues    EBANDS =     -2191.98769567
  atomic energy  EATOM  =      7895.52132944
  Solvation  Ediel_sol  =         0.00000000
  ---------------------------------------------------
  free energy    TOTEN  =      -728.19235122 eV

  energy without entropy =     -728.03519489  energy(sigma->0) =     -728.11377305


--------------------------------------------------------------------------------------------------------




--------------------------------------- Iteration      1(  12)  ---------------------------------------


    POTLOK:  cpu time      2.1370: real time      2.1564
    SETDIJ:  cpu time      1.5646: real time      1.5658
    EDDIAG:  cpu time     66.3416: real time     66.3825
     EDDAV:  cpu time    301.8404: real time    302.0104
       DOS:  cpu time      0.0030: real time      0.0030
    CHARGE:  cpu time     37.2105: real time     37.2467
    MIXING:  cpu time      0.0477: real time      0.0477
    --------------------------------------------
      LOOP:  cpu time    409.1448: real time    409.4124

 eigenvalue-minimisations  :  3328
 total energy-change (2. order) :-0.8978861E-04  (-0.1458218E-04)
 number of electron     308.9999999 magnetization 
 augmentation part      -17.0798217 magnetization 

 Broyden mixing:
  rms(total) = 0.31018E-03    rms(broyden)= 0.22002E-02
  rms(prec ) = 0.47171E-03
  weight for this iteration     100.00
  WARNING: grid for Broyden might be to small

 eigenvalues of (default mixing * dielectric matrix)
  average eigenvalue GAMMA=   1.2000
  2.8221  2.8221  1.6273  1.2112  0.9588  0.7734  0.6980  0.4925  0.6229  0.5857
  0.5857

 Free energy of the ion-electron system (eV)
  ---------------------------------------------------
  alpha Z        PSCENC =        35.47197536
  Ewald energy   TEWEN  =     42290.03194534
  -Hartree energ DENC   =    -49157.44098126
  -exchange      EXHF   =         0.00000000
  -V(xc)+E(xc)   XCENC  =      -357.13598887
  PAW double counting   =     45260.00188364   -44502.36074878
  entropy T*S    EENTRO =        -0.15717048
  eigenvalues    EBANDS =     -2192.12468538
  atomic energy  EATOM  =      7895.52132944
  Solvation  Ediel_sol  =         0.00000000
  ---------------------------------------------------
  free energy    TOTEN  =      -728.19244101 eV

  energy without entropy =     -728.03527052  energy(sigma->0) =     -728.11385577


--------------------------------------------------------------------------------------------------------




--------------------------------------- Iteration      1(  13)  ---------------------------------------


    POTLOK:  cpu time      2.1305: real time      2.1535
    SETDIJ:  cpu time      1.5596: real time      1.5604
    EDDIAG:  cpu time     66.3736: real time     66.4144
     EDDAV:  cpu time    302.0212: real time    302.1905
       DOS:  cpu time      0.0056: real time      0.0056
    CHARGE:  cpu time     37.2795: real time     37.3130
    MIXING:  cpu time      0.0479: real time      0.0479
    --------------------------------------------
      LOOP:  cpu time    409.4178: real time    409.6853

 eigenvalue-minimisations  :  3328
 total energy-change (2. order) :-0.1014310E-03  (-0.1518041E-04)
 number of electron     308.9999999 magnetization 
 augmentation part      -17.0798591 magnetization 

 Broyden mixing:
  rms(total) = 0.19481E-03    rms(broyden)= 0.14847E-02
  rms(prec ) = 0.32452E-03
  weight for this iteration     100.00
  WARNING: grid for Broyden might be to small

 eigenvalues of (default mixing * dielectric matrix)
  average eigenvalue GAMMA=   1.2304
  3.0794  2.7122  2.0705  1.2743  1.0432  0.9000  0.7497  0.4939  0.6524  0.6239
  0.5824  0.5824

 Free energy of the ion-electron system (eV)
  ---------------------------------------------------
  alpha Z        PSCENC =        35.47197536
  Ewald energy   TEWEN  =     42290.03194534
  -Hartree energ DENC   =    -49157.29936663
  -exchange      EXHF   =         0.00000000
  -V(xc)+E(xc)   XCENC  =      -357.14076924
  PAW double counting   =     45260.65074551   -44503.00988309
  entropy T*S    EENTRO =        -0.15716385
  eigenvalues    EBANDS =     -2192.26135527
  atomic energy  EATOM  =      7895.52132944
  Solvation  Ediel_sol  =         0.00000000
  ---------------------------------------------------
  free energy    TOTEN  =      -728.19254244 eV

  energy without entropy =     -728.03537858  energy(sigma->0) =     -728.11396051


--------------------------------------------------------------------------------------------------------




--------------------------------------- Iteration      1(  14)  ---------------------------------------


    POTLOK:  cpu time      2.1841: real time      2.1854
    SETDIJ:  cpu time      1.5697: real time      1.5707
    EDDIAG:  cpu time     66.4538: real time     66.4898
     EDDAV:  cpu time    302.0668: real time    302.2346
       DOS:  cpu time      0.0040: real time      0.0040
    CHARGE:  cpu time     37.2563: real time     37.2888
    MIXING:  cpu time      0.0495: real time      0.0495
    --------------------------------------------
      LOOP:  cpu time    409.5841: real time    409.8227

 eigenvalue-minimisations  :  3328
 total energy-change (2. order) :-0.1334483E-03  (-0.2067535E-04)
 number of electron     308.9999999 magnetization 
 augmentation part      -17.0798941 magnetization 

 Broyden mixing:
  rms(total) = 0.13025E-03    rms(broyden)= 0.23079E-02
  rms(prec ) = 0.21174E-03
  weight for this iteration     100.00
  WARNING: grid for Broyden might be to small

 eigenvalues of (default mixing * dielectric matrix)
  average eigenvalue GAMMA=   1.2639
  3.3548  2.5800  2.5800  1.3738  1.1380  0.9145  0.8642  0.7060  0.4943  0.6431
  0.5992  0.5914  0.5914

 Free energy of the ion-electron system (eV)
  ---------------------------------------------------
  alpha Z        PSCENC =        35.47197536
  Ewald energy   TEWEN  =     42290.03194534
  -Hartree energ DENC   =    -49157.12804910
  -exchange      EXHF   =         0.00000000
  -V(xc)+E(xc)   XCENC  =      -357.14448177
  PAW double counting   =     45260.38949375   -44502.74892879
  entropy T*S    EENTRO =        -0.15716807
  eigenvalues    EBANDS =     -2192.42879205
  atomic energy  EATOM  =      7895.52132944
  Solvation  Ediel_sol  =         0.00000000
  ---------------------------------------------------
  free energy    TOTEN  =      -728.19267589 eV

  energy without entropy =     -728.03550781  energy(sigma->0) =     -728.11409185


--------------------------------------------------------------------------------------------------------




--------------------------------------- Iteration      1(  15)  ---------------------------------------


    POTLOK:  cpu time      2.1438: real time      2.1630
    SETDIJ:  cpu time      1.5631: real time      1.5640
    EDDIAG:  cpu time     66.3857: real time     66.4234
     EDDAV:  cpu time    301.4298: real time    301.5917
       DOS:  cpu time      0.0031: real time      0.0031
    CHARGE:  cpu time     37.2225: real time     37.2560
    MIXING:  cpu time      0.0500: real time      0.0500
    --------------------------------------------
      LOOP:  cpu time    408.7980: real time    409.0512

 eigenvalue-minimisations  :  3328
 total energy-change (2. order) :-0.7386917E-04  (-0.9392145E-05)
 number of electron     308.9999999 magnetization 
 augmentation part      -17.0799072 magnetization 

 Broyden mixing:
  rms(total) = 0.91877E-04    rms(broyden)= 0.13261E-02
  rms(prec ) = 0.14576E-03
  weight for this iteration     100.00
  WARNING: grid for Broyden might be to small

 eigenvalues of (default mixing * dielectric matrix)
  average eigenvalue GAMMA=   1.3098
  3.6378  2.6748  2.6748  1.7150  1.2987  1.0807  0.8866  0.7865  0.4940  0.6751
  0.6204  0.6049  0.6049  0.5832

 Free energy of the ion-electron system (eV)
  ---------------------------------------------------
  alpha Z        PSCENC =        35.47197536
  Ewald energy   TEWEN  =     42290.03194534
  -Hartree energ DENC   =    -49157.03197470
  -exchange      EXHF   =         0.00000000
  -V(xc)+E(xc)   XCENC  =      -357.14554169
  PAW double counting   =     45260.52475682   -44502.88434793
  entropy T*S    EENTRO =        -0.15716574
  eigenvalues    EBANDS =     -2192.52372666
  atomic energy  EATOM  =      7895.52132944
  Solvation  Ediel_sol  =         0.00000000
  ---------------------------------------------------
  free energy    TOTEN  =      -728.19274976 eV

  energy without entropy =     -728.03558402  energy(sigma->0) =     -728.11416689


--------------------------------------------------------------------------------------------------------




--------------------------------------- Iteration      1(  16)  ---------------------------------------


    POTLOK:  cpu time      2.1349: real time      2.1540
    SETDIJ:  cpu time      1.5660: real time      1.5668
    EDDIAG:  cpu time     66.3428: real time     66.3811
     EDDAV:  cpu time    301.3710: real time    301.5385
       DOS:  cpu time      0.0036: real time      0.0036
    CHARGE:  cpu time     37.2339: real time     37.2653
    MIXING:  cpu time      0.0510: real time      0.0510
    --------------------------------------------
      LOOP:  cpu time    408.7032: real time    408.9603

 eigenvalue-minimisations  :  3328
 total energy-change (2. order) :-0.5210396E-04  (-0.6146991E-05)
 number of electron     308.9999999 magnetization 
 augmentation part      -17.0799215 magnetization 

 Broyden mixing:
  rms(total) = 0.57601E-04    rms(broyden)= 0.63154E-03
  rms(prec ) = 0.87604E-04
  weight for this iteration     100.00
  WARNING: grid for Broyden might be to small

 eigenvalues of (default mixing * dielectric matrix)
  average eigenvalue GAMMA=   1.3599
  4.0944  2.7778  2.7778  2.0608  1.3375  1.1500  1.0124  0.8594  0.7560  0.4935
  0.6526  0.6526  0.6224  0.5758  0.5758

 Free energy of the ion-electron system (eV)
  ---------------------------------------------------
  alpha Z        PSCENC =        35.47197536
  Ewald energy   TEWEN  =     42290.03194534
  -Hartree energ DENC   =    -49156.94229712
  -exchange      EXHF   =         0.00000000
  -V(xc)+E(xc)   XCENC  =      -357.14626916
  PAW double counting   =     45260.58748025   -44502.94713021
  entropy T*S    EENTRO =        -0.15716720
[...]
   -.212E+02 -.235E+02 -.205E+03   0.216E+02 0.237E+02 0.205E+03   -.565E+00 0.523E-01 0.251E+00   0.573E-05 0.959E-05 0.285E-04
   -.415E+01 -.188E+01 0.115E+03   0.614E+01 0.164E+01 -.114E+03   -.166E+01 0.140E+00 -.124E+01   0.758E-05 -.346E-05 -.175E-04
   -.365E+02 0.182E+02 -.272E+03   0.373E+02 -.173E+02 0.274E+03   -.509E+00 -.114E+01 -.125E+01   0.108E-04 -.301E-05 0.170E-04
   0.473E+01 -.788E+01 0.145E+03   -.471E+01 0.810E+01 -.145E+03   -.845E-01 -.276E+00 0.630E+00   -.123E-04 -.788E-07 0.403E-05
   0.176E+02 0.232E+02 -.115E+03   -.180E+02 -.231E+02 0.113E+03   0.301E+00 -.157E+00 0.116E+01   -.136E-04 -.209E-04 0.156E-04
   -.362E+01 -.700E+01 0.709E+02   0.279E+01 0.555E+01 -.705E+02   0.107E+01 0.137E+01 -.308E+00   0.544E-05 -.472E-05 0.539E-05
   -.359E+02 -.623E+01 0.764E+02   0.331E+02 0.666E+01 -.778E+02   0.300E+01 -.346E+00 0.146E+01   -.944E-05 -.138E-04 -.398E-05
   0.300E+01 0.444E+02 -.288E+03   -.237E+01 -.435E+02 0.289E+03   -.461E+00 -.115E+01 -.575E+00   0.562E-05 -.217E-04 0.291E-04
   -.770E+01 0.399E+01 0.141E+03   0.786E+01 -.325E+01 -.140E+03   -.536E-01 -.802E+00 -.110E+01   0.996E-05 -.991E-05 -.233E-04
   0.247E+02 0.126E+02 0.236E+03   -.228E+02 -.112E+02 -.234E+03   -.164E+01 -.145E+01 -.151E+01   -.787E-05 0.501E-05 -.115E-04
   -.878E+01 0.288E+02 0.284E+03   0.659E+01 -.299E+02 -.286E+03   0.228E+01 0.667E+00 0.195E+01   -.673E-05 -.880E-05 -.154E-04
   0.688E+01 -.357E+02 -.334E+03   -.474E+01 0.358E+02 0.334E+03   -.187E+01 0.143E+00 0.528E+00   0.671E-05 0.202E-04 0.377E-04
   -.871E+01 0.147E+02 -.109E+03   0.105E+02 -.154E+02 0.109E+03   -.155E+01 0.728E+00 -.143E+00   -.274E-05 0.215E-04 0.379E-04
   0.626E+01 -.871E+01 -.363E+02   -.460E+01 0.858E+01 0.357E+02   -.160E+01 0.252E+00 0.434E+00   0.354E-05 0.155E-04 0.186E-04
   0.155E+02 -.845E+01 -.143E+03   -.149E+02 0.578E+01 0.144E+03   -.100E+01 0.262E+01 -.170E+01   -.104E-04 -.164E-04 0.184E-04
   0.143E+02 0.164E+01 0.901E+02   -.130E+02 -.737E+00 -.890E+02   -.151E+01 -.825E+00 -.123E+01   -.763E-05 0.111E-05 -.279E-05
   -.776E+01 -.549E+02 0.281E+03   0.784E+01 0.540E+02 -.280E+03   -.628E-01 0.122E+01 -.115E+01   -.675E-06 -.311E-05 -.146E-04
   -.176E+02 -.113E+02 0.209E+03   0.146E+02 0.912E+01 -.206E+03   0.321E+01 0.245E+01 -.280E+01   0.627E-05 0.185E-04 -.342E-04
   0.207E+02 0.127E+02 -.312E+03   -.195E+02 -.134E+02 0.314E+03   -.117E+01 0.109E+01 -.140E+01   0.197E-05 -.658E-05 0.217E-04
   0.150E+02 0.178E+01 0.176E+03   -.141E+02 0.822E+00 -.175E+03   -.756E+00 -.233E+01 -.118E+01   0.193E-05 0.905E-05 -.159E-04
   -.918E+01 -.325E+02 -.185E+03   0.804E+01 0.309E+02 0.183E+03   0.103E+01 0.181E+01 0.225E+01   0.260E-05 0.520E-05 0.344E-04
   0.225E+02 -.224E+02 0.311E+03   -.224E+02 0.196E+02 -.310E+03   -.251E+00 0.273E+01 -.171E+01   0.310E-05 0.207E-04 -.333E-04
   0.909E+01 -.327E+02 -.165E+03   -.859E+01 0.315E+02 0.165E+03   -.215E+00 0.136E+01 0.448E+00   -.805E-05 -.519E-05 0.440E-04
   0.604E+01 0.169E+02 0.254E+03   -.574E+01 -.147E+02 -.251E+03   -.350E+00 -.194E+01 -.251E+01   0.897E-05 -.260E-04 -.435E-05
   -.251E+01 -.192E+02 -.870E+02   0.241E+01 0.212E+02 0.843E+02   0.221E+00 -.176E+01 0.274E+01   0.622E-05 -.123E-05 0.271E-04
   -.219E+02 0.210E+01 0.266E+03   0.199E+02 -.210E+01 -.263E+03   0.173E+01 -.147E-01 -.247E+01   0.163E-04 -.150E-04 -.142E-04
   0.132E+02 -.309E+01 0.154E+03   -.129E+02 0.242E+01 -.156E+03   -.150E+00 0.871E+00 0.223E+01   -.116E-04 -.137E-04 -.784E-05
   0.357E+02 -.788E+01 0.200E+03   -.335E+02 0.706E+01 -.201E+03   -.217E+01 0.331E+00 0.131E+01   0.913E-05 -.739E-05 -.176E-04
   0.130E+02 -.128E+02 0.450E+02   -.124E+02 0.119E+02 -.450E+02   -.494E+00 0.100E+01 0.627E-01   -.932E-06 -.633E-05 -.348E-06
   -.218E+02 -.191E+02 -.304E+03   0.206E+02 0.185E+02 0.302E+03   0.116E+01 0.680E+00 0.190E+01   -.190E-04 -.136E-05 0.337E-04
   -.213E+02 0.754E+01 0.252E+03   0.209E+02 -.609E+01 -.247E+03   0.322E+00 -.140E+01 -.468E+01   -.165E-04 -.181E-05 -.170E-04
   0.224E+02 -.552E+01 0.303E+03   -.196E+02 0.592E+01 -.303E+03   -.273E+01 -.239E+00 -.210E+00   -.457E-05 0.167E-04 -.147E-04
   -.133E+01 -.188E+02 -.279E+03   -.530E-01 0.181E+02 0.275E+03   0.121E+01 0.806E+00 0.359E+01   -.275E-04 -.197E-04 0.258E-04
   0.585E+01 -.241E+02 -.247E+03   -.496E+01 0.227E+02 0.247E+03   -.117E+01 0.145E+01 0.741E+00   0.281E-04 -.138E-04 0.283E-04
   0.441E+02 0.553E+01 -.311E+03   -.435E+02 -.333E+01 0.311E+03   -.698E+00 -.174E+01 0.894E-01   -.680E-05 0.156E-05 0.283E-04
   0.643E+01 0.198E+01 0.206E+03   -.793E+01 -.315E+01 -.207E+03   0.124E+01 0.716E+00 0.227E+00   0.126E-04 0.239E-04 -.266E-04
   -.193E+01 0.184E+02 0.235E+03   0.107E+01 -.177E+02 -.231E+03   0.866E+00 -.576E+00 -.406E+01   -.145E-04 0.197E-04 -.217E-04
   -.128E+01 -.837E+01 -.100E+03   0.146E+01 0.726E+01 0.990E+02   -.125E+00 0.811E+00 0.101E+01   -.974E-05 0.950E-05 0.295E-04
   0.241E+02 -.832E+01 0.816E+02   -.230E+02 0.696E+01 -.783E+02   -.133E+01 0.130E+01 -.322E+01   -.210E-05 -.100E-04 0.555E-05
   -.206E+02 -.394E+01 -.210E+03   0.228E+02 0.482E+01 0.212E+03   -.209E+01 -.700E+00 -.148E+01   0.134E-04 -.733E-05 0.331E-04
   -.340E+02 -.823E+01 0.297E+03   0.324E+02 0.715E+01 -.292E+03   0.147E+01 0.102E+01 -.375E+01   0.600E-05 0.234E-04 -.300E-04
   -.113E+02 0.375E+02 -.323E+03   0.124E+02 -.411E+02 0.322E+03   -.971E+00 0.281E+01 0.123E+01   -.168E-05 0.560E-05 0.416E-04
   -.257E+02 -.186E+02 0.158E+03   0.239E+02 0.172E+02 -.156E+03   0.194E+01 0.137E+01 -.238E+01   0.414E-05 -.288E-05 -.806E-05
   -.112E+02 0.954E+01 0.290E+03   0.919E+01 -.104E+02 -.287E+03   0.155E+01 0.100E+01 -.226E+01   0.603E-05 0.229E-04 -.181E-04
   -.683E+01 0.152E+02 0.102E+03   0.657E+01 -.138E+02 -.101E+03   0.247E+00 -.152E+01 -.540E+00   -.856E-05 -.631E-05 0.126E-04
   0.144E+02 0.262E+02 -.132E+03   -.148E+02 -.252E+02 0.131E+03   0.133E+00 -.117E+01 0.124E+01   -.483E-05 -.222E-04 0.289E-04
   0.247E+01 0.548E+01 0.285E+03   -.178E+01 -.382E+01 -.282E+03   -.177E+00 -.147E+01 -.271E+01   0.113E-04 -.778E-05 -.204E-04
   -.272E+02 0.230E+02 -.206E+03   0.252E+02 -.220E+02 0.204E+03   0.208E+01 -.127E+01 0.233E+01   -.690E-05 0.198E-04 0.322E-04
   0.817E+01 -.128E+02 0.284E+03   -.739E+01 0.116E+02 -.282E+03   -.135E+01 0.922E+00 -.249E+01   0.767E-05 -.865E-05 -.232E-04
   -.114E+01 0.163E+02 0.304E+03   0.108E+01 -.169E+02 -.303E+03   0.660E-01 0.501E+00 -.646E+00   -.165E-05 -.282E-04 -.321E-04
   0.213E+02 0.443E+01 0.127E+02   -.192E+02 -.445E+01 -.125E+02   -.187E+01 0.121E+00 -.314E+00   0.245E-06 0.173E-04 0.207E-04
   -.654E+01 -.205E+02 0.848E+02   0.611E+01 0.196E+02 -.864E+02   0.615E+00 0.861E+00 0.143E+01   0.615E-05 -.220E-05 -.819E-05
   0.112E+01 -.845E+00 0.173E+02   -.188E+01 -.302E+00 -.172E+02   0.913E+00 0.793E+00 -.226E+00   -.131E-04 0.487E-05 0.105E-04
   -.310E+01 0.557E+01 -.131E+03   0.387E+01 -.673E+01 0.131E+03   -.102E+01 0.921E+00 0.594E+00   0.108E-05 0.184E-04 0.307E-04
 -----------------------------------------------------------------------------------------------
   0.110E+02 -.481E+01 0.979E+01   -.306E-13 0.266E-14 0.199E-12   -.110E+02 0.480E+01 -.980E+01   -.798E-05 0.136E-04 0.598E-03


 POSITION                                       TOTAL-FORCE (eV/Angst)
 -----------------------------------------------------------------------------------
     11.46607      3.78153     12.97328         0.052287     -0.151859     -0.034288
      4.02678      7.95975     13.86241        -0.316509     -0.064419     -0.270930
     10.20025      2.96062     14.45477        -0.052467     -0.059017     -0.017952
      8.09707     13.96864     15.63572        -0.213200     -0.098843      0.120102
      5.78521      7.22932      9.82580        -0.112093      0.225760     -0.136538
      0.87031      1.37745     15.12181        -0.201690     -0.258016      0.332558
      8.40460      9.03091     14.11310        -0.098138      0.068594     -0.125914
      4.71591      4.05831     12.46736         0.143268      0.114162     -0.219597
     13.15349      2.09427     14.89247        -0.152618      0.125590     -0.108593
     11.67809      7.43857     13.79148         0.052443      0.175663      0.088913
      1.87198      5.05605     14.16469        -0.172206     -0.108476      0.151871
     10.74219     12.81195     15.97651        -0.063841     -0.357624     -0.124747
      0.85724      8.04669     14.36371         0.136090      0.088561      0.330934
      2.18550     11.07362     16.10220         0.162251     -0.061550      0.018485
     10.70191      9.52292     14.27512        -0.142357     -0.183128     -0.118236
     13.64636      1.59818     12.58414        -0.162176     -0.023879      0.006338
     10.20451      0.83609     10.99371        -0.032639     -0.082782      0.036158
      6.44817     14.39099     10.48026        -0.210062      0.052228     -0.126051
     13.33936      4.42300     15.51888         0.031327     -0.100700      0.145937
     10.69688     11.09944     12.54201         0.140072      0.167565     -0.027912
      1.13244     11.04896     12.37290         0.007320      0.038934     -0.082688
      1.01042      4.69233     16.74801         0.036098     -0.027119     -0.269340
      5.05119     13.63884     15.81852         0.301912     -0.033185     -0.043485
      4.34157     10.70915     10.86967         0.078764      0.037821     -0.038290
      5.31131     11.58930     14.68003        -0.076562      0.139378      0.071516
     11.56245      5.95484     15.62801        -0.292423     -0.108673     -0.045025
      5.99493      4.28028     16.05522         0.563515      0.370689     -0.336567
      2.75314     13.28118     15.58023        -0.204955      0.188394      0.258548
     11.79414      0.15596     12.61053         0.263835     -0.067079     -0.273329
      4.24457     10.08062     16.18263         0.150278     -0.247000      0.238413
      4.82171     14.45724     12.14026        -0.093896     -0.101487     -0.185996
      0.67994     10.30975     14.51582        -0.058897     -0.072648     -0.234271
      8.73838     12.36058     12.90682         0.275461     -0.014664      0.061140
      2.70738      7.82840     12.90402         0.368088      0.068555      0.140532
     11.65965     10.71855     16.08829         0.131473     -0.147716      0.230332
     10.36662      6.32427     12.17703         0.101744     -0.111411     -0.044898
      2.88584      0.97554     11.45408         0.243777      0.001052      0.212758
      0.26349      8.16504     10.82886         0.126471     -0.268545     -0.302851
      1.33903      0.01780     16.92856         0.128143      0.043196      0.264635
      8.75524      3.35913     14.51273         0.205535      0.131678      0.008339
      7.65073      1.47992     13.64595        -0.009617      0.105864     -0.108420
     13.41645     11.69928     14.92961        -0.357115      0.057419     -0.228600
      1.19419      0.52292     12.93038        -0.204236      0.031907     -0.115304
     14.00976     11.87867     11.02162        -0.033225      0.131021     -0.384858
     11.65416      4.40385     11.62055         0.285008      0.282232     -0.117321
      8.46325     12.54591     16.30824         0.054849      0.592288     -0.085788
      6.79993      4.93247     11.74388         0.103921      0.150186     -0.062436
     11.31615      0.34130     14.95577        -0.089463      0.202402     -0.081786
      7.96560      3.46826     10.30264        -0.023971      0.013411      0.161932
      7.93524      6.94704     15.03994         0.275970      0.254518      0.364292
      6.60503     10.42290     10.92488        -0.099216      0.247327      0.147075
      9.08651     14.27822     14.26328         0.130816      0.098371      0.238596
      7.56038     12.45963     10.93609        -0.276852     -0.054653      0.007314
      7.78979      8.63445     11.78725         0.171769      0.253644      0.243112
      6.13596      7.09829     11.26187        -0.033972     -0.511494      0.015581
      2.11846     12.93163     13.31483         0.086629      0.098995      0.179326
      9.41749      5.76675     16.43325         0.003945      0.055129     -0.654081
      2.41278      9.43807     11.31423        -0.102323     -0.009073      0.038122
      1.56473      4.51864     10.64753         0.027472      0.020521      0.314944
      1.95593      6.70154     15.87172        -0.096595      0.056127     -0.068969
      5.88654      6.51545     15.97296        -0.349242      0.019088     -0.052563
      0.35980     12.47853     16.64012         0.006351      0.395482     -0.438779
      7.95210      1.37911     11.31548        -0.154614     -0.413205      0.142408
     13.95862      3.73515     11.59230         0.058653      0.109522     -0.147694
      5.45279      0.85468     14.24777         0.060346     -0.218177      0.098039
     13.84431      7.28643     12.86567        -0.268746      0.004690     -0.006964
      4.04364      7.81228     15.57840         0.021829      0.126152      0.154251
     10.20366      3.06021     10.47280        -0.143154     -0.033984      0.354173
      8.17633      3.77299     16.72362         0.054107     -0.420577      0.277518
      2.96480      5.61810     12.20767         0.252139     -0.037324     -0.215349
      3.36936      3.05815     10.77054        -0.476399      0.195483      0.210144
      4.27024     12.24376     12.62704        -0.040240     -0.212715     -0.103884
      7.59331     11.17411     14.57680        -0.181738     -0.178787     -0.141225
     13.19325      9.78697     10.63721         0.508256      0.130330      0.214911
      2.31263      3.17985     15.38658         0.047551     -0.180660      0.165278
     10.95295      9.69039     10.70481        -0.566659     -0.303712      0.288810
      9.60483      7.83323     10.54147         0.043938      0.024834      0.055443
     14.22755      5.06511     13.45616         0.185670      0.110515     -0.109576
     12.58536     12.47533     12.75857         0.196215     -0.019058     -0.108145
      8.46769      5.38596     13.31793         0.191976     -0.298528     -0.105944
      4.58767      3.01478     14.66901        -0.303454     -0.163511      0.116405
 -----------------------------------------------------------------------------------
    total drift:                                0.007115     -0.008329     -0.001861


--------------------------------------------------------------------------------------------------------



  FREE ENERGIE OF THE ION-ELECTRON SYSTEM (eV)
  ---------------------------------------------------
  free  energy   TOTEN  =      -728.19283961 eV

  energy  without entropy=     -728.03567114  energy(sigma->0) =     -728.11425537



--------------------------------------------------------------------------------------------------------


    POTLOK:  cpu time      3.6872: real time      3.6915


--------------------------------------------------------------------------------------------------------


     LOOP+:  cpu time   8844.0980: real time   8849.8705
    4ORBIT:  cpu time      0.0000: real time      0.0000



 total charge

# of ion       s       p       d       tot
------------------------------------------
    1        0.559   0.017   0.000   0.575
    2        0.558   0.018   0.000   0.576
    3        0.566   0.016   0.000   0.581
    4        0.560   0.020   0.000   0.580
    5        0.564   0.016   0.000   0.580
    6        0.766   0.923   0.000   1.689
    7        0.748   0.938   0.000   1.686
    8        0.764   0.879   0.000   1.643
    9        0.769   0.862   0.000   1.631
   10        0.753   0.925   0.000   1.679
   11        0.772   0.968   0.000   1.740
   12        0.792   0.863   0.000   1.655
   13        0.763   0.974   0.000   1.737
   14        0.766   0.944   0.000   1.710
   15        0.758   0.928   0.000   1.687
   16        0.762   0.908   0.000   1.670
   17        0.788   0.875   0.000   1.663
   18        0.803   0.898   0.000   1.700
   19        0.759   0.884   0.000   1.643
   20        0.763   0.933   0.000   1.696
   21        0.769   0.947   0.000   1.716
   22        0.828   0.763   0.000   1.592
   23        0.809   0.843   0.000   1.652
   24        0.785   0.860   0.000   1.645
   25        0.758   0.913   0.000   1.671
   26        0.769   0.877   0.000   1.645
   27        0.780   0.886   0.000   1.665
   28        0.761   0.932   0.000   1.692
   29        0.755   0.915   0.000   1.669
   30        0.791   0.866   0.000   1.657
   31        0.766   0.927   0.000   1.693
   32        0.763   0.975   0.000   1.738
   33        0.762   0.930   0.000   1.692
   34        0.783   0.898   0.000   1.681
   35        0.806   0.869   0.000   1.675
   36        0.757   0.908   0.000   1.665
   37        0.793   0.894   0.000   1.688
   38        0.806   0.806   0.000   1.613
   39        0.820   0.872   0.000   1.692
   40        0.746   0.947   0.000   1.693
   41        0.761   0.952   0.000   1.713
   42        0.760   0.917   0.000   1.677
   43        0.757   0.938   0.000   1.695
   44        0.806   0.896   0.000   1.701
   45        0.750   0.961   0.000   1.711
   46        0.829   0.813   0.000   1.641
   47        0.749   0.940   0.000   1.689
   48        0.764   0.858   0.000   1.622
   49        0.793   0.876   0.000   1.669
   50        0.754   0.937   0.000   1.690
   51        0.774   0.912   0.000   1.686
   52        0.772   0.856   0.000   1.628
   53        0.782   0.910   0.000   1.692
   54        0.751   0.933   0.000   1.684
   55        0.780   0.901   0.000   1.681
   56        0.772   0.924   0.000   1.696
   57        0.786   0.860   0.000   1.646
   58        0.759   0.929   0.000   1.688
   59        0.793   0.827   0.000   1.620
   60        0.759   0.928   0.000   1.687
   61        0.768   0.939   0.000   1.707
   62        0.819   0.799   0.000   1.619
   63        0.758   0.935   0.000   1.693
   64        0.758   0.902   0.000   1.660
   65        0.756   0.916   0.000   1.672
   66        0.752   0.945   0.000   1.697
   67        0.773   0.867   0.000   1.640
   68        0.791   0.891   0.000   1.681
   69        0.805   0.858   0.000   1.663
   70        0.766   0.923   0.000   1.689
   71        0.788   0.880   0.000   1.668
   72        0.772   0.904   0.000   1.677
   73        0.758   0.941   0.000   1.699
   74        0.792   0.897   0.000   1.689
   75        0.761   0.936   0.000   1.697
   76        0.783   0.896   0.000   1.678
   77        0.793   0.873   0.000   1.666
   78        0.767   0.971   0.000   1.738
   79        0.758   0.917   0.000   1.674
   80        0.761   0.915   0.000   1.676
   81        0.752   0.894   0.000   1.646
--------------------------------------------------
tot         61.621  68.685   0.000 130.306


 total amount of memory used by VASP MPI-rank0   408328. kBytes
=======================================================================

   base                                    :      30000. kBytes
   nonl-proj                               :      77896. kBytes
   fftplans                                :     108827. kBytes
   grid                                    :      83991. kBytes
   one-center                              :         18. kBytes
   wavefun                                 :     107596. kBytes

  
  
 General timing and accounting informations for this job:
 ========================================================
  
                  Total CPU time used (sec):     9007.820
                            User time (sec):     7973.190
                          System time (sec):     1034.630
                         Elapsed time (sec):     9013.614
  
                   Maximum memory used (kb):      679740.
                   Average memory used (kb):          N/A
  
                          Minor page faults:     16461610
                          Major page faults:         1208
                 Voluntary context switches:         3154
