 vasp.6.5.0 16Dec24 (build Jan 20 2025 08:32:48) complex                         
 executed on        HPECrayEX_GCC date 2025.07.21  23:57:23
 running  128 mpi-ranks, with    1 threads/rank, on    1 nodes
 distrk:  each k-point on  128 cores,    1 groups
 distr:  one band on NCORE=  16 cores,    8 groups


--------------------------------------------------------------------------------------------------------


 INCAR:
   SYSTEM = a-Si SPC
   NCORE = 16
   ISTART = 1
   ICHARG = 1
   ISPIN = 1
   ISYM = 1
   EDIFF = 1E-6
   NELM = 150
   EDIFFG = -0.01
   NSW = 0
   ISIF = 2
   IBRION = -1
   PREC = Accurate
   ENCUT = 1200
   KSPACING = 0.23
   KGAMMA = .TRUE.
   METAGGA = SCAN
   LASPH = .TRUE.
   LDIAG = .FALSE.
   LMIXTAU = .TRUE.
   ADDGRID = .TRUE.
   ALGO = Normal
   ISMEAR = 0
   SIGMA = 0.1
   LORBIT = 11
   NEDOS = 2000
   LWAVE = .FALSE.
   LCHARG = .FALSE.

 POTCAR:    PAW_PBE H 15Jun2001                   
 POTCAR:    PAW_PBE Si 05Jan2001                  
 POTCAR:    PAW_PBE H 15Jun2001                   
   SHA256 =  030f79b5d3ab3cf0e668861823c8fb652ff669f3e15e46930bd03bfd63a607b6 H/POTCAR              
   COPYR  = (c) Copyright 15Jun2001 Georg Kresse                                                    
   COPYR  = This file is part of the software VASP. Any use, copying, and all other rights are regul
   COPYR  = If you do not have a valid VASP license, you may not use, copy or distribute this file. 
   VRHFIN =H: ultrasoft test                                                                        
   LEXCH  = PE                                                                                      
   EATOM  =    12.4884 eV,    0.9179 Ry                                                             
                                                                                                    
   TITEL  = PAW_PBE H 15Jun2001                                                                     
   LULTRA =        F    use ultrasoft PP ?                                                          
   IUNSCR =        0    unscreen: 0-lin 1-nonlin 2-no                                               
   RPACOR =    0.000    partial core radius                                                         
   POMASS =    1.000; ZVAL   =    1.000    mass and valenz                                          
   RCORE  =    1.100    outmost cutoff radius                                                       
   RWIGS  =    0.700; RWIGS  =    0.370    wigner-seitz radius (au A)                               
   ENMAX  =  250.000; ENMIN  =  200.000 eV                                                          
   RCLOC  =    0.701    cutoff for local pot                                                        
   LCOR   =        T    correct aug charges                                                         
   LPAW   =        T    paw PP                                                                      
   EAUG   =  400.000                                                                                
   RMAX   =    1.123    core radius for proj-oper                                                   
   RAUG   =    1.200    factor for augmentation sphere                                              
   RDEP   =    1.112    radius for radial grids                                                     
   RDEPT  =    0.926    core radius for aug-charge                                                  
                                                                                                    
   Atomic configuration                                                                             
    2 entries                                                                                       
     n  l   j            E        occ.                                                              
     1  0  0.50        -6.4927   1.0000                                                             
     2  1  0.50        -3.4015   0.0000                                                             
   Description                                                                                      
     l       E           TYP  RCUT    TYP  RCUT                                                     
     0     -6.4927494     23  1.100                                                                 
     0      6.8029130     23  1.100                                                                 
     1     -4.0817478     23  1.100                                                                 
  local pseudopotential read in
  atomic valenz-charges read in
  non local Contribution for L=           0  read in
    real space projection operators read in
  non local Contribution for L=           0  read in
    real space projection operators read in
  non local Contribution for L=           1  read in
    real space projection operators read in
    PAW grid and wavefunctions read in

   number of l-projection  operators is LMAX  =           3
   number of lm-projection operators is LMMAX =           5

 POTCAR:    PAW_PBE Si 05Jan2001                  
   SHA256 =  79d9987ad8750f624c4d6acb2a16d13abf6a777132adc04dc6c8399be72b42bb Si/POTCAR             
   COPYR  = (c) Copyright 05Jan2001 Georg Kresse                                                    
   COPYR  = This file is part of the software VASP. Any use, copying, and all other rights are regul
   COPYR  = If you do not have a valid VASP license, you may not use, copy or distribute this file. 
   VRHFIN =Si: s2p2                                                                                 
   LEXCH  = PE                                                                                      
   EATOM  =   103.0669 eV,    7.5752 Ry                                                             
                                                                                                    
   TITEL  = PAW_PBE Si 05Jan2001                                                                    
   LULTRA =        F    use ultrasoft PP ?                                                          
   IUNSCR =        1    unscreen: 0-lin 1-nonlin 2-no                                               
   RPACOR =    1.500    partial core radius                                                         
   POMASS =   28.085; ZVAL   =    4.000    mass and valenz                                          
   RCORE  =    1.900    outmost cutoff radius                                                       
   RWIGS  =    2.480; RWIGS  =    1.312    wigner-seitz radius (au A)                               
   ENMAX  =  245.345; ENMIN  =  184.009 eV                                                          
   ICORE  =        2    local potential                                                             
   LCOR   =        T    correct aug charges                                                         
   LPAW   =        T    paw PP                                                                      
   EAUG   =  322.069                                                                                
   DEXC   =    0.000                                                                                
   RMAX   =    1.950    core radius for proj-oper                                                   
   RAUG   =    1.300    factor for augmentation sphere                                              
   RDEP   =    1.993    radius for radial grids                                                     
   RDEPT  =    1.837    core radius for aug-charge                                                  
                                                                                                    
   Atomic configuration                                                                             
    6 entries                                                                                       
     n  l   j            E        occ.                                                              
     1  0  0.50     -1785.8828   2.0000                                                             
     2  0  0.50      -139.4969   2.0000                                                             
     2  1  1.50       -95.5546   6.0000                                                             
     3  0  0.50       -10.8127   2.0000                                                             
     3  1  0.50        -4.0811   2.0000                                                             
     3  2  1.50        -4.0817   0.0000                                                             
   Description                                                                                      
     l       E           TYP  RCUT    TYP  RCUT                                                     
     0    -10.8127223     23  1.900                                                                 
     0     -7.6451159     23  1.900                                                                 
     1     -4.0811372     23  1.900                                                                 
     1      2.4879257     23  1.900                                                                 
     2     -4.0817478      7  1.900                                                                 
  local pseudopotential read in
  partial core-charges read in
  partial kinetic energy density read in
  atomic valenz-charges read in
  non local Contribution for L=           0  read in
    real space projection operators read in
  non local Contribution for L=           0  read in
    real space projection operators read in
  non local Contribution for L=           1  read in
    real space projection operators read in
  non local Contribution for L=           1  read in
    real space projection operators read in
    PAW grid and wavefunctions read in

   number of l-projection  operators is LMAX  =           4
   number of lm-projection operators is LMMAX =           8

 -----------------------------------------------------------------------------
|                                                                             |
|               ----> ADVICE to this user running VASP <----                  |
|                                                                             |
|     You have a (more or less) 'large supercell' and for larger cells it     |
|     might be more efficient to use real-space projection operators.         |
|     Therefore, try LREAL= Auto in the INCAR file.                           |
|     Mind: For very accurate calculation, you might also keep the            |
|     reciprocal projection scheme (i.e. LREAL=.FALSE.).                      |
|                                                                             |
 -----------------------------------------------------------------------------

 -----------------------------------------------------------------------------
|                                                                             |
|               ----> ADVICE to this user running VASP <----                  |
|                                                                             |
|     You enforced a specific xc type in the INCAR file but a different       |
|     type was found in the POTCAR file.                                      |
|     I HOPE YOU KNOW WHAT YOU ARE DOING!                                     |
|                                                                             |
 -----------------------------------------------------------------------------

  PAW_PBE H 15Jun2001                   :
 energy of atom  1       EATOM=  -12.4884
 kinetic energy error for atom=    0.0000 (will be added to EATOM!!)
  PAW_PBE Si 05Jan2001                  :
 energy of atom  2       EATOM= -103.0669
 kinetic energy error for atom=    0.0001 (will be added to EATOM!!)


 POSCAR:  H Si
  positions in cartesian coordinates
  No initial velocities read in


 exchange-correlation table for SCAN
   RHO(1)=    0.500       N(1)  =     2000
   RHO(2)=  100.500       N(2)  =     4000



--------------------------------------------------------------------------------------------------------


 ion  position               nearest neighbor table
   1  0.986  0.814  0.652-  24 1.55
   2  0.389  0.022  0.346-  16 1.38
   3  0.320  0.887  0.482-  27 1.44
   4  0.173  0.109  0.180-  83 1.51
   5  0.076  0.080  0.764-  29 1.45
   6  0.316  0.885  0.171-  30 1.57
   7  0.886  0.726  0.312-  54 1.56
   8  0.201  0.693  0.458-  39 1.51
   9  0.149  0.223  0.514-  32 1.50
  10  0.461  0.388  0.944-  53 2.40  55 2.44  57 2.46  37 2.65
  11  0.142  0.670  0.990-  75 2.35  26 2.43  77 2.46
  12  0.483  0.608  0.588-  19 2.23  66 2.37  46 2.38  50 2.44
  13  0.178  0.381  0.673-  17 2.28  48 2.29  32 2.35  38 2.57
  14  0.002  0.346  0.952-  76 2.27  84 2.42  82 2.47  17 2.54
  15  0.356  0.997  0.900-  74 2.41  30 2.44  97 2.48  28 2.54
  16  0.456  0.083  0.384-   2 1.38  95 2.38  59 2.39  18 2.41
  17  0.168  0.383  0.892-  26 2.26  13 2.28  40 2.39  14 2.54
  18  0.415  0.223  0.275-  93 2.26  55 2.39  16 2.41  78 2.48
  19  0.353  0.542  0.521-  12 2.23  39 2.33  51 2.37  48 2.45
  20  0.950  0.603  0.296-  60 2.27  42 2.38  70 2.40
  21  0.546  0.721  0.908-  66 2.33  34 2.41  80 2.51  35 2.53
  22  0.639  0.131  0.693-  49 2.26  59 2.29  94 2.30  96 2.38  72 3.13
  23  0.659  0.959  0.936-  36 2.31  35 2.34  96 2.36  79 2.40
  24  0.888  0.832  0.704-   1 1.55  45 2.31  91 2.32  65 2.42
  25  0.839  0.583  0.594-  61 2.33  60 2.33  86 2.36  45 2.52
  26  0.213  0.518  0.979-  17 2.26  41 2.40  11 2.43  53 2.53
  27  0.393  0.856  0.566-   3 1.44  74 2.38  46 2.43  56 2.44
  28  0.463  0.129  0.955-  96 2.25  55 2.37  31 2.40  15 2.54
  29  0.985  0.113  0.797-   5 1.45  64 2.29  65 2.41  84 2.48
  30  0.347  0.858  0.031-   6 1.57  75 2.32  34 2.37  15 2.44
  31  0.419  0.186  0.747-  97 2.38  57 2.40  28 2.40  59 2.43
  32  0.075  0.288  0.557-   9 1.50  64 2.29  87 2.31  13 2.35
  33  0.810  0.229  0.312-  62 2.28  43 2.34  72 2.37  73 2.39
  34  0.495  0.806  0.093-  69 2.32  30 2.37  21 2.41  36 2.47
  35  0.593  0.862  0.781-  23 2.34  52 2.38  74 2.46  21 2.53
  36  0.619  0.916  0.142-  23 2.31  95 2.41  58 2.46  34 2.47
  37  0.626  0.445  0.019-  67 2.20  89 2.28  80 2.54  10 2.65
  38  0.105  0.535  0.606-  39 2.40  86 2.43  13 2.57  70 2.59
  39  0.231  0.639  0.576-   8 1.51  19 2.33  38 2.40  56 2.51
  40  0.244  0.245  0.960-  55 2.34  97 2.35  17 2.39  83 2.43
  41  0.185  0.483  0.200-  70 2.31  51 2.35  26 2.40  85 2.42
  42  0.900  0.577  0.082-  20 2.38  77 2.40  63 2.40  76 2.41
  43  0.890  0.368  0.300-  33 2.34  87 2.34  60 2.36  76 2.47
  44  0.696  0.963  0.456-  58 2.33  94 2.35  52 2.57  95 2.58
  45  0.792  0.750  0.569-  54 2.27  24 2.31  52 2.32  25 2.52
  46  0.508  0.751  0.482-  12 2.38  52 2.43  27 2.43  69 2.44
  47  0.722  0.204  0.037-  73 2.27  89 2.36  96 2.37  62 2.39
  48  0.323  0.383  0.586-  13 2.29  57 2.31  78 2.42  19 2.45
  49  0.690  0.271  0.632-  22 2.26  88 2.27  72 2.31  71 2.40
  50  0.617  0.514  0.533-  71 2.36  68 2.39  61 2.43  12 2.44
  51  0.327  0.498  0.305-  41 2.35  19 2.37  90 2.42  78 2.43
  52  0.647  0.816  0.575-  45 2.32  35 2.38  46 2.43  44 2.57
  53  0.386  0.534  0.973-  10 2.40  66 2.43  90 2.45  26 2.53
  54  0.791  0.767  0.352-   7 1.56  45 2.27  92 2.32  58 2.35
  55  0.390  0.257  0.052-  40 2.34  28 2.37  18 2.39  10 2.44
  56  0.322  0.747  0.714-  75 2.30  27 2.44  66 2.46  39 2.51
  57  0.447  0.347  0.716-  48 2.31  31 2.40  10 2.46  71 2.50
  58  0.764  0.914  0.264-  81 2.32  44 2.33  54 2.35  36 2.46  95 3.08
  59  0.503  0.084  0.604-  22 2.29  74 2.37  16 2.39  31 2.43
  60  0.847  0.509  0.396-  20 2.27  25 2.33  43 2.36  68 2.41
  61  0.716  0.532  0.719-  80 2.32  25 2.33  88 2.35  50 2.43
  62  0.862  0.152  0.134-  33 2.28  84 2.30  81 2.34  47 2.39
  63  0.765  0.668  0.044-  80 2.26  42 2.40  92 2.41  91 2.52
  64  0.948  0.232  0.662-  32 2.29  29 2.29  72 2.45  82 2.49
  65  0.874  0.992  0.763-  79 2.32  94 2.39  29 2.41  24 2.42
  66  0.434  0.636  0.801-  21 2.33  12 2.37  53 2.43  56 2.46
  67  0.575  0.451  0.217-  37 2.20  68 2.29  93 2.33  90 2.35
  68  0.690  0.524  0.327-  67 2.29  92 2.34  50 2.39  60 2.41
  69  0.519  0.702  0.259-  34 2.32  90 2.40  46 2.44  92 2.45
  70  0.080  0.513  0.362-  41 2.31  87 2.33  20 2.40  38 2.59
  71  0.565  0.360  0.543-  50 2.36  49 2.40  57 2.50  93 2.55
  72  0.811  0.195  0.535-  94 2.29  49 2.31  33 2.37  64 2.45  22 3.13
  73  0.657  0.203  0.235-  47 2.27  33 2.39  93 2.41  95 2.50
  74  0.456  0.954  0.726-  59 2.37  27 2.38  15 2.41  35 2.46
  75  0.245  0.778  0.902-  56 2.30  30 2.32  11 2.35
  76  0.889  0.412  0.071-  14 2.27  89 2.38  42 2.41  43 2.47
  77  0.983  0.655  0.914-  42 2.40  11 2.46  86 2.46  91 2.53
  78  0.305  0.338  0.364-  85 2.42  48 2.42  51 2.43  18 2.48
  79  0.822  0.937  0.959-  81 2.26  65 2.32  23 2.40  91 2.44
  80  0.666  0.596  0.910-  63 2.26  61 2.32  21 2.51  37 2.54
  81  0.875  0.992  0.148-  79 2.26  58 2.32  62 2.34
  82  0.919  0.387  0.753-  88 2.30  86 2.47  14 2.47  64 2.49
  83  0.132  0.193  0.117-   4 1.51  85 2.28  84 2.34  40 2.43
  84  0.990  0.186  0.013-  62 2.30  83 2.34  14 2.42  29 2.48
  85  0.167  0.319  0.238-  83 2.28  87 2.28  78 2.42  41 2.42
  86  0.964  0.550  0.731-  25 2.36  38 2.43  77 2.46  82 2.47
  87  0.044  0.357  0.363-  85 2.28  32 2.31  70 2.33  43 2.34
  88  0.761  0.378  0.755-  49 2.27  89 2.30  82 2.30  61 2.35
  89  0.752  0.357  0.973-  37 2.28  88 2.30  47 2.36  76 2.38
  90  0.456  0.559  0.185-  67 2.35  69 2.40  51 2.42  53 2.45
  91  0.859  0.778  0.910-  24 2.32  79 2.44  63 2.52  77 2.53
  92  0.685  0.674  0.246-  54 2.32  68 2.34  63 2.41  69 2.45
  93  0.542  0.309  0.311-  18 2.26  67 2.33  73 2.41  71 2.55
  94  0.766  0.055  0.614-  72 2.29  22 2.30  44 2.35  65 2.39
  95  0.598  0.046  0.284-  16 2.38  36 2.41  73 2.50  44 2.58  58 3.08
  96  0.615  0.115  0.918-  28 2.25  23 2.36  47 2.37  22 2.38
  97  0.271  0.129  0.807-  40 2.35  31 2.38  15 2.48

  LATTYP: Found a simple tetragonal cell.
 ALAT       =    14.5342042383
 C/A-ratio  =     0.7162123204
  
  Lattice vectors:
  
 A1 = (  14.5342042383,   0.0000000000,   0.0000000000)
 A2 = (   0.0000000000,  14.5342042383,   0.0000000000)
 A3 = (   0.0000000000,   0.0000000000,  10.4095761433)


Analysis of symmetry for initial positions (statically):
=====================================================================
 Subroutine PRICEL returns:
 Original cell was already a primitive cell.
 

 Routine SETGRP: Setting up the symmetry group for a 
 simple tetragonal supercell.


 Subroutine GETGRP returns: Found  1 space group operations
 (whereof  1 operations were pure point group operations)
 out of a pool of 16 trial point group operations.


The static configuration has the point symmetry C_1 .


Analysis of symmetry for dynamics (positions and initial velocities):
=====================================================================
 Subroutine PRICEL returns:
 Original cell was already a primitive cell.
 

 Routine SETGRP: Setting up the symmetry group for a 
 simple tetragonal supercell.


 Subroutine GETGRP returns: Found  1 space group operations
 (whereof  1 operations were pure point group operations)
 out of a pool of 16 trial point group operations.


The dynamic configuration has the point symmetry C_1 .


 Subroutine INISYM returns: Found  1 space group operations
 (whereof  1 operations are pure point group operations),
 and found     1 'primitive' translations


----------------------------------------------------------------------------------------

                                     Primitive cell                                     

  volume of cell :    2198.9511

  direct lattice vectors                    reciprocal lattice vectors
    14.534204238  0.000000000  0.000000000     0.068803216  0.000000000  0.000000000
     0.000000000 14.534204238  0.000000000     0.000000000  0.068803216  0.000000000
     0.000000000  0.000000000 10.409576143     0.000000000  0.000000000  0.096065391

  length of vectors
    14.534204238 14.534204238 10.409576143     0.068803216  0.068803216  0.096065391

  position of ions in fractional coordinates (direct lattice)
     0.986204663  0.814292947  0.651502031
     0.389391803  0.021656225  0.346146659
     0.319763636  0.887072989  0.482062855
     0.173046282  0.109281525  0.179726818
     0.076282814  0.080358029  0.763623791
     0.315763417  0.885187781  0.170708199
     0.885683164  0.726486282  0.312226930
     0.201439993  0.692758945  0.458443258
     0.148661734  0.222751789  0.513606887
     0.461231994  0.388213892  0.944465929
     0.142364175  0.669943799  0.989579197
     0.483332963  0.607725050  0.587631035
     0.177965712  0.380998499  0.672912125
     0.002423985  0.346469605  0.952276045
     0.355808953  0.997075572  0.899657188
     0.455777963  0.083326887  0.384318242
     0.168043600  0.382872011  0.891966193
     0.414871699  0.223141904  0.274621172
     0.352855231  0.542068893  0.521278669
     0.949890326  0.603335405  0.296294485
     0.545982420  0.720899461  0.908252158
     0.639035330  0.130986187  0.692942719
     0.658838272  0.958951709  0.936352246
     0.888091277  0.832092339  0.703530086
     0.838979541  0.583486365  0.594148111
     0.212706520  0.518273300  0.979021610
     0.392708807  0.856145943  0.565507175
     0.463166052  0.129330782  0.954592182
     0.984911163  0.112842779  0.797116029
     0.347093650  0.858361407  0.031274280
     0.418633170  0.186072795  0.747001597
     0.074896429  0.287605013  0.557404060
     0.810488129  0.229006002  0.311944498
     0.494759113  0.805651263  0.093458752
     0.592602791  0.862324472  0.781465056
     0.618621416  0.916121707  0.142432312
     0.626204906  0.444943520  0.019122200
     0.104787987  0.534530812  0.606447363
     0.231116196  0.638673425  0.575593081
     0.243964509  0.245249065  0.959570290
     0.184732508  0.482541726  0.200427949
     0.900441454  0.576945931  0.081575848
     0.889825118  0.368476314  0.299901740
     0.696474319  0.963258791  0.455592037
     0.792028226  0.749714248  0.569419919
     0.508488795  0.750932065  0.482407730
     0.722082876  0.203641008  0.037122933
     0.323114353  0.382902284  0.586434060
     0.689614638  0.271370894  0.631547328
     0.617108433  0.513997869  0.533134099
     0.327069162  0.498377474  0.304506154
     0.646878209  0.816418966  0.575203055
     0.386266761  0.534166155  0.972748540
     0.790569598  0.767217786  0.352333270
     0.390256660  0.256994462  0.052409242
     0.322018318  0.746803872  0.714013702
     0.446987664  0.347114979  0.715927325
     0.763695062  0.913858081  0.263959835
     0.502948760  0.083987398  0.603939095
     0.847332251  0.509072246  0.395714479
     0.716372209  0.531558514  0.719354938
     0.861780927  0.152273215  0.134400285
     0.765112408  0.668194133  0.043798421
     0.948101442  0.231725105  0.661806966
     0.873560038  0.992335030  0.762861032
     0.433776070  0.636258432  0.800677173
     0.574768309  0.451495651  0.217353711
     0.689827928  0.524054147  0.327475389
     0.519143661  0.701792808  0.258771343
     0.079853013  0.513194935  0.361696763
     0.565254201  0.360048608  0.542756969
     0.810797743  0.195184405  0.534695162
     0.657365195  0.202992882  0.235355404
     0.456212799  0.954066681  0.725546352
     0.244732353  0.778377668  0.901634214
     0.889033881  0.411653084  0.070663492
     0.982723221  0.655243304  0.914496409
     0.305449815  0.337900852  0.363699727
     0.821985146  0.937395662  0.959050576
     0.665682128  0.596298900  0.910062991
     0.875307639  0.992252466  0.148276931
     0.919327937  0.387150883  0.752829884
     0.131712749  0.193291628  0.117129649
     0.989658585  0.186020504  0.012569484
     0.166776933  0.318875387  0.238117284
     0.964359642  0.550295005  0.731093168
     0.043866454  0.356977232  0.363046482
     0.761307590  0.378423195  0.754907778
     0.751510012  0.356688947  0.973286507
     0.456327701  0.558788074  0.184542576
     0.859269609  0.777634593  0.909527907
     0.685121788  0.674239872  0.246127216
     0.542078525  0.309330317  0.310691805
     0.765738517  0.055258202  0.613638818
     0.597901327  0.045510713  0.284348753
     0.615252810  0.115173832  0.918271779
     0.270855558  0.129278492  0.806666850

  ion indices of the primitive-cell ions
   primitive index   ion index
                 1           1
                 2           2
                 3           3
                 4           4
                 5           5
                 6           6
                 7           7
                 8           8
                 9           9
                10          10
                11          11
                12          12
                13          13
                14          14
                15          15
                16          16
                17          17
                18          18
                19          19
                20          20
                21          21
                22          22
                23          23
                24          24
                25          25
                26          26
                27          27
                28          28
                29          29
                30          30
                31          31
                32          32
                33          33
                34          34
                35          35
                36          36
                37          37
                38          38
                39          39
                40          40
                41          41
                42          42
                43          43
                44          44
                45          45
                46          46
                47          47
                48          48
                49          49
                50          50
                51          51
                52          52
                53          53
                54          54
                55          55
                56          56
                57          57
                58          58
                59          59
                60          60
                61          61
                62          62
                63          63
                64          64
                65          65
                66          66
                67          67
                68          68
                69          69
                70          70
                71          71
                72          72
                73          73
                74          74
                75          75
                76          76
                77          77
                78          78
                79          79
                80          80
                81          81
                82          82
                83          83
                84          84
                85          85
                86          86
                87          87
                88          88
                89          89
                90          90
                91          91
                92          92
                93          93
                94          94
                95          95
                96          96
                97          97

----------------------------------------------------------------------------------------


 -----------------------------------------------------------------------------
|                                                                             |
|           W    W    AA    RRRRR   N    N  II  N    N   GGGG   !!!           |
|           W    W   A  A   R    R  NN   N  II  NN   N  G    G  !!!           |
|           W    W  A    A  R    R  N N  N  II  N N  N  G       !!!           |
|           W WW W  AAAAAA  RRRRR   N  N N  II  N  N N  G  GGG   !            |
|           WW  WW  A    A  R   R   N   NN  II  N   NN  G    G                |
|           W    W  A    A  R    R  N    N  II  N    N   GGGG   !!!           |
|                                                                             |
|     The requested file  could not be found or opened for reading            |
|     k-point information. Automatic k-point generation is used as a          |
|     fallback, which may lead to unwanted results.                           |
|                                                                             |
 -----------------------------------------------------------------------------



Automatic generation of k-mesh.
 Grid dimensions derived from KSPACING:
 generate k-points for:    2    2    3

 Generating k-lattice:

  Cartesian coordinates                     Fractional coordinates (reciprocal lattice)
     0.034401608  0.000000000  0.000000000     0.500000000  0.000000000  0.000000000
     0.000000000  0.034401608  0.000000000     0.000000000  0.500000000  0.000000000
     0.000000000  0.000000000  0.032021797     0.000000000  0.000000000  0.333333333

  Length of vectors
     0.034401608  0.034401608  0.032021797

  Shift w.r.t. Gamma in fractional coordinates (k-lattice)
     0.000000000  0.000000000  0.000000000

 
 Subroutine IBZKPT returns following result:
 ===========================================
 
 Found      8 irreducible k-points:
 
 Following reciprocal coordinates:
            Coordinates               Weight
  0.000000  0.000000  0.000000      1.000000
  0.500000  0.000000  0.000000      1.000000
  0.000000  0.500000  0.000000      1.000000
  0.500000  0.500000  0.000000      1.000000
  0.000000  0.000000  0.333333      2.000000
  0.500000  0.000000  0.333333      2.000000
  0.000000  0.500000  0.333333      2.000000
  0.500000  0.500000  0.333333      2.000000
 
 Following cartesian coordinates:
            Coordinates               Weight
  0.000000  0.000000  0.000000      1.000000
  0.034402  0.000000  0.000000      1.000000
  0.000000  0.034402  0.000000      1.000000
  0.034402  0.034402  0.000000      1.000000
  0.000000  0.000000  0.032022      2.000000
  0.034402  0.000000  0.032022      2.000000
  0.000000  0.034402  0.032022      2.000000
  0.034402  0.034402  0.032022      2.000000
 


--------------------------------------------------------------------------------------------------------




 Dimension of arrays:
   k-points           NKPTS =      8   k-points in BZ     NKDIM =      8   number of bands    NBANDS=    232
   number of dos      NEDOS =   2000   number of ions     NIONS =     97
   non local maximal  LDIM  =      4   non local SUM 2l+1 LMDIM =      8
   total plane-waves  NPLWV = ******
   max r-space proj   IRMAX =      1   max aug-charges    IRDMAX= 412130
   dimension x,y,z NGX =   168 NGY =  168 NGZ =  120
   dimension x,y,z NGXF=   336 NGYF=  336 NGZF=  240
   support grid    NGXF=   672 NGYF=  672 NGZF=  480
   ions per type =               9  88
   NGX,Y,Z   is equivalent  to a cutoff of  19.22, 19.22, 19.16 a.u.
   NGXF,Y,Z  is equivalent  to a cutoff of  38.43, 38.43, 38.33 a.u.

 SYSTEM =  a-Si SPC                                
 POSCAR =   H Si                                   

 Startparameter for this run:
   NWRITE =      2    write-flag & timer
   PREC   = accura    normal or accurate (medium, high low for compatibility)
   ISTART =      1    job   : 0-new  1-cont  2-samecut
   ICHARG =      1    charge: 1-file 2-atom 10-const
   ISPIN  =      1    spin polarized calculation?
   LNONCOLLINEAR =      F non collinear calculations
   LSORBIT =      F    spin-orbit coupling
   INIWAV =      1    electr: 0-lowe 1-rand  2-diag
   LASPH  =      T    aspherical Exc in radial PAW
 Electronic Relaxation 1
   ENCUT  = 1200.0 eV  88.20 Ry    9.39 a.u.  41.05 41.05 29.40*2*pi/ulx,y,z
   ENINI  = 1200.0     initial cutoff
   ENAUG  =  400.0 eV  augmentation charge cutoff
   NELM   =    150;   NELMIN=  2; NELMDL=  0     # of ELM steps 
   EDIFF  = 0.1E-05   stopping-criterion for ELM
   LREAL  =      F    real-space projection
   NLSPLINE    = F    spline interpolate recip. space projectors
   LCOMPAT=      F    compatible to vasp.4.4
   GGA_COMPAT  = T    GGA compatible to vasp.4.4-vasp.4.6
   LMAXPAW     = -100 max onsite density
   LMAXMIX     =    2 max onsite mixed and CHGCAR
   VOSKOWN=      0    Vosko Wilk Nusair interpolation
   ROPT   =    0.00000   0.00000
 Ionic relaxation
   EDIFFG = -.1E-01   stopping-criterion for IOM
   NSW    =      0    number of steps for IOM
   NBLOCK =      1;   KBLOCK =      1    inner block; outer block 
   IBRION =     -1    ionic relax: 0-MD 1-quasi-New 2-CG
   NFREE  =      0    steps in history (QN), initial steepest desc. (CG)
   ISIF   =      2    stress and relaxation
   IWAVPR =     10    prediction:  0-non 1-charg 2-wave 3-comb
   ISYM   =      1    0-nonsym 1-usesym 2-fastsym
   LCORR  =      T    Harris-Foulkes like correction to forces

   POTIM  = 0.5000    time-step for ionic-motion
   TEIN   =    0.0    initial temperature
   TEBEG  =    0.0;   TEEND  =   0.0 temperature during run
   SMASS  =  -3.00    Nose mass-parameter (am)
   estimated Nose-frequenzy (Omega)   =  0.10E-29 period in steps = 0.13E+47 mass=  -0.483E-26a.u.
   SCALEE = 1.0000    scale energy and forces
   NPACO  =    256;   APACO  = 10.0  distance and # of slots for P.C.
   PSTRESS=    0.0 pullay stress

  Mass of Ions in am
   POMASS =   1.00 28.09
  Ionic Valenz
   ZVAL   =   1.00  4.00
  Atomic Wigner-Seitz radii
   RWIGS  =  -1.00 -1.00
  virtual crystal weights 
   VCA    =   1.00  1.00
   NELECT =     361.0000    total number of electrons
   NUPDOWN=      -1.0000    fix difference up-down

 DOS related values:
   EMIN   =  10.00;   EMAX   =-10.00  energy-range for DOS
   EFERMI =   0.00;   METHOD = LEGACY      
   ISMEAR =     0;   SIGMA  =   0.10  broadening in eV -4-tet -1-fermi 0-gaus
   EFERMI_NEDOS =   21; number of points for ismear=-14 and -15

 Electronic relaxation 2 (details)
   IALGO  =     38    algorithm
   LDIAG  =      F    sub-space diagonalisation (order eigenvalues)
   LSUBROT=      F    optimize rotation matrix (better conditioning)
   TURBO    =      0    0=normal 1=particle mesh
   IRESTART =      0    0=no restart 2=restart with 2 vectors
   NREBOOT  =      0    no. of reboots
   NMIN     =      0    reboot dimension
   EREF     =   0.00    reference energy to select bands
   IMIX   =      4    mixing-type and parameters
     AMIX     =   0.40;   BMIX     =  1.00
     AMIX_MAG =   1.60;   BMIX_MAG =  1.00
     AMIN     =   0.10
     WC   =   100.;   INIMIX=   1;  MIXPRE=   1;  MAXMIX= -45

 Intra band minimization:
   WEIMIN = 0.0000     energy-eigenvalue tresh-hold
   EBREAK =  0.11E-08  absolut break condition
   DEPER  =   0.30     relativ break condition  

   TIME   =   0.40     timestep for ELM

  volume/ion in A,a.u.               =      22.67       152.98
  Fermi-wavevector in a.u.,A,eV,Ry     =   0.896407  1.693964 10.932907  0.803546
  Thomas-Fermi vector in A             =   2.018862

 Write flags
   LWAVE        =      F    write WAVECAR
   LDOWNSAMPLE  =      F    k-point downsampling of WAVECAR
   LCHARG       =      F    write CHGCAR
   LVTOT        =      F    write LOCPOT, total local potential
   LVHAR        =      F    write LOCPOT, Hartree potential only
   WRT_POTENTIAL= false  ! write potential to hdf5 file
   LELF         =      F    write electronic localiz. function (ELF)
   LORBIT       =     11    0 simple, 1 ext, 2 COOP (PROOUT), +10 PAW based schemes


 Python interface
   PLUGINS active      =      F    recompile with -DPLUGINS to activate

 Dipole corrections
   LMONO      =      F    monopole corrections only (constant potential shift)
   LDIPOL     =      F    correct potential (dipole corrections)
   IDIPOL     =      0    1-x, 2-y, 3-z, 4-all directions 
   EPSILON    =  1.0000000 bulk dielectric constant
   LVACPOTAV  =      F  vacuum potentials using an averaging scheme for the charge density
   VACPOTFLAT =  0.1000000 required flatness to determine vacuum potential

Coulomb truncation method
  LTRUNCATE          =      F  Coulomb kernel truncation to be used
  IDIMENSIONALITY    =      3  Dimensionality of cutoff (0 molecules / 2 surfaces)
  ISURFACE           =     -1  Direction of surface normal
  LCOARSEN           =      F  Coarsen the charge grid before padding, preferred


 Exchange correlation treatment:
   METAGGA = SCAN    functional components
   XC_C    = 1    coefficients multiplying the functional components
   LIBXC   =     F    Libxc                    
   VOSKOWN =     0    Vosko Wilk Nusair interpolation
   LHFCALC =     F    Hartree Fock is set to
   LHFONE  =     F    Hartree Fock one center treatment
   AEXX    =    0.0000 exact exchange contribution

 Parameters of functionals:
   SCAN:
     P1 =  0.000000E+00
     P2 =  0.000000E+00
     P3 =  0.000000E+00

 Accuracy and mixing parameters for tau-dependent meta-GGA functionals:
   LMAXTAU = 6
   LMIXTAU = T

 Van der Waals corrections
   IVDW    =     0    specifies the selected vdW correction

 Linear response parameters
   LEPSILON=     F    determine dielectric tensor
   LRPA    =     F    only Hartree local field effects (RPA)
   LNABLA  =     F    use nabla operator in PAW spheres
   LVEL    =     F    velocity operator in full k-point grid
   CSHIFT  =0.1000    complex shift for real part using Kramers Kronig
   OMEGAMAX=  -1.0    maximum frequency
   DEG_THRESHOLD= 0.2000000E-02 threshold for treating states as degnerate
   RTIME   =   -0.100 relaxation time in fs
  (WPLASMAI=    0.000 imaginary part of plasma frequency in eV, 0.658/RTIME)
   DFIELD  = 0.0000000 0.0000000 0.0000000 field for delta impulse in time

  Optional k-point grid parameters
   LKPOINTS_OPT  =     F    use optional k-point grid
   KPOINTS_OPT_MODE=     1    mode for optional k-point grid

 Orbital magnetization related:
   ORBITALMAG=     F  switch on orbital magnetization
   LCHIMAG   =     F  perturbation theory with respect to B field
   DQ        =  0.001000  dq finite difference perturbation B field
   LLRAUG    =     F  two centre corrections for induced B field
   LBONE     =     F  B-component reconstruction in AE one-centre
   LVGVCALC  =     T  calculate vGv susceptibility
   LVGVAPPL  =     F  apply vGv susceptibility instead of pGv for G=0

 Random number generation:
   RANDOM_GENERATOR = DEFAULT
   PCG_SEED         = not used


--------------------------------------------------------------------------------------------------------


 Static calculation
 charge density and potential will be updated during run
 non-spin polarized calculation
 Variant of blocked Davidson
 perform Loewdin sub-space diagonalisation
    ordering is kept fixed
    before iterative eigenvector-optimisation
 modified Broyden-mixing scheme, WC =      100.0
 initial mixing is a Kerker type mixing with AMIX =  0.4000 and BMIX =      1.0000
 Hartree-type preconditioning will be used
 using additional bands           51
 reciprocal scheme for non local part
 use partial core corrections
 calculate Harris-corrections to forces   (improved forces if not selfconsistent)
 use gradient corrections 
 use of overlap-Matrix (Vanderbilt PP)
 Gauss-broadening in eV      SIGMA  =   0.10


--------------------------------------------------------------------------------------------------------


  energy-cutoff  :     1200.00
  volume of cell :     2198.95
      direct lattice vectors                 reciprocal lattice vectors
    14.534204238  0.000000000  0.000000000     0.068803216  0.000000000  0.000000000
     0.000000000 14.534204238  0.000000000     0.000000000  0.068803216  0.000000000
     0.000000000  0.000000000 10.409576143     0.000000000  0.000000000  0.096065391

  length of vectors
    14.534204238 14.534204238 10.409576143     0.068803216  0.068803216  0.096065391



 old parameters found on file WAVECAR:
  energy-cutoff  :     1200.00
  volume of cell :     2198.95
      direct lattice vectors                 reciprocal lattice vectors
    14.534204238  0.000000000  0.000000000     0.068803216  0.000000000  0.000000000
     0.000000000 14.534204238  0.000000000     0.000000000  0.068803216  0.000000000
     0.000000000  0.000000000 10.409576143     0.000000000  0.000000000  0.096065391

  length of vectors


 k-points in units of 2pi/SCALE and weight: read from INCAR                         
   0.00000000  0.00000000  0.00000000       0.083
   0.03440161  0.00000000  0.00000000       0.083
   0.00000000  0.03440161  0.00000000       0.083
   0.03440161  0.03440161  0.00000000       0.083
   0.00000000  0.00000000  0.03202180       0.167
   0.03440161  0.00000000  0.03202180       0.167
   0.00000000  0.03440161  0.03202180       0.167
   0.03440161  0.03440161  0.03202180       0.167

 k-points in reciprocal lattice and weights: read from INCAR                         
   0.00000000  0.00000000  0.00000000       0.083
   0.50000000  0.00000000  0.00000000       0.083
   0.00000000  0.50000000  0.00000000       0.083
   0.50000000  0.50000000  0.00000000       0.083
   0.00000000  0.00000000  0.33333333       0.167
   0.50000000  0.00000000  0.33333333       0.167
   0.00000000  0.50000000  0.33333333       0.167
   0.50000000  0.50000000  0.33333333       0.167

 position of ions in fractional coordinates (direct lattice) 
   0.98620466  0.81429295  0.65150203
   0.38939180  0.02165623  0.34614666
   0.31976364  0.88707299  0.48206286
   0.17304628  0.10928152  0.17972682
   0.07628281  0.08035803  0.76362379
   0.31576342  0.88518778  0.17070820
   0.88568316  0.72648628  0.31222693
   0.20143999  0.69275895  0.45844326
   0.14866173  0.22275179  0.51360689
   0.46123199  0.38821389  0.94446593
   0.14236418  0.66994380  0.98957920
   0.48333296  0.60772505  0.58763103
   0.17796571  0.38099850  0.67291212
   0.00242399  0.34646960  0.95227605
   0.35580895  0.99707557  0.89965719
   0.45577796  0.08332689  0.38431824
   0.16804360  0.38287201  0.89196619
   0.41487170  0.22314190  0.27462117
   0.35285523  0.54206889  0.52127867
   0.94989033  0.60333540  0.29629448
   0.54598242  0.72089946  0.90825216
   0.63903533  0.13098619  0.69294272
   0.65883827  0.95895171  0.93635225
   0.88809128  0.83209234  0.70353009
   0.83897954  0.58348637  0.59414811
   0.21270652  0.51827330  0.97902161
   0.39270881  0.85614594  0.56550718
   0.46316605  0.12933078  0.95459218
   0.98491116  0.11284278  0.79711603
   0.34709365  0.85836141  0.03127428
   0.41863317  0.18607279  0.74700160
   0.07489643  0.28760501  0.55740406
   0.81048813  0.22900600  0.31194450
   0.49475911  0.80565126  0.09345875
   0.59260279  0.86232447  0.78146506
   0.61862142  0.91612171  0.14243231
   0.62620491  0.44494352  0.01912220
   0.10478799  0.53453081  0.60644736
   0.23111620  0.63867342  0.57559308
   0.24396451  0.24524907  0.95957029
   0.18473251  0.48254173  0.20042795
   0.90044145  0.57694593  0.08157585
   0.88982512  0.36847631  0.29990174
   0.69647432  0.96325879  0.45559204
   0.79202823  0.74971425  0.56941992
   0.50848880  0.75093206  0.48240773
   0.72208288  0.20364101  0.03712293
   0.32311435  0.38290228  0.58643406
   0.68961464  0.27137089  0.63154733
   0.61710843  0.51399787  0.53313410
   0.32706916  0.49837747  0.30450615
   0.64687821  0.81641897  0.57520306
   0.38626676  0.53416616  0.97274854
   0.79056960  0.76721779  0.35233327
   0.39025666  0.25699446  0.05240924
   0.32201832  0.74680387  0.71401370
   0.44698766  0.34711498  0.71592732
   0.76369506  0.91385808  0.26395983
   0.50294876  0.08398740  0.60393910
   0.84733225  0.50907225  0.39571448
   0.71637221  0.53155851  0.71935494
   0.86178093  0.15227321  0.13440028
   0.76511241  0.66819413  0.04379842
   0.94810144  0.23172510  0.66180697
   0.87356004  0.99233503  0.76286103
   0.43377607  0.63625843  0.80067717
   0.57476831  0.45149565  0.21735371
   0.68982793  0.52405415  0.32747539
   0.51914366  0.70179281  0.25877134
   0.07985301  0.51319494  0.36169676
   0.56525420  0.36004861  0.54275697
   0.81079774  0.19518440  0.53469516
   0.65736519  0.20299288  0.23535540
   0.45621280  0.95406668  0.72554635
   0.24473235  0.77837767  0.90163421
   0.88903388  0.41165308  0.07066349
   0.98272322  0.65524330  0.91449641
   0.30544982  0.33790085  0.36369973
   0.82198515  0.93739566  0.95905058
   0.66568213  0.59629890  0.91006299
   0.87530764  0.99225247  0.14827693
   0.91932794  0.38715088  0.75282988
   0.13171275  0.19329163  0.11712965
   0.98965858  0.18602050  0.01256948
   0.16677693  0.31887539  0.23811728
   0.96435964  0.55029501  0.73109317
   0.04386645  0.35697723  0.36304648
   0.76130759  0.37842319  0.75490778
   0.75151001  0.35668895  0.97328651
   0.45632770  0.55878807  0.18454258
   0.85926961  0.77763459  0.90952791
   0.68512179  0.67423987  0.24612722
   0.54207853  0.30933032  0.31069180
   0.76573852  0.05525820  0.61363882
   0.59790133  0.04551071  0.28434875
   0.61525281  0.11517383  0.91827178
   0.27085556  0.12927849  0.80666685

 position of ions in cartesian coordinates  (Angst):
  14.33370000 11.83510000  6.78186000
   5.65950000  0.31475600  3.60324000
   4.64751000 12.89290000  5.01807000
   2.51509000  1.58832000  1.87088000
   1.10871000  1.16794000  7.94900000
   4.58937000 12.86550000  1.77700000
  12.87270000 10.55890000  3.25015000
   2.92777000 10.06870000  4.77220000
   2.16068000  3.23752000  5.34643000
   6.70364000  5.64238000  9.83149000
   2.06915000  9.73710000 10.30110000
   7.02486000  8.83280000  6.11699000
   2.58659000  5.53751000  7.00473000
   0.03523070  5.03566000  9.91279000
   5.17140000 14.49170000  9.36505000
   6.62437000  1.21109000  4.00059000
   2.44238000  5.56474000  9.28499000
   6.02983000  3.24319000  2.85869000
   5.12847000  7.87854000  5.42629000
  13.80590000  8.76900000  3.08430000
   7.93542000 10.47770000  9.45452000
   9.28787000  1.90378000  7.21324000
   9.57569000 13.93760000  9.74703000
  12.90770000 12.09380000  7.32345000
  12.19390000  8.48051000  6.18483000
   3.09152000  7.53269000 10.19120000
   5.70771000 12.44340000  5.88669000
   6.73175000  1.87972000  9.93690000
  14.31490000  1.64008000  8.29764000
   5.04473000 12.47560000  0.32555200
   6.08450000  2.70442000  7.77597000
   1.08856000  4.18011000  5.80234000
  11.77980000  3.32842000  3.24721000
   7.19093000 11.70950000  0.97286600
   8.61301000 12.53320000  8.13472000
   8.99117000 13.31510000  1.48266000
   9.10139000  6.46690000  0.19905400
   1.52301000  7.76898000  6.31286000
   3.35909000  9.28261000  5.99168000
   3.54583000  3.56450000  9.98872000
   2.68494000  7.01336000  2.08637000
  13.08720000  8.38545000  0.84917000
  12.93290000  5.35551000  3.12185000
  10.12270000 14.00020000  4.74252000
  11.51150000 10.89650000  5.92742000
   7.39048000 10.91420000  5.02166000
  10.49490000  2.95976000  0.38643400
   4.69621000  5.56518000  6.10453000
  10.02300000  3.94416000  6.57414000
   8.96918000  7.47055000  5.54970000
   4.75369000  7.24352000  3.16978000
   9.40186000 11.86600000  5.98762000
   5.61408000  7.76368000 10.12590000
  11.49030000 11.15090000  3.66764000
   5.67207000  3.73521000  0.54555800
   4.68028000 10.85420000  7.43258000
   6.49661000  5.04504000  7.45250000
  11.09970000 13.28220000  2.74771000
   7.30996000  1.22069000  6.28675000
  12.31530000  7.39896000  4.11922000
  10.41190000  7.72578000  7.48818000
  12.52530000  2.21317000  1.39905000
  11.12030000  9.71167000  0.45592300
  13.77990000  3.36794000  6.88913000
  12.69650000 14.42280000  7.94106000
   6.30459000  9.24751000  8.33471000
   8.35380000  6.56213000  2.26256000
  10.02610000  7.61671000  3.40888000
   7.54534000 10.20000000  2.69370000
   1.16060000  7.45888000  3.76511000
   8.21552000  5.23302000  5.64987000
  11.78430000  2.83685000  5.56595000
   9.55428000  2.95034000  2.44995000
   6.63069000 13.86660000  7.55263000
   3.55699000 11.31310000  9.38563000
  12.92140000  5.98305000  0.73557700
  14.28310000  9.52344000  9.51952000
   4.43947000  4.91112000  3.78596000
  11.94690000 13.62430000  9.98331000
   9.67516000  8.66673000  9.47337000
  12.72190000 14.42160000  1.54350000
  13.36170000  5.62693000  7.83664000
   1.91434000  2.80934000  1.21927000
  14.38390000  2.70366000  0.13084300
   2.42397000  4.63460000  2.47870000
  14.01620000  7.99810000  7.61037000
   0.63756400  5.18838000  3.77916000
  11.06500000  5.50008000  7.85827000
  10.92260000  5.18419000 10.13150000
   6.63236000  8.12154000  1.92101000
  12.48880000 11.30230000  9.46780000
   9.95770000  9.79954000  2.56208000
   7.87868000  4.49587000  3.23417000
  11.12940000  0.80313400  6.38772000
   8.69002000  0.66146200  2.95995000
   8.94221000  1.67396000  9.55882000
   3.93667000  1.87896000  8.39706000



--------------------------------------------------------------------------------------------------------


 k-point     1 :   0.0000 0.0000 0.0000  plane waves:  207579
 k-point     2 :   0.5000 0.0000 0.0000  plane waves:  207618
 k-point     3 :   0.0000 0.5000 0.0000  plane waves:  207618
 k-point     4 :   0.5000 0.5000 0.0000  plane waves:  207516
 k-point     5 :   0.0000 0.0000 0.3333  plane waves:  207471
 k-point     6 :   0.5000 0.0000 0.3333  plane waves:  207586
 k-point     7 :   0.0000 0.5000 0.3333  plane waves:  207586
 k-point     8 :   0.5000 0.5000 0.3333  plane waves:  207648

 maximum and minimum number of plane-waves per node :     13036    12907

 maximum number of plane-waves:    207648
 maximum index in each direction: 
   IXMAX=   41   IYMAX=   41   IZMAX=   29
   IXMIN=  -41   IYMIN=  -41   IZMIN=  -29


 parallel 3D FFT for wavefunctions:
    minimum data exchange during FFTs selected (reduces bandwidth)
 parallel 3D FFT for charge:
    minimum data exchange during FFTs selected (reduces bandwidth)


 total amount of memory used by VASP MPI-rank0   184597. kBytes
=======================================================================

   base                                    :      30000. kBytes
   nonl-proj                               :      33529. kBytes
   fftplans                                :      40949. kBytes
   grid                                    :      31575. kBytes
   one-center                              :         21. kBytes
   wavefun                                 :      48523. kBytes

     INWAV:  cpu time      8.9903: real time      8.9945
 Broyden mixing: mesh for mixing (old mesh)
   NGX = 83   NGY = 83   NGZ = 59
  (NGX  =336   NGY  =336   NGZ  =240)
  gives a total of 406451 points

 initial charge density was supplied:
 number of electron     360.9999999 magnetization 
 keeping initial charge density in first step


--------------------------------------------------------------------------------------------------------


 Maximum index for augmentation-charges        11385 (set IRDMAX)


--------------------------------------------------------------------------------------------------------


 First call to EWALD:  gamma=   0.136
 Maximum number of real-space cells   3x   3x   3
 Maximum number of reciprocal cells   3x   3x   2

    FEWALD:  cpu time      0.0191: real time      0.0197


--------------------------------------- Ionic step        1  -------------------------------------------




--------------------------------------- Iteration      1(   1)  ---------------------------------------


    POTLOK:  cpu time      0.7316: real time      0.7320
    SETDIJ:  cpu time      1.3129: real time      1.3137
    EDDIAG:  cpu time     19.8712: real time     19.8875
     EDDAV:  cpu time     92.5086: real time     92.5913
       DOS:  cpu time      0.0090: real time      0.0096
    CHARGE:  cpu time      8.7995: real time      8.8076
    MIXING:  cpu time      0.0237: real time      0.0239
    --------------------------------------------
      LOOP:  cpu time    123.2566: real time    123.3656

 eigenvalue-minimisations  :  3736
 total energy-change (2. order) :-0.9428358E+03  (-0.1032279E+01)
 number of electron     360.9999999 magnetization 
 augmentation part      -19.4913018 magnetization 

 Broyden mixing:
  rms(total) = 0.11981E+01    rms(broyden)= 0.45430E+02
  rms(prec ) = 0.12858E+01
  weight for this iteration     100.00
  WARNING: grid for Broyden might be to small

 Free energy of the ion-electron system (eV)
  ---------------------------------------------------
  alpha Z        PSCENC =       125.18136400
  Ewald energy   TEWEN  =     -6670.18155372
  -Hartree energ DENC   =     -3484.81774938
  -exchange      EXHF   =         0.00000000
  -V(xc)+E(xc)   XCENC  =      -401.66099601
  PAW double counting   =     33775.06592587   -32898.01347983
  entropy T*S    EENTRO =        -0.08165023
  eigenvalues    EBANDS =      -570.60449882
  atomic energy  EATOM  =      9182.27680711
  Solvation  Ediel_sol  =         0.00000000
  ---------------------------------------------------
  free energy    TOTEN  =      -942.83583102 eV

  energy without entropy =     -942.75418079  energy(sigma->0) =     -942.79500591


--------------------------------------------------------------------------------------------------------




--------------------------------------- Iteration      1(   2)  ---------------------------------------


    POTLOK:  cpu time      0.7106: real time      0.7350
    SETDIJ:  cpu time      1.3037: real time      1.3046
    EDDIAG:  cpu time     19.8165: real time     19.8349
     EDDAV:  cpu time     91.9725: real time     92.0586
       DOS:  cpu time      0.0049: real time      0.0049
    CHARGE:  cpu time      8.6015: real time      8.6083
    MIXING:  cpu time      0.0170: real time      0.0170
    --------------------------------------------
      LOOP:  cpu time    122.4267: real time    122.5633

 eigenvalue-minimisations  :  3712
 total energy-change (2. order) : 0.6480750E+02  (-0.9548788E+00)
 number of electron     360.9999999 magnetization 
 augmentation part      -19.4192874 magnetization 

 Broyden mixing:
  rms(total) = 0.79879E+00    rms(broyden)= 0.26157E+02
  rms(prec ) = 0.84359E+00
  weight for this iteration     100.00
  WARNING: grid for Broyden might be to small

 eigenvalues of (default mixing * dielectric matrix)
  average eigenvalue GAMMA=   0.6346
  0.6346

 Free energy of the ion-electron system (eV)
  ---------------------------------------------------
  alpha Z        PSCENC =       125.18136400
  Ewald energy   TEWEN  =     -6670.18155372
  -Hartree energ DENC   =     -3475.76200804
  -exchange      EXHF   =         0.00000000
  -V(xc)+E(xc)   XCENC  =      -392.20667975
  PAW double counting   =     40510.50358269   -39633.19777527
  entropy T*S    EENTRO =        -0.07718954
  eigenvalues    EBANDS =      -524.56487546
  atomic energy  EATOM  =      9182.27680711
  Solvation  Ediel_sol  =         0.00000000
  ---------------------------------------------------
  free energy    TOTEN  =      -878.02832798 eV

  energy without entropy =     -877.95113844  energy(sigma->0) =     -877.98973321


--------------------------------------------------------------------------------------------------------




--------------------------------------- Iteration      1(   3)  ---------------------------------------


    POTLOK:  cpu time      0.7131: real time      0.7359
    SETDIJ:  cpu time      1.3033: real time      1.3038
    EDDIAG:  cpu time     19.8675: real time     19.8827
     EDDAV:  cpu time     91.9568: real time     92.0389
       DOS:  cpu time      0.0035: real time      0.0035
    CHARGE:  cpu time      8.7251: real time      8.7342
    MIXING:  cpu time      0.0152: real time      0.0152
    --------------------------------------------
      LOOP:  cpu time    122.5845: real time    122.7141

 eigenvalue-minimisations  :  3712
 total energy-change (2. order) :-0.3570318E+01  (-0.7878935E+00)
 number of electron     360.9999999 magnetization 
 augmentation part      -19.3573585 magnetization 

 Broyden mixing:
  rms(total) = 0.45188E+00    rms(broyden)= 0.21964E+02
  rms(prec ) = 0.50592E+00
  weight for this iteration     100.00
  WARNING: grid for Broyden might be to small

 eigenvalues of (default mixing * dielectric matrix)
  average eigenvalue GAMMA=   0.7117
  0.7986  0.6247

 Free energy of the ion-electron system (eV)
  ---------------------------------------------------
  alpha Z        PSCENC =       125.18136400
  Ewald energy   TEWEN  =     -6670.18155372
  -Hartree energ DENC   =     -3479.24029035
  -exchange      EXHF   =         0.00000000
  -V(xc)+E(xc)   XCENC  =      -397.52262905
  PAW double counting   =     46279.49121115   -45402.27815806
  entropy T*S    EENTRO =        -0.08185298
  eigenvalues    EBANDS =      -519.24354412
  atomic energy  EATOM  =      9182.27680711
  Solvation  Ediel_sol  =         0.00000000
  ---------------------------------------------------
  free energy    TOTEN  =      -881.59864602 eV

  energy without entropy =     -881.51679304  energy(sigma->0) =     -881.55771953


--------------------------------------------------------------------------------------------------------




--------------------------------------- Iteration      1(   4)  ---------------------------------------


    POTLOK:  cpu time      0.7088: real time      0.7332
    SETDIJ:  cpu time      1.3017: real time      1.3023
    EDDIAG:  cpu time     19.9235: real time     19.9420
     EDDAV:  cpu time     94.1054: real time     94.1924
       DOS:  cpu time      0.0046: real time      0.0046
    CHARGE:  cpu time      8.6537: real time      8.6624
    MIXING:  cpu time      0.0145: real time      0.0145
    --------------------------------------------
      LOOP:  cpu time    124.7123: real time    124.8516

 eigenvalue-minimisations  :  3856
 total energy-change (2. order) :-0.2370104E+00  (-0.8249244E-01)
 number of electron     360.9999999 magnetization 
 augmentation part      -19.3448630 magnetization 

 Broyden mixing:
  rms(total) = 0.38294E-01    rms(broyden)= 0.22815E+01
  rms(prec ) = 0.53255E-01
  weight for this iteration     100.00
  WARNING: grid for Broyden might be to small

 eigenvalues of (default mixing * dielectric matrix)
  average eigenvalue GAMMA=   0.9979
  1.6580  0.7135  0.6223

 Free energy of the ion-electron system (eV)
  ---------------------------------------------------
  alpha Z        PSCENC =       125.18136400
  Ewald energy   TEWEN  =     -6670.18155372
  -Hartree energ DENC   =     -3485.11363319
  -exchange      EXHF   =         0.00000000
  -V(xc)+E(xc)   XCENC  =      -397.82995999
  PAW double counting   =     54186.57447473   -53309.42206651
  entropy T*S    EENTRO =        -0.08123333
  eigenvalues    EBANDS =      -513.23985549
  atomic energy  EATOM  =      9182.27680711
  Solvation  Ediel_sol  =         0.00000000
  ---------------------------------------------------
  free energy    TOTEN  =      -881.83565638 eV

  energy without entropy =     -881.75442305  energy(sigma->0) =     -881.79503971


--------------------------------------------------------------------------------------------------------




--------------------------------------- Iteration      1(   5)  ---------------------------------------


    POTLOK:  cpu time      0.7044: real time      0.7335
    SETDIJ:  cpu time      1.3037: real time      1.3044
    EDDIAG:  cpu time     19.8665: real time     19.8846
     EDDAV:  cpu time    104.7379: real time    104.8334
       DOS:  cpu time      0.0048: real time      0.0049
    CHARGE:  cpu time      8.5762: real time      8.5840
    MIXING:  cpu time      0.0148: real time      0.0148
    --------------------------------------------
      LOOP:  cpu time    135.2084: real time    135.3596

 eigenvalue-minimisations  :  4608
 total energy-change (2. order) :-0.3750341E-01  (-0.5924564E-02)
 number of electron     360.9999999 magnetization 
 augmentation part      -19.3472024 magnetization 

 Broyden mixing:
  rms(total) = 0.32445E-01    rms(broyden)= 0.59749E+00
  rms(prec ) = 0.48141E-01
  weight for this iteration     100.00
  WARNING: grid for Broyden might be to small

 eigenvalues of (default mixing * dielectric matrix)
  average eigenvalue GAMMA=   1.0917
  2.3053  0.8217  0.6198  0.6198

 Free energy of the ion-electron system (eV)
  ---------------------------------------------------
  alpha Z        PSCENC =       125.18136400
  Ewald energy   TEWEN  =     -6670.18155372
  -Hartree energ DENC   =     -3485.48942813
  -exchange      EXHF   =         0.00000000
  -V(xc)+E(xc)   XCENC  =      -398.95705977
  PAW double counting   =     53816.81967214   -52939.63424732
  entropy T*S    EENTRO =        -0.08073040
  eigenvalues    EBANDS =      -511.80798370
  atomic energy  EATOM  =      9182.27680711
  Solvation  Ediel_sol  =         0.00000000
  ---------------------------------------------------
  free energy    TOTEN  =      -881.87315979 eV

  energy without entropy =     -881.79242939  energy(sigma->0) =     -881.83279459


--------------------------------------------------------------------------------------------------------




--------------------------------------- Iteration      1(   6)  ---------------------------------------


    POTLOK:  cpu time      0.7295: real time      0.7305
    SETDIJ:  cpu time      1.3215: real time      1.3221
    EDDIAG:  cpu time     19.9128: real time     19.9318
     EDDAV:  cpu time    101.4714: real time    101.5643
       DOS:  cpu time      0.0045: real time      0.0045
    CHARGE:  cpu time      8.5789: real time      8.5866
    MIXING:  cpu time      0.0147: real time      0.0147
    --------------------------------------------
      LOOP:  cpu time    132.0334: real time    132.1546

 eigenvalue-minimisations  :  4360
 total energy-change (2. order) :-0.3872878E-02  (-0.9046989E-03)
 number of electron     360.9999999 magnetization 
 augmentation part      -19.3469040 magnetization 

 Broyden mixing:
  rms(total) = 0.22323E-01    rms(broyden)= 0.22722E+00
  rms(prec ) = 0.26812E-01
  weight for this iteration     100.00
  WARNING: grid for Broyden might be to small

 eigenvalues of (default mixing * dielectric matrix)
  average eigenvalue GAMMA=   1.0371
  2.5419  0.9422  0.6716  0.6285  0.4012

 Free energy of the ion-electron system (eV)
  ---------------------------------------------------
  alpha Z        PSCENC =       125.18136400
  Ewald energy   TEWEN  =     -6670.18155372
  -Hartree energ DENC   =     -3485.78696832
  -exchange      EXHF   =         0.00000000
  -V(xc)+E(xc)   XCENC  =      -399.25755103
  PAW double counting   =     53784.70181459   -52907.50680792
  entropy T*S    EENTRO =        -0.07967586
  eigenvalues    EBANDS =      -511.22446151
  atomic energy  EATOM  =      9182.27680711
  Solvation  Ediel_sol  =         0.00000000
  ---------------------------------------------------
  free energy    TOTEN  =      -881.87703267 eV

  energy without entropy =     -881.79735680  energy(sigma->0) =     -881.83719474


--------------------------------------------------------------------------------------------------------




--------------------------------------- Iteration      1(   7)  ---------------------------------------


    POTLOK:  cpu time      0.7065: real time      0.7312
    SETDIJ:  cpu time      1.3049: real time      1.3059
    EDDIAG:  cpu time     19.9087: real time     19.9259
     EDDAV:  cpu time     97.1643: real time     97.2530
       DOS:  cpu time      0.0046: real time      0.0045
    CHARGE:  cpu time      8.6851: real time      8.6920
    MIXING:  cpu time      0.0151: real time      0.0151
    --------------------------------------------
      LOOP:  cpu time    127.7892: real time    127.9276

 eigenvalue-minimisations  :  4048
 total energy-change (2. order) :-0.1424058E-02  (-0.4659955E-03)
 number of electron     360.9999999 magnetization 
 augmentation part      -19.3453360 magnetization 

 Broyden mixing:
  rms(total) = 0.10833E-01    rms(broyden)= 0.15430E+00
  rms(prec ) = 0.12547E-01
  weight for this iteration     100.00
  WARNING: grid for Broyden might be to small

 eigenvalues of (default mixing * dielectric matrix)
  average eigenvalue GAMMA=   1.0285
  2.5463  1.1534  0.8025  0.6514  0.6313  0.3864

 Free energy of the ion-electron system (eV)
  ---------------------------------------------------
  alpha Z        PSCENC =       125.18136400
  Ewald energy   TEWEN  =     -6670.18155372
  -Hartree energ DENC   =     -3486.31632787
  -exchange      EXHF   =         0.00000000
  -V(xc)+E(xc)   XCENC  =      -399.16221097
  PAW double counting   =     53755.10191839   -52877.88976578
  entropy T*S    EENTRO =        -0.08064704
  eigenvalues    EBANDS =      -510.80804087
  atomic energy  EATOM  =      9182.27680711
  Solvation  Ediel_sol  =         0.00000000
  ---------------------------------------------------
  free energy    TOTEN  =      -881.87845673 eV

  energy without entropy =     -881.79780969  energy(sigma->0) =     -881.83813321


--------------------------------------------------------------------------------------------------------




--------------------------------------- Iteration      1(   8)  ---------------------------------------


    POTLOK:  cpu time      0.7061: real time      0.7329
    SETDIJ:  cpu time      1.3010: real time      1.3020
    EDDIAG:  cpu time     19.8611: real time     19.8794
     EDDAV:  cpu time     96.7839: real time     96.8727
       DOS:  cpu time      0.0052: real time      0.0052
    CHARGE:  cpu time      8.5788: real time      8.5868
    MIXING:  cpu time      0.0152: real time      0.0153
    --------------------------------------------
      LOOP:  cpu time    127.2513: real time    127.3941

 eigenvalue-minimisations  :  4024
 total energy-change (2. order) :-0.7103984E-03  (-0.1964528E-03)
 number of electron     360.9999999 magnetization 
 augmentation part      -19.3437721 magnetization 

 Broyden mixing:
  rms(total) = 0.21482E-02    rms(broyden)= 0.90316E-01
  rms(prec ) = 0.29472E-02
  weight for this iteration     100.00
  WARNING: grid for Broyden might be to small

 eigenvalues of (default mixing * dielectric matrix)
  average eigenvalue GAMMA=   1.0701
  2.5541  1.5769  0.9561  0.7474  0.6399  0.6270  0.3890

 Free energy of the ion-electron system (eV)
  ---------------------------------------------------
  alpha Z        PSCENC =       125.18136400
  Ewald energy   TEWEN  =     -6670.18155372
  -Hartree energ DENC   =     -3486.77789578
  -exchange      EXHF   =         0.00000000
  -V(xc)+E(xc)   XCENC  =      -399.02272310
  PAW double counting   =     53771.75814379   -52894.53010755
  entropy T*S    EENTRO =        -0.08029947
  eigenvalues    EBANDS =      -510.50290240
  atomic energy  EATOM  =      9182.27680711
  Solvation  Ediel_sol  =         0.00000000
  ---------------------------------------------------
  free energy    TOTEN  =      -881.87916713 eV

  energy without entropy =     -881.79886765  energy(sigma->0) =     -881.83901739


--------------------------------------------------------------------------------------------------------




--------------------------------------- Iteration      1(   9)  ---------------------------------------


    POTLOK:  cpu time      0.7070: real time      0.7332
    SETDIJ:  cpu time      1.3016: real time      1.3023
    EDDIAG:  cpu time     19.8789: real time     19.8978
     EDDAV:  cpu time     96.8894: real time     96.9773
       DOS:  cpu time      0.0047: real time      0.0047
    CHARGE:  cpu time      8.6857: real time      8.6934
    MIXING:  cpu time      0.0164: real time      0.0164
    --------------------------------------------
      LOOP:  cpu time    127.4838: real time    127.6252

 eigenvalue-minimisations  :  4024
 total energy-change (2. order) : 0.3090878E-05  (-0.2526603E-04)
 number of electron     360.9999999 magnetization 
 augmentation part      -19.3442994 magnetization 

 Broyden mixing:
  rms(total) = 0.14646E-02    rms(broyden)= 0.56001E-01
  rms(prec ) = 0.19532E-02
  weight for this iteration     100.00
  WARNING: grid for Broyden might be to small

 eigenvalues of (default mixing * dielectric matrix)
  average eigenvalue GAMMA=   1.1302
  2.5686  2.2349  1.0739  0.8543  0.3910  0.6814  0.6321  0.6052

 Free energy of the ion-electron system (eV)
  ---------------------------------------------------
  alpha Z        PSCENC =       125.18136400
  Ewald energy   TEWEN  =     -6670.18155372
  -Hartree energ DENC   =     -3486.69822179
  -exchange      EXHF   =         0.00000000
  -V(xc)+E(xc)   XCENC  =      -399.08422783
  PAW double counting   =     53793.51926814   -52916.29039612
  entropy T*S    EENTRO =        -0.08034679
  eigenvalues    EBANDS =      -510.52185704
  atomic energy  EATOM  =      9182.27680711
  Solvation  Ediel_sol  =         0.00000000
  ---------------------------------------------------
  free energy    TOTEN  =      -881.87916403 eV

  energy without entropy =     -881.79881724  energy(sigma->0) =     -881.83899064


--------------------------------------------------------------------------------------------------------




--------------------------------------- Iteration      1(  10)  ---------------------------------------


    POTLOK:  cpu time      0.7297: real time      0.7475
    SETDIJ:  cpu time      1.3028: real time      1.3037
    EDDIAG:  cpu time     20.0032: real time     20.0190
     EDDAV:  cpu time    102.5545: real time    102.6502
       DOS:  cpu time      0.0058: real time      0.0058
    CHARGE:  cpu time      8.6666: real time      8.6746
    MIXING:  cpu time      0.0159: real time      0.0159
    --------------------------------------------
      LOOP:  cpu time    133.2783: real time    133.4166

 eigenvalue-minimisations  :  4440
 total energy-change (2. order) :-0.2670992E-04  (-0.6257803E-05)
 number of electron     360.9999999 magnetization 
 augmentation part      -19.3443901 magnetization 

 Broyden mixing:
  rms(total) = 0.90977E-03    rms(broyden)= 0.86815E-02
  rms(prec ) = 0.11212E-02
  weight for this iteration     100.00
  WARNING: grid for Broyden might be to small

 eigenvalues of (default mixing * dielectric matrix)
  average eigenvalue GAMMA=   1.1529
  2.5903  2.5903  1.1584  0.9728  0.7819  0.3910  0.6724  0.6285  0.5901

 Free energy of the ion-electron system (eV)
  ---------------------------------------------------
  alpha Z        PSCENC =       125.18136400
  Ewald energy   TEWEN  =     -6670.18155372
  -Hartree energ DENC   =     -3486.64350943
  -exchange      EXHF   =         0.00000000
  -V(xc)+E(xc)   XCENC  =      -399.09868527
  PAW double counting   =     53788.06037442   -52910.83023524
  entropy T*S    EENTRO =        -0.08032694
  eigenvalues    EBANDS =      -510.56342567
  atomic energy  EATOM  =      9182.27680711
  Solvation  Ediel_sol  =         0.00000000
  ---------------------------------------------------
  free energy    TOTEN  =      -881.87919074 eV

  energy without entropy =     -881.79886380  energy(sigma->0) =     -881.83902727


--------------------------------------------------------------------------------------------------------




--------------------------------------- Iteration      1(  11)  ---------------------------------------


    POTLOK:  cpu time      0.7014: real time      0.7296
    SETDIJ:  cpu time      1.3411: real time      1.3416
    EDDIAG:  cpu time     19.8648: real time     19.8826
     EDDAV:  cpu time     95.8574: real time     95.9453
       DOS:  cpu time      0.0066: real time      0.0066
    CHARGE:  cpu time      8.7663: real time      8.7742
    MIXING:  cpu time      0.0162: real time      0.0162
    --------------------------------------------
      LOOP:  cpu time    126.5538: real time    126.6962

 eigenvalue-minimisations  :  3968
 total energy-change (2. order) :-0.2649429E-04  (-0.4069988E-05)
 number of electron     360.9999999 magnetization 
 augmentation part      -19.3443603 magnetization 

 Broyden mixing:
  rms(total) = 0.36207E-03    rms(broyden)= 0.89962E-02
  rms(prec ) = 0.52949E-03
  weight for this iteration     100.00
  WARNING: grid for Broyden might be to small

 eigenvalues of (default mixing * dielectric matrix)
  average eigenvalue GAMMA=   1.1878
  2.7173  2.7173  1.5008  1.1060  0.8981  0.3910  0.7138  0.6374  0.6191  0.5770

 Free energy of the ion-electron system (eV)
  ---------------------------------------------------
  alpha Z        PSCENC =       125.18136400
  Ewald energy   TEWEN  =     -6670.18155372
  -Hartree energ DENC   =     -3486.62255375
  -exchange      EXHF   =         0.00000000
  -V(xc)+E(xc)   XCENC  =      -399.09732758
  PAW double counting   =     53778.77077310   -52901.53906520
  entropy T*S    EENTRO =        -0.08035871
  eigenvalues    EBANDS =      -510.58730249
  atomic energy  EATOM  =      9182.27680711
  Solvation  Ediel_sol  =         0.00000000
  ---------------------------------------------------
  free energy    TOTEN  =      -881.87921724 eV

  energy without entropy =     -881.79885853  energy(sigma->0) =     -881.83903788


--------------------------------------------------------------------------------------------------------




--------------------------------------- Iteration      1(  12)  ---------------------------------------


    POTLOK:  cpu time      0.7051: real time      0.7300
    SETDIJ:  cpu time      1.3003: real time      1.3018
    EDDIAG:  cpu time     19.9289: real time     19.9467
     EDDAV:  cpu time     94.1142: real time     94.1962
       DOS:  cpu time      0.0048: real time      0.0048
    CHARGE:  cpu time      8.5538: real time      8.5600
    MIXING:  cpu time      0.0160: real time      0.0160
    --------------------------------------------
      LOOP:  cpu time    124.6231: real time    124.7557

 eigenvalue-minimisations  :  3848
 total energy-change (2. order) :-0.9806143E-05  (-0.1062987E-05)
 number of electron     360.9999999 magnetization 
 augmentation part      -19.3444295 magnetization 

 Broyden mixing:
  rms(total) = 0.18362E-03    rms(broyden)= 0.79002E-02
  rms(prec ) = 0.32192E-03
  weight for this iteration     100.00
  WARNING: grid for Broyden might be to small

 eigenvalues of (default mixing * dielectric matrix)
  average eigenvalue GAMMA=   1.1932
  2.7970  2.7970  1.6865  1.1144  0.9891  0.3910  0.8156  0.6963  0.6330  0.6221
  0.5836

 Free energy of the ion-electron system (eV)
  ---------------------------------------------------
  alpha Z        PSCENC =       125.18136400
  Ewald energy   TEWEN  =     -6670.18155372
  -Hartree energ DENC   =     -3486.58909552
  -exchange      EXHF   =         0.00000000
  -V(xc)+E(xc)   XCENC  =      -399.10624717
  PAW double counting   =     53780.43802157   -52903.20658016
  entropy T*S    EENTRO =        -0.08034535
  eigenvalues    EBANDS =      -510.61159781
  atomic energy  EATOM  =      9182.27680711
  Solvation  Ediel_sol  =         0.00000000
  ---------------------------------------------------
  free energy    TOTEN  =      -881.87922704 eV

  energy without entropy =     -881.79888169  energy(sigma->0) =     -881.83905437


--------------------------------------------------------------------------------------------------------




--------------------------------------- Iteration      1(  13)  ---------------------------------------


    POTLOK:  cpu time      0.7034: real time      0.7307
    SETDIJ:  cpu time      1.3457: real time      1.3462
    EDDIAG:  cpu time     19.9819: real time     19.9985
     EDDAV:  cpu time     92.1642: real time     92.2432
       DOS:  cpu time      0.0051: real time      0.0051
    CHARGE:  cpu time      8.7037: real time      8.7105
    MIXING:  cpu time      0.0163: real time      0.0163
    --------------------------------------------
      LOOP:  cpu time    122.9203: real time    123.0505

 eigenvalue-minimisations  :  3712
 total energy-change (2. order) :-0.4568014E-05  (-0.5632851E-06)
 number of electron     360.9999999 magnetization 
 augmentation part      -19.3444570 magnetization 

 Broyden mixing:
  rms(total) = 0.11413E-03    rms(broyden)= 0.43167E-02
  rms(prec ) = 0.21310E-03
  weight for this iteration     100.00
  WARNING: grid for Broyden might be to small

 eigenvalues of (default mixing * dielectric matrix)
  average eigenvalue GAMMA=   1.2229
  3.0888  2.6952  1.9804  1.3645  1.0560  0.8713  0.3910  0.7597  0.6365  0.6365
  0.6171  0.5771

 Free energy of the ion-electron system (eV)
  ---------------------------------------------------
  alpha Z        PSCENC =       125.18136400
  Ewald energy   TEWEN  =     -6670.18155372
  -Hartree energ DENC   =     -3486.56427369
  -exchange      EXHF   =         0.00000000
  -V(xc)+E(xc)   XCENC  =      -399.11109159
  PAW double counting   =     53781.53403608   -52904.30296966
  entropy T*S    EENTRO =        -0.08034419
  eigenvalues    EBANDS =      -510.63120596
  atomic energy  EATOM  =      9182.27680711
  Solvation  Ediel_sol  =         0.00000000
  ---------------------------------------------------
  free energy    TOTEN  =      -881.87923161 eV

  energy without entropy =     -881.79888742  energy(sigma->0) =     -881.83905952


--------------------------------------------------------------------------------------------------------




--------------------------------------- Iteration      1(  14)  ---------------------------------------


    POTLOK:  cpu time      0.7046: real time      0.7311
    SETDIJ:  cpu time      1.3027: real time      1.3033
    EDDIAG:  cpu time     19.9439: real time     19.9617
     EDDAV:  cpu time     91.2962: real time     91.3786
       DOS:  cpu time      0.0044: real time      0.0043
    CHARGE:  cpu time      8.6635: real time      8.6701
    MIXING:  cpu time      0.0168: real time      0.0168
    --------------------------------------------
      LOOP:  cpu time    121.9321: real time    122.0660

 eigenvalue-minimisations  :  3648
 total energy-change (2. order) :-0.3639499E-05  (-0.5426571E-06)
 number of electron     360.9999999 magnetization 
 augmentation part      -19.3444599 magnetization 

 Broyden mixing:
  rms(total) = 0.68176E-04    rms(broyden)= 0.39485E-02
  rms(prec ) = 0.12427E-03
  weight for this iteration     100.00
  WARNING: grid for Broyden might be to small

 eigenvalues of (default mixing * dielectric matrix)
  average eigenvalue GAMMA=   1.2481
  3.3197  2.6237  2.3250  1.4981  1.0904  0.8973  0.8973  0.3909  0.7395  0.6448
  0.6233  0.6076  0.5675

 Free energy of the ion-electron system (eV)
  ---------------------------------------------------
  alpha Z        PSCENC =       125.18136400
  Ewald energy   TEWEN  =     -6670.18155372
  -Hartree energ DENC   =     -3486.54622689
  -exchange      EXHF   =         0.00000000
  -V(xc)+E(xc)   XCENC  =      -399.11193732
  PAW double counting   =     53781.01493219   -52903.78402266
  entropy T*S    EENTRO =        -0.08035035
  eigenvalues    EBANDS =      -510.64824761
  atomic energy  EATOM  =      9182.27680711
  Solvation  Ediel_sol  =         0.00000000
  ---------------------------------------------------
  free energy    TOTEN  =      -881.87923525 eV

  energy without entropy =     -881.79888490  energy(sigma->0) =     -881.83906007


--------------------------------------------------------------------------------------------------------




--------------------------------------- Iteration      1(  15)  ---------------------------------------


    POTLOK:  cpu time      0.7168: real time      0.7310
    SETDIJ:  cpu time      1.3043: real time      1.3049
    EDDIAG:  cpu time     19.8403: real time     19.8570
     EDDAV:  cpu time     81.3260: real time     81.4012
[...]
   -.258E+02 -.669E+01 -.151E+02   0.272E+02 0.808E+01 0.131E+02   -.241E+01 -.186E+01 0.174E+01   -.457E-04 -.346E-04 0.986E-05
   -.142E-01 -.310E+02 -.527E+01   0.143E+01 0.294E+02 0.376E+01   -.172E+01 0.110E+01 0.353E+00   -.392E-04 0.603E-05 0.575E-05
   -.694E+02 0.559E+02 -.181E+02   0.684E+02 -.567E+02 0.188E+02   0.734E+00 -.157E+00 -.960E+00   -.419E-04 0.479E-04 -.338E-04
   -.344E+02 -.519E+02 -.108E+01   0.342E+02 0.483E+02 0.296E+00   0.107E+01 0.329E+01 0.637E+00   -.120E-04 -.483E-07 -.115E-04
   -.380E+02 0.614E+02 0.211E+02   0.395E+02 -.618E+02 -.219E+02   -.201E+01 0.143E+01 -.339E-01   -.252E-04 0.656E-04 0.617E-04
   -.925E+02 0.170E+02 0.245E+02   0.911E+02 -.181E+02 -.226E+02   0.129E+01 0.110E+01 -.240E+01   -.705E-04 0.189E-04 0.615E-04
   0.425E+02 -.130E+02 -.795E+01   -.410E+02 0.153E+02 0.789E+01   -.165E+01 -.155E+01 0.207E+00   -.291E-04 -.160E-04 0.192E-04
   0.191E+02 0.556E+01 -.112E+02   -.177E+02 -.506E+01 0.879E+01   -.170E+01 -.673E+00 0.297E+01   -.177E-04 0.411E-05 -.748E-05
   -.179E+02 -.199E+01 -.897E+00   0.168E+02 0.303E+01 0.910E+00   0.141E+01 -.345E+00 0.971E+00   -.317E-04 -.141E-04 -.145E-04
   0.597E+02 -.402E+02 -.128E+02   -.592E+02 0.411E+02 0.106E+02   -.289E+00 -.834E+00 0.234E+01   0.308E-05 -.192E-04 -.129E-04
   -.198E+02 -.822E+02 -.706E+01   0.188E+02 0.787E+02 0.610E+01   0.422E+00 0.419E+01 0.218E+01   0.778E-04 -.669E-04 -.492E-05
   0.249E+02 0.185E+02 0.434E+01   -.225E+02 -.169E+02 -.405E+01   -.207E+01 -.193E+01 -.323E+00   -.400E-04 -.108E-04 0.369E-05
   -.645E+02 0.376E+02 0.260E+02   0.626E+02 -.384E+02 -.252E+02   0.327E+01 0.104E+01 -.136E+01   -.723E-04 0.167E-04 0.231E-04
   0.126E+02 0.254E+02 -.175E+02   -.110E+02 -.240E+02 0.157E+02   -.169E+01 -.140E+01 0.306E+01   -.337E-04 -.203E-04 -.122E-04
   0.682E+02 0.102E+02 0.111E+02   -.679E+02 -.106E+02 -.120E+02   -.846E-01 -.153E+00 0.329E+00   0.159E-04 0.500E-04 0.597E-04
   0.793E+02 -.616E+02 -.142E+02   -.799E+02 0.617E+02 0.128E+02   0.349E+00 -.241E+00 0.132E+01   0.204E-04 -.101E-03 -.344E-04
   -.261E+02 -.797E+01 -.864E+01   0.270E+02 0.762E+01 0.826E+01   -.125E+01 0.120E+01 0.178E+01   0.277E-04 0.293E-04 -.146E-04
   -.610E+02 -.748E+02 0.336E+01   0.599E+02 0.741E+02 -.115E+01   0.131E+01 0.579E+00 -.143E+01   0.496E-04 -.414E-04 0.133E-04
   0.225E+02 0.602E+02 -.125E+02   -.212E+02 -.587E+02 0.112E+02   -.391E+00 -.210E+01 0.901E+00   0.116E-04 0.448E-04 0.200E-05
   -.748E+02 0.147E+02 -.126E+02   0.752E+02 -.127E+02 0.130E+02   -.602E+00 -.215E+01 -.658E+00   -.657E-04 -.329E-04 -.321E-04
   0.660E+01 -.241E+02 0.110E+02   -.423E+01 0.248E+02 -.947E+01   -.359E+01 -.940E+00 -.104E+01   -.309E-04 0.494E-05 0.367E-05
   -.126E+03 0.344E+02 -.410E+02   0.127E+03 -.357E+02 0.404E+02   -.947E+00 0.121E+01 0.128E+01   -.146E-03 0.372E-04 -.620E-04
   -.390E+02 0.108E+01 0.171E+02   0.365E+02 -.239E+01 -.157E+02   0.326E+01 0.516E+00 -.891E+00   0.342E-04 0.204E-04 0.275E-04
   0.286E+01 0.107E+03 -.307E+02   -.690E+00 -.107E+03 0.303E+02   -.987E+00 -.457E+00 -.544E+00   0.119E-04 0.221E-03 -.129E-03
   -.433E+02 0.816E+02 -.919E+01   0.427E+02 -.801E+02 0.981E+01   0.106E+01 -.945E+00 -.153E+01   -.923E-05 0.864E-04 -.364E-04
   -.408E+01 0.642E+02 -.451E+01   0.224E+01 -.633E+02 0.658E+01   0.192E+01 -.150E+00 -.114E+01   0.343E-04 0.817E-04 -.264E-04
   -.444E+02 -.532E+02 -.227E+01   0.437E+02 0.538E+02 0.380E+00   0.116E+01 -.510E+00 0.866E+00   0.345E-04 -.152E-04 0.454E-04
   -.305E+01 0.484E+02 -.552E+01   0.490E+01 -.476E+02 0.544E+01   -.264E+01 -.603E+00 0.411E+00   0.264E-04 0.420E-04 -.258E-04
   -.661E+01 0.111E+02 0.104E+02   0.750E+01 -.105E+02 -.927E+01   -.752E+00 0.134E+00 -.362E+00   -.192E-04 -.987E-05 0.193E-04
   -.116E+02 0.161E+02 -.545E+01   0.102E+02 -.154E+02 0.416E+01   0.138E+01 -.111E+01 0.152E+01   -.306E-04 0.976E-05 -.233E-05
   0.487E+02 -.452E+02 -.458E+00   -.488E+02 0.438E+02 0.173E+01   -.782E+00 0.115E+01 -.970E+00   -.331E-04 -.111E-04 0.194E-05
   -.679E+02 -.258E+02 -.174E+02   0.680E+02 0.279E+02 0.160E+02   -.404E-01 -.236E+01 0.232E+01   -.187E-04 -.333E-04 0.169E-05
   -.399E+01 -.382E+02 0.442E+01   0.517E+01 0.372E+02 -.275E+01   -.166E+01 0.114E+01 -.183E+01   -.376E-04 -.801E-05 -.319E-04
   0.151E+02 0.184E+02 -.130E+02   -.166E+02 -.196E+02 0.113E+02   0.233E+01 0.131E+01 0.253E+01   -.190E-04 0.113E-04 0.475E-05
   -.661E+02 0.451E+02 0.165E+02   0.646E+02 -.423E+02 -.166E+02   0.171E+01 -.349E+01 0.123E+00   -.102E-03 0.119E-04 0.154E-04
   0.271E+02 0.191E+02 -.594E+00   -.289E+02 -.195E+02 0.999E+00   0.190E+01 0.410E+00 0.372E+00   0.133E-04 0.556E-06 0.475E-05
   0.633E+00 0.951E+01 -.130E+02   -.565E+00 -.103E+02 0.118E+02   0.143E+01 0.324E+00 0.220E+00   -.703E-04 -.276E-04 -.661E-05
   0.882E+02 0.786E+02 0.413E+02   -.883E+02 -.766E+02 -.428E+02   0.450E+00 -.206E+01 0.108E+01   0.841E-04 0.261E-04 -.186E-04
 -----------------------------------------------------------------------------------------------
   0.911E+01 -.161E+02 -.105E+02   -.995E-13 0.426E-13 0.114E-12   -.911E+01 0.161E+02 0.105E+02   -.633E-03 0.139E-03 0.160E-03


 POSITION                                       TOTAL-FORCE (eV/Angst)
 -----------------------------------------------------------------------------------
     14.33370     11.83510      6.78186        -0.667880     -0.169639      0.504091
      5.65950      0.31476      3.60324        -1.748847     -1.729721     -0.281504
      4.64751     12.89290      5.01807        -0.516973      0.256800     -0.499877
      2.51509      1.58832      1.87088        -0.251357      0.219065     -0.034741
      1.10871      1.16794      7.94900         0.748150     -0.159145     -0.139866
      4.58937     12.86550      1.77700        -0.051712     -0.218160     -1.092840
     12.87270     10.55890      3.25015         0.658867     -0.536908     -0.193485
      2.92777     10.06870      4.77220         0.202880     -0.083812      0.234350
      2.16068      3.23752      5.34643        -0.217120     -0.475164     -0.070097
      6.70364      5.64238      9.83149         0.819481      0.538042     -0.434321
      2.06915      9.73710     10.30110        -0.311530     -0.484902      0.005693
      7.02486      8.83280      6.11699         1.442052     -0.033913     -0.161900
      2.58659      5.53751      7.00473        -1.412475      1.486758     -0.603040
      0.03523      5.03566      9.91279         0.369482     -0.364720     -1.130691
      5.17140     14.49170      9.36505         1.120913      0.813831     -0.017477
      6.62437      1.21109      4.00059         2.040507      1.745919     -0.075621
      2.44238      5.56474      9.28499        -1.012399     -1.203643      0.239937
      6.02983      3.24319      2.85869        -1.187316      1.299612      0.555356
      5.12847      7.87854      5.42629        -1.691981     -1.053108     -0.810669
     13.80590      8.76900      3.08430         0.055368     -0.042274     -0.999756
      7.93542     10.47770      9.45452         0.719428      0.444445     -0.682062
      9.28787      1.90378      7.21324        -0.214795     -0.344499      1.016061
      9.57569     13.93760      9.74703         0.683439     -0.095643      0.053113
     12.90770     12.09380      7.32345         0.857309      0.488671     -0.862376
     12.19390      8.48051      6.18483        -0.183999      0.927367      0.907600
      3.09152      7.53269     10.19120         0.879039      1.622556      0.670473
      5.70771     12.44340      5.88669         0.700849     -1.195608      1.514212
      6.73175      1.87972      9.93690        -1.739645     -0.320979     -0.479939
     14.31490      1.64008      8.29764        -0.599546     -0.229139      1.032524
      5.04473     12.47560      0.32555        -0.512689      1.155167      1.161037
      6.08450      2.70442      7.77597         0.221234     -0.382869     -0.691889
      1.08856      4.18011      5.80234         0.881202     -0.487950     -0.069411
     11.77980      3.32842      3.24721        -0.342814      0.135018      1.131941
      7.19093     11.70950      0.97287         0.974181     -0.114479     -0.149615
      8.61301     12.53320      8.13472        -0.984212     -0.488638      0.228369
      8.99117     13.31510      1.48266        -0.272670      0.116376      0.199426
      9.10139      6.46690      0.19905        -1.045107      0.451511     -2.064076
      1.52301      7.76898      6.31286         0.946994     -0.451830     -0.418276
      3.35909      9.28261      5.99168        -0.123701      0.765106      0.524615
      3.54583      3.56450      9.98872        -0.942721     -0.480194      0.587837
      2.68494      7.01336      2.08637         0.692402      0.106394     -0.454780
     13.08720      8.38545      0.84917         0.056528      0.152431     -0.226490
     12.93290      5.35551      3.12185         0.035901      0.073179     -0.543311
     10.12270     14.00020      4.74252        -0.687780     -0.187115     -0.113186
     11.51150     10.89650      5.92742         0.130783     -0.818158     -0.056491
      7.39048     10.91420      5.02166        -0.082801      0.038212      0.177613
     10.49490      2.95976      0.38643        -0.043769      0.171223     -0.702961
      4.69621      5.56518      6.10453        -0.127068      0.917282     -0.334179
     10.02300      3.94416      6.57414        -0.606423      1.015475     -0.838469
      8.96918      7.47055      5.54970        -0.587398      0.363519      0.908312
      4.75369      7.24352      3.16978         0.920675     -0.214795      0.040393
      9.40186     11.86600      5.98762        -0.495476      0.984263     -0.245965
      5.61408      7.76368     10.12590        -0.314325     -0.242034     -0.046266
     11.49030     11.15090      3.66764         0.139052      0.409213     -0.710888
      5.67207      3.73521      0.54556         0.691457     -0.328809      0.199482
      4.68028     10.85420      7.43258        -0.540901     -1.117262     -0.683126
      6.49661      5.04504      7.45250         0.369417     -1.126690     -0.151619
     11.09970     13.28220      2.74771        -0.046377     -0.440704      0.022449
      7.30996      1.22069      6.28675        -1.296845      0.540358      0.596587
     12.31530      7.39896      4.11922        -1.173963     -0.505228     -0.174899
     10.41190      7.72578      7.48818        -0.376513     -0.475475     -1.160392
     12.52530      2.21317      1.39905        -0.306782     -0.930491     -0.409725
     11.12030      9.71167      0.45592         0.991191     -0.188927     -0.138930
     13.77990      3.36794      6.88913        -0.633398      1.129749     -0.871927
     12.69650     14.42280      7.94106        -0.022726      0.040761     -0.547687
      6.30459      9.24751      8.33471        -0.233478      0.682156      0.151552
      8.35380      6.56213      2.26256        -0.416114     -0.186273      0.665626
     10.02610      7.61671      3.40888         0.339501      0.731334      1.076172
      7.54534     10.20000      2.69370         0.292166      0.007532      0.186074
      1.16060      7.45888      3.76511        -0.613010      0.810675      1.275103
      8.21552      5.23302      5.64987         0.290008     -0.493277     -0.027111
     11.78430      2.83685      5.56595         1.476634      0.334195     -0.637741
      9.55428      2.95034      2.44995        -0.130871     -0.045094      1.404044
      6.63069     13.86660      7.55263         0.189621     -0.536632     -0.575548
      3.55699     11.31310      9.38563        -0.088822     -0.189866      0.035374
     12.92140      5.98305      0.73558        -0.411037      0.915774      1.493864
     14.28310      9.52344      9.51952         0.208899     -0.138919      0.750744
      4.43947      4.91112      3.78596         0.859835     -0.651422     -0.400293
     11.94690     13.62430      9.98331        -0.229545     -0.215730     -0.339409
      9.67516      8.66673      9.47337        -1.391819     -0.298693      0.487002
     12.72190     14.42160      1.54350         0.334790      0.028956      0.623630
     13.36170      5.62693      7.83664         0.855930     -0.787024      0.604320
      1.91434      2.80934      1.21927         1.193893     -0.680337     -0.863453
     14.38390      2.70366      0.13084         0.476505      0.569881     -0.980520
      2.42397      4.63460      2.47870         0.151761      0.830092      0.901649
     14.01620      7.99810      7.61037         0.503726     -0.054088     -1.035251
      0.63756      5.18838      3.77916        -0.902089      0.156395      0.358464
     11.06500      5.50008      7.85827         0.117423      0.727565      0.766932
     10.92260      5.18419     10.13150         0.014716     -0.483577      0.302196
      6.63236      8.12154      1.92101        -0.950609     -0.147518      0.253141
     12.48880     11.30230      9.46780         0.056354     -0.402318      1.024982
      9.95770      9.79954      2.56208        -0.532939      0.125641     -0.260513
      7.87868      4.49587      3.23417         0.937329      0.110129      0.931183
     11.12940      0.80313      6.38772         0.299542     -0.823678      0.029095
      8.69002      0.66146      2.95995         0.234028      0.027552      0.842390
      8.94221      1.67396      9.55882         1.569727     -0.454196     -0.946935
      3.93667      1.87896      8.39706         0.523200     -0.154917     -0.233408
 -----------------------------------------------------------------------------------
    total drift:                               -0.000763     -0.010192      0.005136


--------------------------------------------------------------------------------------------------------



  FREE ENERGIE OF THE ION-ELECTRON SYSTEM (eV)
  ---------------------------------------------------
  free  energy   TOTEN  =      -881.87923696 eV

  energy  without entropy=     -881.79888623  energy(sigma->0) =     -881.83906159



--------------------------------------------------------------------------------------------------------


    POTLOK:  cpu time      2.0028: real time      2.0105


--------------------------------------------------------------------------------------------------------


     LOOP+:  cpu time   2178.2425: real time   2180.5118
    4ORBIT:  cpu time      0.0000: real time      0.0000



 total charge

# of ion       s       p       d       tot
------------------------------------------
    1        0.542   0.013   0.000   0.555
    2        0.619   0.022   0.000   0.641
    3        0.582   0.018   0.000   0.600
    4        0.555   0.014   0.000   0.569
    5        0.578   0.018   0.000   0.596
    6        0.534   0.012   0.000   0.546
    7        0.544   0.016   0.000   0.560
    8        0.559   0.014   0.000   0.573
    9        0.570   0.015   0.000   0.585
   10        0.761   0.840   0.000   1.601
   11        0.801   0.814   0.000   1.615
   12        0.753   0.944   0.000   1.697
   13        0.752   0.953   0.000   1.705
   14        0.754   0.908   0.000   1.661
   15        0.763   0.844   0.000   1.607
   16        0.745   0.986   0.000   1.731
   17        0.752   0.932   0.000   1.684
   18        0.751   0.929   0.000   1.679
   19        0.754   0.973   0.000   1.727
   20        0.788   0.854   0.000   1.642
   21        0.751   0.887   0.000   1.638
   22        0.758   0.978   0.000   1.737
   23        0.752   0.946   0.000   1.698
   24        0.747   0.942   0.000   1.689
   25        0.756   0.912   0.000   1.668
   26        0.760   0.892   0.000   1.652
   27        0.743   0.949   0.000   1.692
   28        0.766   0.919   0.000   1.686
   29        0.745   0.959   0.000   1.704
   30        0.738   0.925   0.000   1.663
   31        0.764   0.902   0.000   1.666
   32        0.745   0.987   0.000   1.731
   33        0.752   0.948   0.000   1.699
   34        0.754   0.907   0.000   1.661
   35        0.748   0.898   0.000   1.647
   36        0.758   0.899   0.000   1.657
   37        0.766   0.915   0.000   1.681
   38        0.760   0.841   0.000   1.602
   39        0.741   0.935   0.000   1.676
   40        0.753   0.927   0.000   1.680
   41        0.768   0.904   0.000   1.673
   42        0.753   0.915   0.000   1.667
   43        0.755   0.917   0.000   1.672
   44        0.759   0.876   0.000   1.634
   45        0.749   0.956   0.000   1.705
   46        0.745   0.894   0.000   1.639
   47        0.756   0.948   0.000   1.704
   48        0.754   0.930   0.000   1.684
   49        0.753   0.992   0.000   1.745
   50        0.752   0.910   0.000   1.663
   51        0.758   0.917   0.000   1.675
   52        0.750   0.891   0.000   1.642
   53        0.753   0.864   0.000   1.617
   54        0.772   0.945   0.000   1.717
   55        0.750   0.905   0.000   1.655
   56        0.756   0.903   0.000   1.659
   57        0.748   0.901   0.000   1.649
   58        0.762   0.915   0.000   1.677
   59        0.745   0.941   0.000   1.686
   60        0.753   0.949   0.000   1.702
   61        0.749   0.954   0.000   1.703
   62        0.755   0.952   0.000   1.707
   63        0.756   0.910   0.000   1.666
   64        0.751   0.940   0.000   1.691
   65        0.744   0.938   0.000   1.682
   66        0.753   0.910   0.000   1.663
   67        0.752   1.003   0.000   1.755
   68        0.753   0.950   0.000   1.703
   69        0.749   0.902   0.000   1.651
   70        0.762   0.901   0.000   1.663
   71        0.754   0.876   0.000   1.630
   72        0.757   0.943   0.000   1.700
   73        0.755   0.920   0.000   1.675
   74        0.748   0.905   0.000   1.653
   75        0.794   0.858   0.000   1.651
   76        0.754   0.919   0.000   1.672
   77        0.760   0.846   0.000   1.606
   78        0.765   0.862   0.000   1.627
   79        0.759   0.936   0.000   1.695
   80        0.750   0.912   0.000   1.662
   81        0.793   0.903   0.000   1.696
   82        0.756   0.894   0.000   1.649
   83        0.740   0.969   0.000   1.709
   84        0.746   0.929   0.000   1.674
   85        0.757   0.952   0.000   1.709
   86        0.754   0.874   0.000   1.628
   87        0.760   0.985   0.000   1.745
   88        0.754   0.998   0.000   1.752
   89        0.751   0.969   0.000   1.720
   90        0.751   0.906   0.000   1.657
   91        0.757   0.871   0.000   1.628
   92        0.753   0.926   0.000   1.680
   93        0.750   0.924   0.000   1.674
   94        0.751   0.976   0.000   1.727
   95        0.758   0.860   0.000   1.618
   96        0.755   0.949   0.000   1.704
   97        0.815   0.806   0.000   1.621
--------------------------------------------------
tot         71.627  80.988   0.000 152.615


 total amount of memory used by VASP MPI-rank0   184597. kBytes
=======================================================================

   base                                    :      30000. kBytes
   nonl-proj                               :      33529. kBytes
   fftplans                                :      40949. kBytes
   grid                                    :      31575. kBytes
   one-center                              :         21. kBytes
   wavefun                                 :      48523. kBytes

  
  
 General timing and accounting informations for this job:
 ========================================================
  
                  Total CPU time used (sec):     2245.961
                            User time (sec):     2238.316
                          System time (sec):        7.645
                         Elapsed time (sec):     2249.556
  
                   Maximum memory used (kb):      350152.
                   Average memory used (kb):          N/A
  
                          Minor page faults:       268031
                          Major page faults:         1153
                 Voluntary context switches:         2806
