LAMMPS data file via write_data, version 2 Apr 2025, timestep = 1001000, units = metal

1000 atoms
2 atom types

0 22.31043679975832 xlo xhi
0 22.31043679975832 ylo yhi
0 22.31043679975832 zlo zhi

Atom Type Labels

1 H
2 Si

Masses

1 1.00784
2 28.0855

Atoms # atomic

552 2 5.061169655080501 2.097557421990077 1.001461655188175 0 0 0
501 2 4.031903993971806 3.6359286990855906 2.687985035244485 0 1 0
684 2 1.4186652831445867 2.636252466402123 3.193076949520938 2 2 0
760 2 2.9706217234778127 4.047159593359653 0.5169689629443792 1 2 0
263 1 2.6676794891994837 2.2959698757036233 4.101262420769606 -1 -1 -1
845 2 4.926018484954696 1.6426564998973365 4.169371710010299 0 1 3
46 1 5.372573454327448 5.697946850532989 3.1370113701293447 -1 0 -2
61 1 2.5808296132563524 1.4745075399537713 2.147884006563156 -2 -2 0
446 2 2.859064065825238 6.075795846619658 3.71674565123828 1 1 1
770 2 3.1065554315196886 0.5391138894157582 1.1914630847329384 2 0 1
262 1 1.2780208477157287 5.6344393643067505 5.09482143490119 0 0 0
457 2 5.242357968422853 6.335219583326585 4.387264475020867 -1 1 0
492 2 7.653072074090344 10.919336378770176 0.09567686559713616 0 1 0
11 1 9.589583773274185 1.3080803695083048 3.13599981701748 -4 3 -2
868 2 5.298263755361353 2.0252660694369577 6.53761731058241 2 2 0
434 2 7.087576419500577 1.3230102470848861 4.1582716931698025 0 1 0
692 2 8.431551646901093 4.003606004317095 3.8122188692700054 -1 1 0
487 2 10.462215563459093 2.8546739649067168 4.107923058248577 -1 -1 0
292 1 2.195082332029205 10.66204615515434 6.985446400348688 -3 2 -4
375 1 4.160164890627453 0.534760844577562 3.6333701189395105 -1 -1 1
680 2 10.546237073053375 1.9966661368725724 0.4589018775286689 0 -1 1
74 1 5.377943120189845 4.204086193633644 4.5517223619333125 -3 -3 -1
547 2 6.366296451754606 3.2829484389767933 2.8656094795939504 2 -2 -1
735 2 9.874208750556571 3.7148560238306785 1.5016163939322844 1 1 0
30 1 10.44080484264291 0.47495466173982714 0.9151432533825882 4 2 1
662 2 7.572571327041528 4.533784070682654 0.6520605243659758 0 -1 -1
357 1 4.349518859903641 10.824388452498557 7.890458138702235 -3 2 0
779 2 7.184214938161294 1.0072285088605542 1.3820601598632212 -2 0 -1
796 2 4.19138530283146 6.171908043543073 1.7667616292542703 -1 1 2
120 1 4.672074275825881 4.699460103558699 1.5274000753568124 0 -1 3
385 1 9.393514186108924 0.34124069028317017 8.128695310457132 -1 1 0
172 1 2.5034677710419158 7.364455775691424 5.622841154050139 0 0 0
198 1 2.716039440220331 9.445977968599736 2.40336766999615 3 0 3
40 1 1.4475863242138742 9.412485679888272 4.9223867329714155 1 0 1
912 2 1.318662849579651 8.017406312218604 3.9264144396716874 -1 0 -1
808 2 4.330884160534016 8.851854643838752 2.333426544667115 2 0 1
634 2 1.6790118047604061 5.621182828586084 1.8339265160582754 0 -1 1
494 2 0.01344818430734232 3.782339208878155 9.73093425940552 0 1 -1
472 2 4.510738180345575 11.04936118841604 3.0947617368625315 1 1 0
479 2 1.8138100939829405 7.702126357144717 1.012781767340378 1 1 2
670 2 6.17699428156853 9.722257327018305 7.113176097488898 1 -1 -1
214 1 0.22487897060891662 1.938564412193299 10.990181709961291 2 1 1
590 2 3.721721644872198 8.381621542063437 0.23541049136812353 2 -1 0
231 1 5.7723744061993605 8.98530523447239 4.963981145756129 0 3 1
512 2 11.072559924134811 6.713020355924388 2.3791371908639203 2 -1 -2
275 1 1.3249040492197257 8.693676282488013 2.319401095553314 0 1 -4
213 1 5.739233128941786 8.3459647240385 1.756620454095901 -3 -1 2
898 2 9.426884802881357 6.089137101342814 0.5467943263497749 -1 -1 1
944 2 6.978447864099343 5.659531810465992 2.5232085032353786 0 1 0
644 2 7.4086488974519895 10.072583426871573 2.352047554839911 3 0 0
608 2 6.769435758109404 8.320111835514465 3.849253502132802 2 1 1
414 2 10.328026659849364 9.331934336676241 0.3148355322916333 -1 -1 1
596 2 10.451752281251448 9.246208961114654 3.6466450725298745 -1 0 0
539 2 9.003824980828927 8.116354055154828 1.789788273215503 -1 -1 1
399 1 5.115964588526212 7.725079472697656 3.2143418799880505 -1 3 1
874 2 5.965818269416429 10.615024762718994 4.843603061804097 0 -1 1
916 2 2.2664624098761204 4.971599868874973 11.028939346792477 -1 3 -1
255 1 8.146700538193143 5.385749144883804 10.275449707151763 -2 0 2
179 1 6.107526905613644 3.403296170345743 1.4118668086205604 -1 2 2
824 2 2.8571970290314352 3.057824898569318 7.8613324330518655 0 -3 1
774 2 3.7597460394330953 3.927934125415289 5.065985813096877 1 0 -2
858 2 5.108735054917493 3.6601187185150805 10.419851254679896 0 0 -1
902 2 5.030088998484393 1.771124736034844 9.00766357920736 0 1 1
4 1 7.507980819742708 10.144545918775023 11.007230800432213 -1 -2 0
372 1 0.9904093090428318 3.5510450848641377 7.610743813336032 0 3 2
701 2 5.720197613191493 4.290667319975684 7.196656515998705 -1 2 2
165 1 2.2566924987931523 3.29446653847892 4.892719398514331 -2 -1 0
688 2 10.994549452584836 1.6800599940513996 8.88225526280684 1 1 -2
658 2 0.06265577687656226 5.238920193607781 8.1866119144197 1 2 1
386 1 6.548754655472228 11.098853531621753 7.631582568770156 1 2 -1
842 2 10.426651040945746 5.12961089010963 3.8851837621183076 -4 -1 0
863 2 3.4129578553303204 1.1457706721402918 5.934771102658403 0 0 -2
837 2 10.310383297258502 9.18049334903192 6.301905086061704 2 -2 2
303 1 7.124610643740926 7.75966655946914 9.675652531877747 1 0 -1
681 2 10.817006817853144 3.7749495816352745 7.483062059831646 -1 -1 1
157 1 10.913232349618234 10.621982472508622 9.266009628665797 -5 -1 1
981 2 6.972020560784152 4.075787215479211 5.405855542584558 2 -2 0
420 2 6.8229412026155805 1.5593783399710595 10.346856235878933 1 0 0
256 1 8.784504073507929 5.114211581340173 7.6326982350928185 3 2 2
977 2 7.540428074568323 4.088897484740326 8.572053207314552 -1 2 0
431 2 9.045324550106914 0.2643646081884216 6.472068995718294 0 1 4
560 2 8.600430117104903 2.702229630913428 6.851554691835517 1 2 0
971 2 9.223903689394456 2.489951532365218 9.984740900550287 1 1 1
553 2 10.507046974457705 5.482364943442713 9.12770110461389 -1 0 -1
812 2 5.482548157854188 5.834065850841189 9.575341343840138 1 0 0
772 2 4.8138956775143225 7.907902771229283 5.89154340108141 0 2 0
511 2 0.9449096835114043 9.271996610094437 10.923781500994524 -1 0 1
605 2 3.701986879077556 10.396477797720692 10.475088581185922 -2 0 1
25 1 1.8554491732778287 8.658925813794967 9.630791692928703 2 2 1
581 2 0.27481698348729966 0.21332823708467435 1.1095215649218702 1 2 1
810 2 1.7799265230811783 6.619430250670375 6.77233487976085 2 1 -2
691 2 4.508839980902191 6.091821984541133 7.497491454171065 0 0 1
229 1 0.5896297594434318 2.128097903858902 4.320646176628383 1 2 -2
136 1 2.402958552161568 8.76776241394027 7.895333117201242 1 2 -2
638 2 0.6372478092676935 8.392018146287427 7.666489888251693 1 1 0
668 2 0.7259085836436013 11.037335276125933 9.131557196402234 1 0 -1
412 2 2.0815366416283334 6.41664572352375 9.177046776800406 0 0 2
72 1 2.657437314888724 4.108084749780285 9.224439482471775 2 2 -1
320 1 3.9031251485015956 8.3546084590936 4.56225927295349 -1 -2 1
548 2 4.99837502478499 7.663307117018247 10.67753875979197 0 0 -1
257 1 0.1435687657736544 7.207505481439781 10.538332235477089 0 3 -1
938 2 3.9322498745341665 8.935345185870638 8.012222965928457 0 0 -1
347 1 3.571064124254374 7.402684221490023 9.168044323731461 2 -1 -1
979 2 0.8790718902073184 10.627709512596308 6.212082033717529 2 0 0
708 2 6.635732600975166 0.4940171561782086 7.7831728265375215 -1 -1 -1
749 2 8.259231228995825 10.112656084161863 6.0455563595546735 0 2 -1
485 2 9.554516347763602 9.95919420220366 8.946730023495583 0 -2 1
803 2 9.135637254089147 7.721481657174244 9.980909375630782 -2 1 0
946 2 0.2166061497156925 4.482524814732058 4.554668535237583 1 -1 -1
976 2 7.205989063433477 6.454862545894969 5.270241523906241 -2 -2 3
945 2 10.095147871556456 6.826127722892074 4.925137998007715 2 0 1
611 2 9.190242384255665 6.698553112789598 7.274856031713292 0 1 -1
790 2 6.695249448941569 6.849357841904243 7.727870873767976 1 0 0
85 1 6.56420630849841 8.691363021080177 8.44718940576289 1 0 0
265 1 6.872157915208226 8.638350126700583 9.806224865639907 1 -3 -1
693 2 8.67502157424167 0.5933925106499024 11.070467224823231 1 1 -1
410 2 2.776592689967542 0.6379487734769813 9.76997952572492 0 2 1
205 1 8.700414856179865 8.29561540490353 8.599147333555559 -3 -1 1
228 1 1.0448095996828333 5.934730462470784 10.697701612767458 -1 3 0
248 1 11.052579781973586 8.860749258766457 2.34985183457241 -4 0 4
317 1 0.08512531818941582 3.550288098561522 5.600061960101936 3 1 0
5 1 0.832900275149793 10.949365479920885 0.10562166630752756 3 -1 0
424 2 1.9996263333347677 5.1852031425974054 14.6477358683882 0 0 -2
994 2 3.8946067986535255 2.2997506032807045 11.690039211001702 0 1 -1
876 2 4.403352623185437 5.3066467097309555 12.298041178521506 -1 0 -3
629 2 1.5027448399602883 1.8314080090395917 14.4769809594826 2 1 0
300 1 3.45499556444273 3.410224442895557 15.057345667217088 -3 2 -2
177 1 5.040123346909323 3.8931675575782525 20.139321540768915 0 -2 2
448 2 3.6783053089862165 2.2894662501554093 14.155453979110675 2 1 -1
932 2 5.656464650475583 3.5467048103040586 13.634532512919204 -2 0 -1
509 2 4.388870095462764 0.9319809811170803 17.372638953340473 2 1 -1
866 2 7.591034781137901 7.259255819871997 22.2818426574072 0 0 1
321 1 0.43374830853194685 0.7936800097904153 17.968751531070346 -4 1 -2
408 2 0.9010023263699445 3.7384281491371425 15.86897318099086 1 -1 0
476 2 10.73041410614794 7.054977783359288 21.242022684881476 -1 1 -1
417 2 1.1925560276862628 1.4124593309062068 12.144388808390703 0 0 0
189 1 3.456406988184162 6.227057870237786 13.389663543876354 -2 2 0
253 1 2.487803043583798 6.6447840250997565 11.356953700439984 2 1 -3
200 1 4.391829942458981 2.7623530063153545 18.133897693988505 -3 4 0
95 1 5.350836114913013 1.202834797843171 14.169864123453332 -1 -2 -1
895 2 9.198749424753135 4.394576461135946 11.268230021522877 -2 -1 1
456 2 9.300949637347616 0.6400780246363762 14.31856058209225 -1 2 0
90 1 6.560745423526684 2.5291686734187313 12.721252112702647 -2 1 0
390 1 7.771754409789989 8.389119079365997 21.154505258294556 -6 -2 5
467 2 10.294848640354294 2.3749582548870514 16.550136525183373 0 2 -2
699 2 8.020562380476145 1.6776388736811805 13.032103768011254 0 2 -1
104 1 9.612617254972683 2.7355627070597355 14.290797350336755 2 2 -1
384 1 8.187844415797086 3.324746772570837 11.570989283740873 -2 -3 0
967 2 5.685142384277483 1.7662495125886615 15.59561391270431 1 -2 -1
16 1 7.784569227760694 3.3514991957096356 13.978629218008361 -2 -1 -1
250 1 6.528870974479605 9.311263955287092 18.231840732348036 1 4 -2
468 2 10.251508143868406 7.257338446315588 16.632407163185025 1 1 -1
443 2 4.734241079695276 6.9135845218567376 16.272609103084587 0 0 -2
464 2 2.8592632277958208 7.481168348442117 14.393655261220047 1 0 -1
505 2 3.2994614699924156 9.017370213924925 12.133275850703935 1 1 1
433 2 0.05510362716166228 6.9485397580092885 14.855420959286269 0 0 1
828 2 2.1626772880794487 10.03099685097072 14.006248490211627 1 -1 0
933 2 1.3974742968678942 7.133164491652425 12.392494605169032 2 0 1
366 1 8.061788928271293 7.550834509863778 16.955412396628073 4 2 -3
187 1 3.203205010070313 10.248327030560759 15.171686471875026 1 1 -1
73 1 5.345011472880762 10.117604635126966 14.436434221913578 2 0 2
481 2 0.7813467869200866 8.479761232131565 16.314220273573238 0 1 -1
546 2 0.4261916535598839 10.920970199579724 15.471076230898142 2 1 -1
364 1 6.515665303058066 0.43034780263113387 12.760918505160756 0 0 -3
207 1 4.313832131429362 7.407461896629561 13.857008324777297 -3 2 0
990 2 7.23137307660133 6.597846355794381 11.397546592196015 1 -1 1
56 1 4.083936526306099 8.597338126385242 18.956050814212 0 -3 0
919 2 9.871166261123838 8.927117750140033 12.056056708242371 -1 1 1
641 2 7.838260865800483 5.589861772579193 20.692900527791444 0 0 0
286 1 9.063324377256862 5.757751606846121 12.309995363084406 1 7 5
220 1 9.118523644052308 8.559442289054306 18.208732026517477 2 3 -4
223 1 3.079752320441715 1.5019466003642221 18.583163607815674 0 -4 -1
698 2 9.103861961355614 7.01016492571101 13.3128738429315 0 -1 1
211 1 9.837953176389107 4.414330083020484 14.009595841568029 4 0 3
879 2 9.087266647435317 11.146376300015257 13.093971854687549 1 1 -1
609 2 6.258995822690995 7.721210071813107 13.54681565914354 0 -1 1
617 2 7.534011683365826 9.28039044456393 12.485136100879956 0 0 2
882 2 6.68433544185365 5.88295470461097 14.419231826924898 -1 1 0
640 2 9.636372609945424 9.366741680116126 15.134753640195145 0 0 0
696 2 7.350469814588349 10.236780543113902 15.5940954112491 0 -1 0
371 1 9.362409163909653 4.665124894734027 16.340991634732383 -2 2 0
137 1 8.490176487566174 8.22520604138104 17.90520864610323 0 3 0
403 2 6.090302714563732 8.78704890106714 16.76915036077298 1 1 1
532 2 9.741477285462516 5.570451729629693 14.975666222667222 1 0 1
182 1 1.4034704829269735 3.6478862537668637 21.913945882097668 -1 0 -3
423 2 3.5065200272453616 4.978870115527892 16.95042132378795 1 1 1
751 2 3.1587395657063198 1.5886118408824959 21.456220790101902 1 0 0
618 2 2.421755779389327 0.1820022284442094 16.239257873785267 0 1 -1
798 2 4.374300941214735 10.473260400398464 13.251014986433468 0 2 -1
35 1 3.7163916527305862 0.4926015806075726 11.510015994516113 -1 3 -1
185 1 9.94709254756259 2.9352732762777207 13.075735291328233 2 -2 5
506 2 3.3153375008896866 2.9842381043087975 19.502013353371947 0 0 1
713 2 0.9365889509896718 3.1481663772960062 19.46562948779492 -1 2 -1
956 2 1.626173743129362 0.8654630294459921 19.973311555039125 0 0 -1
482 2 4.396478151248333 0.4169075621748846 19.96437037967528 1 0 0
773 2 2.894406810648285 2.8344628315820746 16.6802736564181 1 -2 0
592 2 4.825947290267404 4.525498497024165 21.507409972006464 2 -1 -1
427 2 2.8517812582617292 10.89355476911962 22.090132806859177 1 2 0
450 2 5.889327231930643 5.050351765886878 18.0792498011257 2 -1 0
42 1 10.891390277774068 0.980774958739982 19.06978481730815 -1 2 -1
295 1 10.849872016412245 3.059090695127925 18.030158331253855 -1 5 4
516 2 7.579257768864087 5.121088185722269 16.489742779861587 -1 1 1
277 1 0.8548961100915856 10.906849998039402 16.922959211936927 1 3 0
480 2 10.360341413988701 2.0739226639399186 20.097173286602388 0 -1 -3
663 2 6.922323470708718 0.4158481308154156 17.618205834727274 -1 1 -1
562 2 6.1688730118839 2.971198154437968 18.87262729408599 1 2 2
219 1 9.099835213323724 2.496711665121916 21.160033211751337 -1 1 2
690 2 6.427607723771598 1.8795119726427443 21.1143508868816 0 0 1
795 2 9.57102687314592 3.757974320947861 18.226954652793 0 1 -1
941 2 7.589688243734956 3.023565404258945 17.053618200059404 2 -1 1
712 2 8.164755439738755 1.5094981169127297 19.527291658881545 -2 1 -1
727 2 9.525162279442098 3.9343936517503213 21.359732224348896 1 2 0
14 1 7.5462686536340815 4.583456729012988 19.361156444723953 2 -1 -2
132 1 4.7401436656443625 2.8831120448621146 21.75728743594026 2 2 2
653 2 1.3581451890236111 6.287616814142501 17.117646335867004 2 0 0
706 2 2.3469279879870926 9.773267637797689 17.361570452204298 0 -3 -1
305 1 3.743031784294388 10.00550792451065 19.414612140262214 1 0 1
59 1 10.782051816796633 5.76951613046425 17.243876332862722 1 -1 4
429 2 5.3496173166889935 6.933454384704197 21.579870029911476 2 0 0
276 1 2.6063134377322683 9.417181867154882 20.16958980108035 4 0 2
621 2 10.898684756309612 0.9000849273430352 12.400187082740095 0 -1 -1
968 2 3.464927076136708 7.9163016645926865 17.894110614821358 3 0 0
473 2 2.1828425804340474 7.043173354998227 20.851989133449806 1 0 -1
313 1 4.969698973717462 6.057697675251385 11.18891658858985 0 4 2
922 2 0.944453510772272 7.970140019075805 19.465589845764956 -1 2 0
495 2 3.4267476582088157 5.61264108507527 19.353299348018407 -1 -1 1
100 1 5.9931452360505935 11.010389647183652 18.343935073012418 -1 -1 2
314 1 2.611835436169012 9.596910881582437 20.897885619656616 -2 5 4
1000 2 5.767696052765729 7.113904876828511 19.324480229371 -1 -1 -1
568 2 10.269392896367766 10.804002938934982 18.450796534888603 2 -1 -2
867 2 9.49479078052786 9.978254853796727 20.491429828512775 -1 -1 0
92 1 7.712564646353575 6.475815055374724 17.386584322485334 0 -2 -1
572 2 9.906573140801054 5.730653838676994 19.341458637471916 0 -1 -2
237 1 7.191821545829755 6.48693182704402 19.083032474933013 0 4 -1
578 2 7.262823941091847 9.023436909297159 19.966808390475087 -1 -1 0
996 2 5.508819075289705 9.83485241869756 21.400982357793286 0 0 -1
212 1 10.357787305137453 3.6598936793361605 12.325155006906162 2 4 1
154 1 5.045731333062113 9.966016070137627 15.880600635114561 2 3 -2
893 2 7.449441687267176 11.036185267450973 18.609126423613155 1 1 0
903 2 10.940415888194746 6.815628185059082 11.433910193623129 0 0 0
350 1 5.041855723495535 10.933670118716625 16.252718327229793 4 0 -2
109 1 6.100472677068432 0.6900360436268667 19.838444968181484 -1 -2 -3
833 2 6.625356056001419 11.005212613520271 13.546876679231579 -1 -1 0
78 1 11.122837282443468 9.086455978115715 14.826665460154343 -1 1 0
368 1 7.124532245736265 2.993354213320002 22.105016959319194 3 2 -1
77 1 2.346257802792473 2.5007297536452113 11.315710858454738 1 2 -1
682 2 1.6780700243513749 15.123469119506876 3.0444108262640306 1 -1 0
651 2 2.653596502750808 15.263668286532488 5.573683152911001 2 0 -1
33 1 1.6693756636518167 11.328855059799663 1.380354191938624 2 2 -3
763 2 4.197458386460138 13.499542133851591 2.53614366976646 1 -1 0
345 1 0.5038064727195034 14.418505831463397 0.765564441106534 2 2 -1
554 2 3.1315052831206036 14.123588173924057 0.6546884882984181 1 0 0
894 2 5.407025854259997 15.547234527077762 4.24954355726033 1 1 1
340 1 0.5919078400249439 11.990457849816185 6.64925814732553 -2 -1 3
31 1 4.780321690019947 16.868949008845796 2.449250249503479 -1 -1 1
251 1 4.337559070247724 15.447626567424612 2.6234285825496744 1 -2 -2
458 2 9.944295268340067 18.06758263322737 8.0790930180722 -1 -2 0
70 1 8.93825868295202 19.95014833174351 0.04688971221523691 -1 3 -1
405 2 1.7049352231250776 12.5961441836029 2.407505744578116 0 2 1
729 2 5.586322221746457 13.012209004786335 4.369303332917756 2 1 1
980 2 9.292857228231748 11.396040012207182 3.6173849977128802 1 -1 2
925 2 10.439259998353583 11.314964533215147 1.6304686263861026 1 0 -1
593 2 8.46281101657823 13.46658516345661 2.392497359509665 1 -1 1
841 2 7.9992659797855215 14.604697514628691 4.140630114436132 2 0 1
959 2 6.643024519036935 13.631889699935096 1.4932899006502487 -1 0 1
101 1 6.885253777323559 12.703321008802217 3.1157362090008056 1 1 1
145 1 5.728505973726669 14.994802145375308 2.181713396717368 2 -3 -1
230 1 9.551715423362609 14.838604615252395 1.2995853841207077 1 -1 3
885 2 8.868968364813002 12.745414722861904 0.40794931583900523 2 0 0
939 2 10.326155576827867 15.923558300090663 3.7561417402390833 0 2 0
356 1 0.07782227728173552 17.325428703334246 9.034787921878946 0 1 2
376 1 1.2726091421221715 19.81858759601777 7.453733802868918 -2 -2 3
338 1 4.597986435990055 17.472540372908224 2.069372869139212 5 -1 0
807 2 1.022400850118647 17.943434905020357 5.011329531775363 -1 -1 1
718 2 3.3849929023567578 16.926108712754267 4.324746552554275 -1 0 2
930 2 2.036213130369883 18.338015607767545 2.9744976662362337 0 1 0
209 1 4.68434746763285 20.87508282217348 4.686666647563058 1 0 3
816 2 4.00801037131533 19.47365280788549 2.103331377412847 -1 -1 2
141 1 2.4245138978818983 16.802379436701166 2.818968032441182 0 -3 1
367 1 2.2651223159851646 15.700210061992292 0.06731625097256842 -1 -1 0
169 1 2.9915650988332936 20.95354325837289 2.155849916627387 -3 -2 1
534 2 1.0712457225376686 21.980965654682432 4.832450836618285 1 1 -2
594 2 1.6219759987229607 20.974536517277823 2.2475203989483443 1 -2 0
395 1 5.752483507465244 19.004842128223082 4.082701810235146 -1 0 1
32 1 7.856116653550873 18.19260081282328 10.170003059172073 -3 -1 2
951 2 3.2825000812840877 17.947320739979915 0.07101684614295102 1 -1 1
949 2 1.2559138902752143 19.008884563754496 0.8227416933481339 3 -1 3
282 1 0.5531755928845095 15.946301364613124 2.103607206971149 4 2 -2
184 1 9.533141131858587 18.069089777685367 1.5893793417425073 0 -1 2
873 2 7.313528047961527 17.000055284998474 0.9784979609343858 2 1 2
992 2 5.723500263188032 20.99222425306641 1.9228274128902647 1 2 -1
899 2 8.924267760047952 22.17251458734427 4.088613869138776 0 0 1
646 2 10.807324344168885 15.78723324085252 11.059303180717226 0 1 1
819 2 6.911208215559887 18.339551034281214 3.856713273151768 0 0 0
542 2 9.317867518693706 16.138571321803934 1.852675415981689 0 0 0
745 2 7.588076222127471 20.63289047037145 0.8757260661681588 -2 -2 2
525 2 8.88543651219074 18.869907127718882 2.6963015424135 -3 0 0
463 2 5.2861298649191655 11.606666424012685 1.2106042287101213 0 -1 0
29 1 6.008347052245252 21.828000162207648 6.158686632142521 2 -1 3
689 2 6.965881643472766 20.799180833504213 3.849642181658886 1 -1 0
380 1 6.400357840956547 17.829978383368584 2.4470646085029473 3 1 1
400 1 9.916305921606472 18.110993689086836 4.3467407778479075 2 -1 0
835 2 8.765147018096387 11.373905177111032 10.679112971250339 1 1 -1
55 1 1.2503407721226676 18.440428048911876 6.994849874709757 0 0 3
950 2 10.27998127371999 20.348203407585533 4.017703925056484 1 0 -1
142 1 8.978585484378844 17.48703484846968 5.389388012029567 -2 -1 -2
13 1 8.33301858395404 21.938411463171363 1.8269811414207595 0 -1 1
86 1 6.184815649951997 16.897930407487745 10.10522853784398 -1 0 5
961 2 7.326865715652462 20.765977293213183 6.032135404332808 1 -1 0
502 2 5.075579267098836 15.062467885397373 6.906453214834394 0 -2 2
244 1 3.857156364884092 16.192982773217988 9.499821420825022 1 -2 2
519 2 2.4940424108836385 12.611750701892179 8.086423254750336 0 -1 0
995 2 3.9358993819019115 14.171753278610772 9.350010026967844 2 -1 2
788 2 3.3703018004229293 13.405001705160954 4.898815489299438 -1 1 -1
722 2 1.3181628544797257 15.175120596191446 8.688329051868172 0 1 0
838 2 0.4740718828634464 13.983198082246796 6.835395497321409 2 0 1
97 1 5.302341497567734 14.88936661116368 9.094864594463363 1 2 3
964 2 10.216255903856664 20.377443954250104 7.153329447878545 2 0 1
111 1 0.9389964875234562 14.956410817023523 5.325614938566761 2 1 -1
907 2 4.777981089165435 12.349251474890409 6.777824131346787 2 0 0
296 1 7.346191944998473 16.929858360321784 8.448061245216293 1 0 1
180 1 1.7211867036220028 13.269106339609317 9.144760442722767 1 1 1
146 1 10.372885312205725 14.355960421625738 8.195905017127545 4 -3 1
665 2 7.4871945880573465 15.08174985134692 7.532388845662593 -2 -2 0
825 2 6.620734264898246 13.514129483822067 9.221671197446087 0 1 0
926 2 10.145506350816758 12.54530669745476 5.737550024805811 -2 0 -1
118 1 7.178111723105012 12.673843475415154 7.262090054576273 -1 0 0
381 1 8.124438381000473 12.160867265757442 8.127123916475451 2 0 -4
218 1 7.262750407473978 14.422554702144128 5.977432403204743 -2 1 -3
115 1 5.882296074501846 14.07440722686929 10.643323024710023 2 1 2
362 1 8.945250696151422 15.436824534132473 7.561136671381695 1 1 1
245 1 10.600816069054092 14.423953732807462 7.230961612135232 0 -1 -2
541 2 9.857565643734874 12.200114826354215 8.312471749730102 2 1 0
583 2 9.4769853319945 16.061722835534145 9.275441813810044 0 0 1
966 2 7.11126848792461 15.917928503551392 9.546679198714271 1 -1 -1
998 2 6.819608980090437 19.18886891228161 10.070991203327816 1 -1 1
504 2 7.5317520919659495 12.619076844628225 5.742709954545924 1 0 -2
123 1 1.7774740816181869 15.128463959845083 10.129151021419899 -1 2 1
889 2 2.5817257995778324 11.455297038792489 4.394950799192275 1 0 2
947 2 10.358385267211286 17.645938212739765 6.011735376878641 -1 -1 0
280 1 4.052756689439615 12.559713334116482 10.17050666649776 -1 0 -2
716 2 7.735209891904944 19.3450166315941 7.70890672124048 -1 0 -1
316 1 1.6072941007378778 17.217480733551074 9.435422754153432 1 2 -3
726 2 4.347745049094465 21.107333497394126 6.059035445098434 0 0 2
196 1 0.43372763753099924 19.481490673768914 5.5259288329802425 1 0 -1
334 1 2.3058832215732865 19.02582130517041 5.857003819660307 2 -1 -1
523 2 8.855068152773606 21.158079410862513 9.438878873519748 0 0 2
465 2 4.6929979790241525 17.1822916067344 8.328480853940928 1 1 1
131 1 0.6953600905744145 19.298192149757604 9.272483509328879 1 3 1
194 1 5.016122726754439 19.161810383165932 6.168910165035358 -3 2 1
787 2 5.515895992789782 20.4010788405953 8.051126817314607 1 0 0
647 2 2.1291410877731076 21.0349483823575 6.590585915723467 1 2 -1
965 2 6.036928512645645 17.93739217858128 6.358243614430968 0 -1 1
636 2 4.368694020078125 18.829212743990855 10.293445078649427 -1 -1 0
508 2 2.471130891833752 19.788554297307268 8.888670664891468 0 0 -1
27 1 2.8333059352710475 12.115385412246066 10.990358406878743 0 1 -2
733 2 2.2282637652825126 17.1537281886879 8.070806991295964 1 0 1
416 2 5.472077735140223 21.351844273491867 10.061008418038094 0 1 -1
556 2 10.274611034250736 19.444174698326734 10.918900483332221 1 1 0
632 2 7.749185879735532 16.741144965527493 5.253728247938551 -2 0 1
676 2 5.485884094633216 11.159734381688683 9.25329356235717 1 0 0
23 1 3.110642337161514 21.71770875483109 10.32620497422972 -1 -4 2
3 1 10.67005481264441 21.084071950250667 2.495392033918794 1 0 4
871 2 11.030182640755266 15.260217596049381 5.788364723013205 -1 1 1
439 2 1.0240525310435904 22.234402856591 8.351560704437452 -1 1 2
188 1 1.4094120112823385 16.47672991988921 0.6940844373824195 0 0 4
337 1 0.706938600509697 15.036577735961052 1.0804372375328197 -2 0 0
47 1 0.8343643022829873 20.721400805286223 10.990366866732751 1 0 1
159 1 6.579586333408606 12.574362462599534 11.115093833477081 -1 2 -1
360 1 8.979722971555901 21.979014553630222 0.14980589392703791 -4 -1 1
52 1 1.2247888307142678 18.164247202252223 11.093498034291848 0 5 2
853 2 4.836192100278383 12.69040323566763 14.335280045640951 1 -1 0
730 2 1.7746245377049448 12.254545290625144 13.931483974687513 1 -1 -1
422 2 3.0616511140366316 14.04800444721855 14.907958269944391 -1 -1 0
955 2 3.9309883172747275 17.50890140936391 14.946015684640468 0 0 -2
68 1 2.243150462776816 14.32251653412663 15.950578090632629 2 1 2
679 2 5.24034687618025 14.907823113920347 12.18801653210864 1 1 0
45 1 10.289323340045707 20.23885030179099 13.916615474747768 1 2 2
48 1 1.981950094708288 15.772837102905283 11.771862984111687 2 -2 -1
738 2 0.4667535702707381 13.218748579214694 11.177803620228465 0 1 0
872 2 1.1730898442043511 11.404160665174675 19.96197234086211 0 -1 1
105 1 4.138030083491223 22.238664575613367 14.506266397846323 0 1 2
227 1 6.439994352745177 21.771771156094474 15.071502218836226 1 -3 -1
887 2 1.5522766450189702 15.53866290268429 13.673363683644208 2 0 1
848 2 3.763621019501322 13.101655698155223 11.915764826329823 1 -1 -1
389 1 0.12049083398177797 19.303030230295786 15.59927635023497 0 1 1
671 2 4.549536568578569 16.942361927839514 11.668787818200725 3 1 2
436 2 5.357566451768158 15.453954540860257 14.43536439402445 1 1 1
756 2 7.980762618514658 16.451189223005937 13.284407191223185 -1 0 -3
585 2 7.50677982211689 13.11655337414087 14.565821456655376 -2 0 -1
591 2 4.623489162880272 11.218151138774768 19.7304182975912 1 1 0
549 2 10.629573144579783 14.275169560843413 13.333459544998114 -1 -1 -1
857 2 7.53311372937849 14.531379122569964 12.163377672114674 0 1 1
660 2 9.091097596226753 16.343154501012435 15.357534145151833 1 -1 -2
801 2 9.177889104472179 11.316887325147514 16.373142029426944 1 -2 -2
743 2 10.344668677153425 22.20010840214095 21.84034797758503 -1 0 -2
604 2 9.607080572406108 13.979877540426116 15.672278095553148 0 2 3
327 1 5.5714416929166655 18.034895261999807 19.559806406696676 -2 0 0
24 1 10.418520214688627 16.964640271131707 15.420459854695745 1 -1 -1
99 1 7.089690933946378 15.940702637934999 11.904174097847012 4 2 0
148 1 7.456396051318308 21.01266393652937 18.579783258103475 -2 -3 1
291 1 8.369526004928076 12.608780011502322 12.637194767425044 2 -1 2
407 2 8.143607636445713 18.44575996096994 21.007132883421008 2 -1 -1
633 2 1.5044378604500799 17.967715193714394 13.96174792664064 2 0 1
499 2 1.1926106471686924 20.77513795231433 13.591027904094247 -1 0 -1
566 2 1.187319945050202 20.541827573019432 16.090469628581154 2 1 -1
614 2 3.5704929369411103 19.676004758326517 14.708020448818912 2 0 -1
988 2 2.0715321948647842 19.484085346573256 11.297086498761384 1 -1 1
630 2 5.908130033953535 19.277873207879914 15.22576025606324 1 0 0
834 2 4.513622333235858 20.099692606210393 12.715253374929091 -2 -1 -1
19 1 9.975733703740183 17.89373766454326 12.997938089082936 -3 1 0
1 1 2.2104136526685494 22.265775110226965 18.042660059421294 2 2 1
635 2 2.9208287876891768 22.205442877961705 12.615197225777614 -1 0 0
150 1 1.9545094255607223 13.93324409355411 11.614818135763338 -1 0 0
766 2 6.229507795016061 19.013834889644368 22.170932893022254 -2 0 0
724 2 2.2285976462249493 17.304395794898788 11.986633008618048 2 0 0
520 2 6.314363984475478 18.13898211491999 12.978638296612294 2 1 0
301 1 8.327990134408617 19.661750485737688 14.443490668795992 1 0 4
528 2 9.342277773169727 20.033134600302652 16.892088619717345 0 -2 -1
208 1 11.032995220104258 14.518822610923799 19.893367426888496 2 -2 1
447 2 9.304226565506104 17.54164325818178 11.581240395256852 -1 0 -3
432 2 6.3258061110387676 21.50251961590824 13.591310758567888 1 -3 1
348 1 7.442694888265182 20.824857380171476 12.688094900966574 0 2 -1
844 2 8.640725764188687 18.627668189963984 15.38590386359063 0 0 -1
533 2 8.778342933242815 22.06573124664523 16.25931506843698 0 -2 1
302 1 4.482441388719607 21.91485246873205 13.875964848040233 0 -1 1
351 1 8.930802075001605 21.34306850401552 11.802739044620333 4 -1 1
173 1 3.302115848112072 11.717303614085138 19.94616384628482 -3 2 0
948 2 9.27616914530842 20.8076361715944 13.272906428322951 0 -1 0
117 1 2.7690637005176155 19.167431329669377 15.743739226011654 0 1 2
963 2 1.1919321743237863 14.317397235341938 20.0297500024404 -1 2 1
243 1 5.746410450541944 13.222065443467566 18.651009153241183 -4 0 1
328 1 4.96916137864791 12.763178512321463 21.827663376149303 0 0 1
826 2 0.9921905852248358 15.70107320290763 17.66092952822339 0 -1 1
557 2 4.250847053427427 12.917283284708253 17.818143708360243 1 -3 -1
797 2 1.5990187027782614 12.929753133103318 21.657082584288755 -1 -1 0